  ==> Input File <==

--------------------------------------------------------------------------
set {
	reference rhf
	basis cc-pvtz
}

set_num_threads( 4 )
memory 2 gb

molecule MOL {
0 1

H	 -3.941973	 0.934228	 -0.390224
C	 -3.240162	 0.342701	 0.161016
C	 -2.105997	 -0.000418	 -0.398703
H	 -3.485368	 0.047206	 1.162193
O	 -1.189946	 -0.765863	 0.237511
H	 -1.846458	 0.297311	 -1.398265
C	 0.026572	 -0.995256	 -0.379403
C	 1.057223	 0.049888	 -0.004615
H	 -0.054361	 -1.010670	 -1.459674
H	 0.397526	 -1.952058	 -0.044198
F	 1.215001	 0.890123	 -1.007706
F	 0.687812	 0.748691	 1.047391
F	 2.225048	 -0.482789	 0.261653

	symmetry c1
}
set optking {
	frozen_dihedral = ("
		11 8 7 9
	")
}

ee = optimize('scf')
oeprop('DIPOLE', 'QUADRUPOLE', 'MULLIKEN_CHARGES')
f=open( 'psi4out.xyz', 'w' )
f.write( "13  " )
f.write( str(ee) + "\n" )
f.write( MOL.save_string_xyz() )
f.close()
--------------------------------------------------------------------------

    Molecular point group: c1
  Charge       = 0
  Multiplicity = 1
  Basis Set: CC-PVTZ
  Basis Set:
  @DF-RHF Final Energy:  -527.73570990044652
    Total Energy =                       -527.7357099004467500
    Molecular point group: c1
  Basis Set: CC-PVTZ
  Basis Set:
  Basis Set: CC-PVTZ
  Basis Set:
  @DF-RHF Final Energy:  -527.73669585207949
    Total Energy =                       -527.7366958520798335
  Basis Set: CC-PVTZ
  Basis Set:
  Basis Set: CC-PVTZ
  Basis Set:
  @DF-RHF Final Energy:  -527.73694570542955
    Total Energy =                       -527.7369457054295481
  Basis Set: CC-PVTZ
  Basis Set:
  Basis Set: CC-PVTZ
  Basis Set:
  @DF-RHF Final Energy:  -527.73698287284071
    Total Energy =                       -527.7369828728405992
  Basis Set: CC-PVTZ
  Basis Set:
  @DF-RHF Final Energy:  -527.73699593043921
    Total Energy =                       -527.7369959304392069
  Basis Set: CC-PVTZ
  Basis Set:
  @DF-RHF Final Energy:  -527.73700542806068
    Total Energy =                       -527.7370054280609111
  Basis Set: CC-PVTZ
  Basis Set:
  Basis Set: CC-PVTZ
  Basis Set:
  @DF-RHF Final Energy:  -527.73700955891263
    Total Energy =                       -527.7370095589124048
  Basis Set: CC-PVTZ
  Basis Set:
  Basis Set: CC-PVTZ
  Basis Set:
  @DF-RHF Final Energy:  -527.73701151145974
    Total Energy =                       -527.7370115114600821
  Basis Set: CC-PVTZ
  Basis Set:
  Charge       = 0
  Multiplicity = 1
  Basis Set: CC-PVTZ
  Basis Set:

    Orbital Energies (a.u.)
    -----------------------

    Doubly Occupied:

       1A    -26.340095     2A    -26.339015     3A    -26.338431
       4A    -20.602486     5A    -11.498877     6A    -11.319762
       7A    -11.297975     8A    -11.215324     9A     -1.750182
      10A     -1.647151    11A     -1.643232    12A     -1.443373
      13A     -1.084131    14A     -1.019721    15A     -0.932109
      16A     -0.842909    17A     -0.837685    18A     -0.827323
      19A     -0.798510    20A     -0.727219    21A     -0.721430
      22A     -0.700779    23A     -0.680505    24A     -0.668888
      25A     -0.661548    26A     -0.649741    27A     -0.637874
      28A     -0.587330    29A     -0.566177    30A     -0.527085
      31A     -0.516047    32A     -0.358087

  @DF-RHF Final Energy:  -527.73701230508982

   => Energetics <=

    Nuclear Repulsion Energy =            413.9874415007767539
    One-Electron Energy =               -1551.8869021776959016
    Two-Electron Energy =                 610.1624483718292140
    DFT Exchange-Correlation Energy =       0.0000000000000000
    Empirical Dispersion Energy =           0.0000000000000000
    PCM Polarization Energy =               0.0000000000000000
    EFP Energy =                            0.0000000000000000
    Total Energy =                       -527.7370123050900474
    Molecular point group: c1
  Basis Set: CC-PVTZ
  Basis Set:

  -Total Gradient:
     Atom            X                  Y                   Z
    ------   -----------------  -----------------  -----------------
       1        0.000006629620     0.000008276662     0.000005390734
       2       -0.000010956156    -0.000004140889    -0.000009106561
       3        0.000047673811    -0.000020197372     0.000012312105
       4       -0.000001410201    -0.000003473001     0.000000653183
       5        0.000072291434    -0.000011513387    -0.000034666195
       6        0.000001249529     0.000017812502     0.000004536517
       7        0.004729459086    -0.004041246993    -0.000561248771
       8       -0.004051357944     0.003007645939     0.001754841715
       9       -0.003312949352     0.002817657844     0.000123855442
      10        0.000010153812     0.000026031843     0.000014870419
      11        0.002773244506    -0.001978520810    -0.001285974801
      12       -0.000107321448     0.000089601384     0.000052850030
      13       -0.000156706700     0.000092066275    -0.000078313813

  **** Optimization is complete! (in 9 steps) ****
    Final optimized geometry and variables:
    Molecular point group: c1

    Geometry (in Angstrom), charge = 0, multiplicity = 1:

    H           -3.829909486130     1.014816526752    -0.356392286445
    C           -3.164776001390     0.364088596558     0.173334396100
    C           -2.057283009801    -0.035225940751    -0.402204819540
    H           -3.426158551490     0.052404515576     1.165487417766
    O           -1.194845595251    -0.886717017671     0.198099712134
    H           -1.782247896422     0.278065432326    -1.393995218728
    C            0.057848430693    -1.048547163897    -0.368834715971
    C            1.033522495947     0.074343065448     0.003547164491
    H           -0.012255565704    -1.074571038164    -1.449210444334
    H            0.460933186439    -1.977315150936    -0.001508925559
    F            1.175280669556     0.938828924021    -0.984125510428
    F            0.664590277577     0.735702179191     1.067690601942
    F            2.230816567547    -0.429846803474     0.232927610069

  Mulliken Charges: (a.u.)
   Center  Symbol    Alpha    Beta     Spin     Total
       1     H     0.42511  0.42511  0.00000  0.14978
       2     C     3.19337  3.19337  0.00000 -0.38673
       3     C     2.96342  2.96342  0.00000  0.07316
       4     H     0.42444  0.42444  0.00000  0.15112
       5     O     4.14047  4.14047  0.00000 -0.28094
       6     H     0.43374  0.43374  0.00000  0.13252
       7     C     3.02843  3.02843  0.00000 -0.05686
       8     C     2.67457  2.67457  0.00000  0.65087
       9     H     0.45528  0.45528  0.00000  0.08945
      10     H     0.43347  0.43347  0.00000  0.13306
      11     F     4.61392  4.61392  0.00000 -0.22784
      12     F     4.60202  4.60202  0.00000 -0.20404
      13     F     4.61177  4.61177  0.00000 -0.22354

   Total alpha = 32.00000, Total beta = 32.00000, Total charge = -0.00000
