                              Psi4 1.0.54 Driver

  ==> Input File <==

--------------------------------------------------------------------------
set {
	reference rhf
	basis cc-pvtz
}

set_num_threads( 4 )
memory 2 gb

molecule MOL {
0 1

O	 -2.440701	 -0.934798	 -0.415053
C	 -1.922978	 0.063265	 -0.045005
C	 -2.632749	 1.372204	 0.158357
O	 -0.637375	 0.157174	 0.243149
H	 -2.187724	 2.129143	 -0.474664
H	 -3.677681	 1.257276	 -0.079438
H	 -2.516788	 1.693160	 1.185542
C	 0.162530	 -1.009518	 0.097799
C	 1.587210	 -0.664190	 0.477086
H	 0.096803	 -1.356267	 -0.924704
H	 -0.233803	 -1.785900	 0.736810
C	 2.256770	 0.342732	 -0.454344
H	 2.154716	 -1.590834	 0.479041
H	 1.598751	 -0.289614	 1.496104
C	 2.372789	 -0.167826	 -1.886645
H	 1.687902	 1.268702	 -0.446054
H	 3.242939	 0.583504	 -0.074419
H	 2.847227	 0.567024	 -2.526403
H	 1.396786	 -0.389874	 -2.305578
H	 2.964757	 -1.075901	 -1.931258

	symmetry c1
}
set optking {
	frozen_dihedral = ("
		16 12 9 8
	")
}

ee,wfn = optimize('scf', return_wfn=True)
oeprop( wfn, 'DIPOLE', 'QUADRUPOLE', 'MULLIKEN_CHARGES')
f=open( 'psi4out.xyz', 'w' )
f.write( "20  " )
f.write( str(ee) + "\n" )
f.write( MOL.save_string_xyz() )
f.close()
--------------------------------------------------------------------------

    Molecular point group: c1
  Charge       = 0
  Multiplicity = 1
  Basis Set: CC-PVTZ
  Basis Set:
  @DF-RHF Final Energy:  -384.08534733899575
    Total Energy =                       -384.0853473389959163
    Molecular point group: c1
  Basis Set: CC-PVTZ
  Basis Set:
  Basis Set: CC-PVTZ
  Basis Set:
  @DF-RHF Final Energy:  -384.08518030117818
    Total Energy =                       -384.0851803011782977
  Basis Set: CC-PVTZ
  Basis Set:
  Basis Set: CC-PVTZ
  Basis Set:
  @DF-RHF Final Energy:  -384.08602072082334
    Total Energy =                       -384.0860207208232850
  Basis Set: CC-PVTZ
  Basis Set:
  Basis Set: CC-PVTZ
  Basis Set:
  @DF-RHF Final Energy:  -384.08539575056523
    Total Energy =                       -384.0853957505653398
  Basis Set: CC-PVTZ
  Basis Set:
  Basis Set: CC-PVTZ
  Basis Set:
  @DF-RHF Final Energy:  -384.08607979158319
    Total Energy =                       -384.0860797915827334
  Basis Set: CC-PVTZ
  Basis Set:
  Basis Set: CC-PVTZ
  Basis Set:
  @DF-RHF Final Energy:  -384.08608510438006
    Total Energy =                       -384.0860851043795492
  Basis Set: CC-PVTZ
  Basis Set:
  Charge       = 0
  Multiplicity = 1
  Basis Set: CC-PVTZ
  Basis Set:

    Orbital Energies (a.u.)
    -----------------------

    Doubly Occupied:

       1A    -20.594416     2A    -20.532763     3A    -11.366779
       4A    -11.279475     5A    -11.231775     6A    -11.223823
       7A    -11.218905     8A    -11.211363     9A     -1.471061
      10A     -1.365241    11A     -1.086597    12A     -1.027908
      13A     -0.979927    14A     -0.891252    15A     -0.808906
      16A     -0.769996    17A     -0.693388    18A     -0.690908
      19A     -0.668004    20A     -0.621895    21A     -0.620745
      22A     -0.578292    23A     -0.575900    24A     -0.564461
      25A     -0.537194    26A     -0.528636    27A     -0.524572
      28A     -0.479468    29A     -0.477656    30A     -0.469449
      31A     -0.452089    32A     -0.442158

  @DF-RHF Final Energy:  -384.08608524569814

   => Energetics <=

    Nuclear Repulsion Energy =            391.4481963119641819
    One-Electron Energy =               -1299.0985526193658188
    Two-Electron Energy =                 523.5642710617037210
    DFT Exchange-Correlation Energy =       0.0000000000000000
    Empirical Dispersion Energy =           0.0000000000000000
    PCM Polarization Energy =               0.0000000000000000
    EFP Energy =                            0.0000000000000000
    Total Energy =                       -384.0860852456978591
    Molecular point group: c1
  Basis Set: CC-PVTZ
  Basis Set:

  -Total Gradient:
     Atom            X                  Y                   Z
    ------   -----------------  -----------------  -----------------
       1       -0.000053549467    -0.000025441970    -0.000002662323
       2        0.000060375195     0.000028639642     0.000019134825
       3       -0.000002612757    -0.000005894885    -0.000009064000
       4       -0.000025450465     0.000004784199     0.000022703072
       5        0.000001148162     0.000003744788    -0.000001421518
       6       -0.000011130686    -0.000000554948    -0.000001917012
       7        0.000001684797    -0.000002241972     0.000002589066
       8        0.000064277025    -0.000074480721    -0.000131429618
       9       -0.000027239527     0.000114775091     0.000100836463
      10        0.000009223230    -0.000001794159     0.000012462144
      11       -0.000009390874     0.000004937837     0.000012776045
      12       -0.000075347374    -0.000093088922    -0.000123000071
      13       -0.000002784921    -0.000003971313     0.000002506940
      14        0.000011182563     0.000005884149     0.000002890643
      15       -0.000003197520     0.000001192817     0.000006811462
      16        0.000067267932     0.000045593185     0.000082572688
      17       -0.000000315108     0.000000702830     0.000001540719
      18        0.000005456498     0.000003500837     0.000001033429
      19       -0.000007431110    -0.000004521416    -0.000000063069
      20       -0.000002165598    -0.000001765072     0.000001700117

  **** Optimization is complete! (in 7 steps) ****
    Final optimized geometry and variables:
    Molecular point group: c1

    Geometry (in Angstrom), charge = 0, multiplicity = 1:

    O           -2.281131044689    -0.878197982961     0.060786181587
    C           -1.747885740927     0.155844483511     0.278741769394
    C           -2.453196277015     1.478828756380     0.378552571887
    O           -0.446447099041     0.282575501851     0.465076389308
    H           -2.058477463116     2.157965167909    -0.366191288455
    H           -3.510902775818     1.336803939317     0.227648322239
    H           -2.270176939809     1.915734455059     1.351722334300
    C            0.351236018962    -0.893136954976     0.401411028014
    C            1.795704026402    -0.504858501301     0.646246438385
    H            0.211072314844    -1.361481137987    -0.561549086561
    H            0.010131674786    -1.588410441028     1.155384955064
    C            2.403373282645     0.457219241270    -0.376120444715
    H            2.375051059039    -1.423975094029     0.669894685628
    H            1.868795706561    -0.065584781309     1.635542160446
    C            2.494468556199    -0.097841401035    -1.795198427988
    H            1.834510276008     1.379904203104    -0.382009616278
    H            3.400973645922     0.716861177051    -0.036731886702
    H            3.001114149768     0.603753497961    -2.447499478082
    H            1.516222957962    -0.286303502555    -2.221317879085
    H            3.050882754072    -1.029438674794    -1.817761084752

  Mulliken Charges: (a.u.)
   Center  Symbol    Alpha    Beta     Spin     Total
       1     O     4.19723  4.19723  0.00000 -0.39447
       2     C     2.80916  2.80916  0.00000  0.38168
       3     C     3.13845  3.13845  0.00000 -0.27689
       4     O     4.15387  4.15387  0.00000 -0.30773
       5     H     0.44620  0.44620  0.00000  0.10760
       6     H     0.43775  0.43775  0.00000  0.12451
       7     H     0.44561  0.44561  0.00000  0.10878
       8     C     2.99621  2.99621  0.00000  0.00759
       9     C     3.09245  3.09245  0.00000 -0.18489
      10     H     0.44954  0.44954  0.00000  0.10091
      11     H     0.44180  0.44180  0.00000  0.11640
      12     C     3.08996  3.08996  0.00000 -0.17993
      13     H     0.45109  0.45109  0.00000  0.09782
      14     H     0.44702  0.44702  0.00000  0.10596
      15     C     3.15423  3.15423  0.00000 -0.30846
      16     H     0.44838  0.44838  0.00000  0.10324
      17     H     0.44807  0.44807  0.00000  0.10385
      18     H     0.44548  0.44548  0.00000  0.10904
      19     H     0.45281  0.45281  0.00000  0.09437
      20     H     0.45469  0.45469  0.00000  0.09062

   Total alpha = 32.00000, Total beta = 32.00000, Total charge = -0.00000

*** Psi4 exiting successfully. Buy a developer a beer!
