                              Psi4 1.0.54 Driver

  ==> Input File <==

--------------------------------------------------------------------------
set {
	reference rhf
	basis cc-pvtz
}

set_num_threads( 4 )
memory 2 gb

molecule MOL {
0 1

O	 -1.278239	 1.034789	 -0.784693
C	 -1.204115	 0.062668	 -0.112312
C	 -2.386398	 -0.667698	 0.460323
O	 -0.068058	 -0.518372	 0.226882
H	 -2.382952	 -1.693172	 0.114333
H	 -3.296656	 -0.175702	 0.158400
H	 -2.312537	 -0.685191	 1.540100
C	 1.169086	 0.037484	 -0.230612
C	 1.140482	 1.504781	 0.147986
C	 1.314094	 -0.187450	 -1.724929
H	 1.970512	 -0.464207	 0.290071
H	 1.030692	 1.621607	 1.218521
H	 2.063084	 1.984442	 -0.156058
H	 0.314703	 2.010780	 -0.337801
H	 2.244689	 0.243594	 -2.075204
H	 1.323430	 -1.243649	 -1.955157
H	 0.497102	 0.282244	 -2.260836

	symmetry c1
}
set optking {
	frozen_dihedral = ("
		11 8 4 2
	")
}

ee,wfn = optimize('scf', return_wfn=True)
oeprop( wfn, 'DIPOLE', 'QUADRUPOLE', 'MULLIKEN_CHARGES')
f=open( 'psi4out.xyz', 'w' )
f.write( "17  " )
f.write( str(ee) + "\n" )
f.write( MOL.save_string_xyz() )
f.close()
--------------------------------------------------------------------------

    Molecular point group: c1
  Charge       = 0
  Multiplicity = 1
  Basis Set: CC-PVTZ
  Basis Set:
  @DF-RHF Final Energy:  -345.02585563924367
    Total Energy =                       -345.0258556392436731
    Molecular point group: c1
  Basis Set: CC-PVTZ
  Basis Set:
  Basis Set: CC-PVTZ
  Basis Set:
  @DF-RHF Final Energy:  -345.02673316425819
    Total Energy =                       -345.0267331642587578
  Basis Set: CC-PVTZ
  Basis Set:
  Basis Set: CC-PVTZ
  Basis Set:
  @DF-RHF Final Energy:  -345.03504456608965
    Total Energy =                       -345.0350445660899368
  Basis Set: CC-PVTZ
  Basis Set:
  Basis Set: CC-PVTZ
  Basis Set:
  @DF-RHF Final Energy:  -345.03768258299880
    Total Energy =                       -345.0376825829995369
  Basis Set: CC-PVTZ
  Basis Set:
  @DF-RHF Final Energy:  -345.03804651112586
    Total Energy =                       -345.0380465111257990
  @DF-RHF Final Energy:  -345.03821555078918
    Total Energy =                       -345.0382155507892890
  Basis Set: CC-PVTZ
  Basis Set:
  @DF-RHF Final Energy:  -345.03823428772449
    Total Energy =                       -345.0382342877247197
  Basis Set: CC-PVTZ
  Basis Set:
  Basis Set: CC-PVTZ
  Basis Set:
  @DF-RHF Final Energy:  -345.03822275495071
    Total Energy =                       -345.0382227549503114
  Basis Set: CC-PVTZ
  Basis Set:
  Basis Set: CC-PVTZ
  Basis Set:
  @DF-RHF Final Energy:  -345.03823551801656
    Total Energy =                       -345.0382355180165064
  Basis Set: CC-PVTZ
  Basis Set:
  Charge       = 0
  Multiplicity = 1
  Basis Set: CC-PVTZ
  Basis Set:

    Orbital Energies (a.u.)
    -----------------------

    Doubly Occupied:

       1A    -20.589646     2A    -20.529932     3A    -11.366624
       4A    -11.292348     5A    -11.229134     6A    -11.213283
       7A    -11.211773     8A     -1.465405     9A     -1.363729
      10A     -1.077150    11A     -1.003703    12A     -0.946542
      13A     -0.868483    14A     -0.732203    15A     -0.697874
      16A     -0.673085    17A     -0.662790    18A     -0.616006
      19A     -0.586266    20A     -0.581095    21A     -0.570320
      22A     -0.552474    23A     -0.529770    24A     -0.520363
      25A     -0.499511    26A     -0.484149    27A     -0.448826
      28A     -0.431500

  @DF-RHF Final Energy:  -345.03823571753361

   => Energetics <=

    Nuclear Repulsion Energy =            327.3302724374559034
    One-Electron Energy =               -1119.2490447702100482
    Two-Electron Energy =                 446.8805366152206489
    DFT Exchange-Correlation Energy =       0.0000000000000000
    Empirical Dispersion Energy =           0.0000000000000000
    PCM Polarization Energy =               0.0000000000000000
    EFP Energy =                            0.0000000000000000
    Total Energy =                       -345.0382357175334391
    Molecular point group: c1
  Basis Set: CC-PVTZ
  Basis Set:

  -Total Gradient:
     Atom            X                  Y                   Z
    ------   -----------------  -----------------  -----------------
       1       -0.000000230554    -0.000010067564     0.000003760326
       2        0.000326927103     0.000844262598     0.002167579924
       3       -0.000001449973     0.000026633688     0.000051342832
       4       -0.000488742138    -0.001096632907    -0.002964120394
       5       -0.000003316543    -0.000004163153    -0.000019657308
       6       -0.000002614686    -0.000000075202    -0.000004787698
       7       -0.000000732216    -0.000017868318    -0.000004474905
       8        0.000007425599    -0.001022228354    -0.001385831195
       9        0.000005498455     0.000027098721    -0.000012699257
      10       -0.000000981860     0.000006149456    -0.000010578773
      11        0.000134005467     0.001264584084     0.002166340845
      12       -0.000000545860    -0.000008999421     0.000009464691
      13        0.000010025119    -0.000005511217    -0.000004632669
      14        0.000008383717    -0.000001217520    -0.000000904828
      15        0.000005221475     0.000003036618     0.000004435642
      16        0.000002177902    -0.000010012761     0.000000044656
      17       -0.000001051002     0.000005011257     0.000004718111

  **** Optimization is complete! (in 10 steps) ****
    Final optimized geometry and variables:
    Molecular point group: c1

    Geometry (in Angstrom), charge = 0, multiplicity = 1:

    O           -1.214033110612     0.942944611841    -0.242794782847
    C           -1.062744622405    -0.128530898628     0.238813625319
    C           -2.173205925961    -0.949927993621     0.834679480739
    O            0.090152546820    -0.764016556386     0.316173576188
    H           -2.230673187063    -1.905179045490     0.329203239510
    H           -3.106900702946    -0.420262591623     0.737070061389
    H           -1.961574398981    -1.143308688501     1.878460659071
    C            1.331591088843    -0.175734735186    -0.101443029062
    C            1.621561598725     1.150792955034     0.585463041549
    C            1.423636802579    -0.114303628591    -1.615612825395
    H            2.048223798606    -0.892875753309     0.272935651428
    H            1.465968900044     1.064606464404     1.654427946517
    H            2.662972273017     1.403059553808     0.420623787592
    H            1.005756543467     1.950797549364     0.207128807508
    H            2.424963757227     0.182986104603    -1.905026108607
    H            1.222596656828    -1.087516206891    -2.046430638454
    H            0.721692651730     0.600142344300    -2.021184849932

  Mulliken Charges: (a.u.)
   Center  Symbol    Alpha    Beta     Spin     Total
       1     O     4.20189  4.20189  0.00000 -0.40377
       2     C     2.80091  2.80091  0.00000  0.39818
       3     C     3.13711  3.13711  0.00000 -0.27422
       4     O     4.16350  4.16350  0.00000 -0.32700
       5     H     0.44542  0.44542  0.00000  0.10917
       6     H     0.43881  0.43881  0.00000  0.12237
       7     H     0.44647  0.44647  0.00000  0.10706
       8     C     2.93803  2.93803  0.00000  0.12393
       9     C     3.16123  3.16123  0.00000 -0.32246
      10     C     3.15698  3.15698  0.00000 -0.31395
      11     H     0.43990  0.43990  0.00000  0.12020
      12     H     0.44884  0.44884  0.00000  0.10231
      13     H     0.44993  0.44993  0.00000  0.10013
      14     H     0.43415  0.43415  0.00000  0.13171
      15     H     0.45082  0.45082  0.00000  0.09836
      16     H     0.44764  0.44764  0.00000  0.10472
      17     H     0.43837  0.43837  0.00000  0.12326

   Total alpha = 28.00000, Total beta = 28.00000, Total charge = -0.00000

*** Psi4 exiting successfully. Buy a developer a beer!
