                              Psi4 1.0.54 Driver

  ==> Input File <==

--------------------------------------------------------------------------
set {
	reference rhf
	basis cc-pvtz
}

set_num_threads( 4 )
memory 2 gb

molecule MOL {
0 1

H	 -3.144994	 -1.202467	 -0.018751
O	 -2.321472	 -0.864941	 -0.318626
C	 -2.021813	 0.336996	 0.342658
C	 -0.669613	 0.837286	 -0.127252
H	 -2.780861	 1.084746	 0.127159
H	 -2.006390	 0.184138	 1.420053
C	 0.490865	 -0.082543	 0.241244
H	 -0.708709	 0.967192	 -1.204587
H	 -0.507562	 1.822272	 0.303070
C	 0.043670	 -1.343416	 0.975290
H	 1.197321	 0.463766	 0.855675
H	 1.023867	 -0.365646	 -0.664230
C	 1.202062	 -2.266997	 1.337106
H	 -0.486915	 -1.061169	 1.880563
H	 -0.670456	 -1.886004	 0.361033
H	 1.916085	 -1.763770	 1.980417
H	 0.852649	 -3.151042	 1.858334
H	 1.733206	 -2.594953	 0.449539

	symmetry c1
}
set optking {
	frozen_dihedral = ("
		10 7 4 8
	")
}

ee,wfn = optimize('scf', return_wfn=True)
oeprop( wfn, 'DIPOLE', 'QUADRUPOLE', 'MULLIKEN_CHARGES')
f=open( 'psi4out.xyz', 'w' )
f.write( "18  " )
f.write( str(ee) + "\n" )
f.write( MOL.save_string_xyz() )
f.close()
--------------------------------------------------------------------------

    Molecular point group: c1
  Charge       = 0
  Multiplicity = 1
  Basis Set: CC-PVTZ
  Basis Set:
  @DF-RHF Final Energy:  -271.26812132107290
    Total Energy =                       -271.2681213210726696
    Molecular point group: c1
  Basis Set: CC-PVTZ
  Basis Set:
  Basis Set: CC-PVTZ
  Basis Set:
  @DF-RHF Final Energy:  -271.27152906739479
    Total Energy =                       -271.2715290673948516
  Basis Set: CC-PVTZ
  Basis Set:
  Basis Set: CC-PVTZ
  Basis Set:
  @DF-RHF Final Energy:  -271.27611922546993
    Total Energy =                       -271.2761192254698699
  Basis Set: CC-PVTZ
  Basis Set:
  Basis Set: CC-PVTZ
  Basis Set:
  @DF-RHF Final Energy:  -271.27654510788011
    Total Energy =                       -271.2765451078803380
  Basis Set: CC-PVTZ
  Basis Set:
  Basis Set: CC-PVTZ
  Basis Set:
  @DF-RHF Final Energy:  -271.27661721580500
    Total Energy =                       -271.2766172158047766
  Basis Set: CC-PVTZ
  Basis Set:
  Basis Set: CC-PVTZ
  Basis Set:
  @DF-RHF Final Energy:  -271.27669357637598
    Total Energy =                       -271.2766935763758056
  Basis Set: CC-PVTZ
  Basis Set:
  Basis Set: CC-PVTZ
  Basis Set:
  @DF-RHF Final Energy:  -271.27670095327778
    Total Energy =                       -271.2767009532776683
  Basis Set: CC-PVTZ
  Basis Set:
  Charge       = 0
  Multiplicity = 1
  Basis Set: CC-PVTZ
  Basis Set:

    Orbital Energies (a.u.)
    -----------------------

    Doubly Occupied:

       1A    -20.546623     2A    -11.266240     3A    -11.211691
       4A    -11.208176     5A    -11.204106     6A    -11.200909
       7A     -1.364315     8A     -1.071241     9A     -1.007224
      10A     -0.914100    11A     -0.833698    12A     -0.766537
      13A     -0.708370    14A     -0.645194    15A     -0.626870
      16A     -0.582990    17A     -0.565060    18A     -0.553933
      19A     -0.535416    20A     -0.498326    21A     -0.490549
      22A     -0.469374    23A     -0.451048    24A     -0.445952
      25A     -0.428008

  @DF-RHF Final Energy:  -271.27670248031416

   => Energetics <=

    Nuclear Repulsion Energy =            254.8432722658780847
    One-Electron Energy =                -873.0480507150002722
    Two-Electron Energy =                 346.9280759688081162
    DFT Exchange-Correlation Energy =       0.0000000000000000
    Empirical Dispersion Energy =           0.0000000000000000
    PCM Polarization Energy =               0.0000000000000000
    EFP Energy =                            0.0000000000000000
    Total Energy =                       -271.2767024803140430
    Molecular point group: c1
  Basis Set: CC-PVTZ
  Basis Set:

  -Total Gradient:
     Atom            X                  Y                   Z
    ------   -----------------  -----------------  -----------------
       1       -0.000042601396    -0.000019985877     0.000000402308
       2        0.000049635391     0.000014881174    -0.000007940678
       3       -0.000029281496    -0.000040177143    -0.000005461428
       4        0.000584969584     0.000835531410    -0.000103611526
       5        0.000002866452     0.000009923034     0.000004988859
       6       -0.000011282426     0.000003403678     0.000001304397
       7       -0.000131408409     0.000205028639     0.000879802366
       8       -0.000460745929    -0.000757958476    -0.000142589004
       9        0.000010423025    -0.000009103357     0.000004970401
      10       -0.000021699084    -0.000332380360    -0.000609943073
      11        0.000004477213    -0.000012725037    -0.000009031812
      12       -0.000003067447     0.000002211726    -0.000016250540
      13        0.000032349130     0.000028210569    -0.000003938537
      14       -0.000027634767     0.000036792693     0.000020364063
      15       -0.000003660531     0.000044251316    -0.000020172281
      16        0.000035499995    -0.000008317911     0.000016442691
      17       -0.000014346289     0.000019287491    -0.000008266524
      18        0.000025506980    -0.000018873568    -0.000001069682

  **** Optimization is complete! (in 8 steps) ****
    Final optimized geometry and variables:
    Molecular point group: c1

    Geometry (in Angstrom), charge = 0, multiplicity = 1:

    H           -2.673843854288    -0.703052533691    -0.796910707071
    O           -1.837718105487    -0.318007149519    -0.984349638112
    C           -1.607755301515     0.775126750666    -0.131827448640
    C           -0.242290035898     1.370286543711    -0.430043363655
    H           -2.359495906658     1.541544805150    -0.302858144360
    H           -1.685364126554     0.472187508569     0.908175029776
    C            1.016903016245     0.568137950375    -0.007170691550
    H           -0.214776900576     1.548321431038    -1.498699763326
    H           -0.213510408870     2.346264698243     0.042973609244
    C            0.810048555530    -0.798293838032     0.647908879262
    H            1.602946415724     1.179836300665     0.672036568864
    H            1.641710627385     0.425829380345    -0.882493286158
    C            2.136798284056    -1.470568649163     0.988185321919
    H            0.230091215924    -0.689518705519     1.559656106142
    H            0.236019065609    -1.437398044509    -0.009293750443
    H            2.724160558829    -0.864110506631     1.670252264870
    H            1.977243265012    -2.434607215706     1.457839334934
    H            2.733222392943    -1.633125736795     0.096452155652

  Mulliken Charges: (a.u.)
   Center  Symbol    Alpha    Beta     Spin     Total
       1     H     0.39493  0.39493  0.00000  0.21014
       2     O     4.20172  4.20172  0.00000 -0.40343
       3     C     2.98281  2.98281  0.00000  0.03438
       4     C     3.09663  3.09663  0.00000 -0.19327
       5     H     0.45879  0.45879  0.00000  0.08242
       6     H     0.46701  0.46701  0.00000  0.06598
       7     C     3.09026  3.09026  0.00000 -0.18052
       8     H     0.44984  0.44984  0.00000  0.10031
       9     H     0.45066  0.45066  0.00000  0.09867
      10     C     3.08685  3.08685  0.00000 -0.17369
      11     H     0.45405  0.45405  0.00000  0.09190
      12     H     0.45244  0.45244  0.00000  0.09512
      13     C     3.15145  3.15145  0.00000 -0.30289
      14     H     0.45835  0.45835  0.00000  0.08329
      15     H     0.44226  0.44226  0.00000  0.11548
      16     H     0.45749  0.45749  0.00000  0.08503
      17     H     0.44937  0.44937  0.00000  0.10127
      18     H     0.45510  0.45510  0.00000  0.08981

   Total alpha = 25.00000, Total beta = 25.00000, Total charge =  0.00000

*** Psi4 exiting successfully. Buy a developer a beer!
