                              Psi4 1.0.54 Driver

  ==> Input File <==

--------------------------------------------------------------------------
set {
	reference rhf
	basis cc-pvtz
}

set_num_threads( 4 )
memory 2 gb

molecule MOL {
0 1

H	 -0.000342	 -0.223902	 -3.352295
C	 -0.027146	 0.371068	 -2.446756
C	 0.024493	 -0.518541	 -1.216015
H	 -0.932586	 0.964979	 -2.449855
H	 0.819708	 1.049865	 -2.473332
N	 -0.042516	 0.263377	 0.000000
H	 -0.822211	 -1.197105	 -1.225584
H	 0.921114	 -1.142847	 -1.255206
C	 0.024493	 -0.518541	 1.216015
H	 0.682568	 0.950412	 0.000000
C	 1.194522	 -1.487469	 1.184365
H	 0.145657	 0.166298	 2.048940
H	 -0.900643	 -1.070563	 1.402074
H	 2.127027	 -0.954421	 1.047047
H	 1.251156	 -2.051782	 2.107973
H	 1.090851	 -2.197909	 0.370017

	symmetry c1
}
set optking {
	frozen_dihedral = ("
		12 9 6 3
	")
}

ee,wfn = optimize('scf', return_wfn=True)
oeprop( wfn, 'DIPOLE', 'QUADRUPOLE', 'MULLIKEN_CHARGES')
f=open( 'psi4out.xyz', 'w' )
f.write( "16  " )
f.write( str(ee) + "\n" )
f.write( MOL.save_string_xyz() )
f.close()
--------------------------------------------------------------------------

    Molecular point group: c1
  Charge       = 0
  Multiplicity = 1
  Basis Set: CC-PVTZ
  Basis Set:
  @DF-RHF Final Energy:  -212.38667941267070
    Total Energy =                       -212.3866794126706736
    Molecular point group: c1
  Basis Set: CC-PVTZ
  Basis Set:
  Basis Set: CC-PVTZ
  Basis Set:
  @DF-RHF Final Energy:  -212.38678952525350
    Total Energy =                       -212.3867895252536755
  Basis Set: CC-PVTZ
  Basis Set:
  Basis Set: CC-PVTZ
  Basis Set:
  @DF-RHF Final Energy:  -212.39051335902960
    Total Energy =                       -212.3905133590293417
  Basis Set: CC-PVTZ
  Basis Set:
  Basis Set: CC-PVTZ
  Basis Set:
  @DF-RHF Final Energy:  -212.39098947451899
    Total Energy =                       -212.3909894745189035
  Basis Set: CC-PVTZ
  Basis Set:
  Basis Set: CC-PVTZ
  Basis Set:
  @DF-RHF Final Energy:  -212.39103362778164
    Total Energy =                       -212.3910336277816100
  Basis Set: CC-PVTZ
  Basis Set:
  Basis Set: CC-PVTZ
  Basis Set:
  @DF-RHF Final Energy:  -212.39103645523372
    Total Energy =                       -212.3910364552336318
  Basis Set: CC-PVTZ
  Basis Set:
  Charge       = 0
  Multiplicity = 1
  Basis Set: CC-PVTZ
  Basis Set:

    Orbital Energies (a.u.)
    -----------------------

    Doubly Occupied:

       1A    -15.527828     2A    -11.239768     3A    -11.238230
       4A    -11.206002     5A    -11.204863     6A     -1.204018
       7A     -1.024631     8A     -0.967086     9A     -0.850769
      10A     -0.804348    11A     -0.661279    12A     -0.626949
      13A     -0.609550    14A     -0.576628    15A     -0.547539
      16A     -0.534100    17A     -0.511783    18A     -0.489644
      19A     -0.481033    20A     -0.474216    21A     -0.358035

  @DF-RHF Final Energy:  -212.39103676900280

   => Energetics <=

    Nuclear Repulsion Energy =            191.5954564997462910
    One-Electron Energy =                -665.6963879572168707
    Two-Electron Energy =                 261.7098946884677844
    DFT Exchange-Correlation Energy =       0.0000000000000000
    Empirical Dispersion Energy =           0.0000000000000000
    PCM Polarization Energy =               0.0000000000000000
    EFP Energy =                            0.0000000000000000
    Total Energy =                       -212.3910367690027670
    Molecular point group: c1
  Basis Set: CC-PVTZ
  Basis Set:

  -Total Gradient:
     Atom            X                  Y                   Z
    ------   -----------------  -----------------  -----------------
       1        0.000000810494    -0.000005625416     0.000005820527
       2       -0.000006243278     0.000004104826     0.000005430689
       3        0.002732570901     0.000180416824     0.000043248246
       4       -0.000012142033     0.000016634427    -0.000005621464
       5        0.000001113026     0.000001324677    -0.000001787760
       6       -0.003223956224    -0.000307890157    -0.000092299231
       7       -0.000002881406     0.000004909376     0.000006406572
       8        0.000019370916    -0.000022072908    -0.000005747992
       9       -0.002895343759     0.000459755891     0.000347990989
      10        0.000001907482    -0.000005625418    -0.000005515452
      11        0.000027298170    -0.000004864710    -0.000002807606
      12        0.003352779153    -0.000283332245    -0.000300955247
      13       -0.000002926938    -0.000000833378     0.000003153475
      14        0.000002286459     0.000000863192    -0.000004830748
      15        0.000001394973    -0.000014767442     0.000028612633
      16        0.000003962065    -0.000022997539    -0.000021097628

  **** Optimization is complete! (in 7 steps) ****
    Final optimized geometry and variables:
    Molecular point group: c1

    Geometry (in Angstrom), charge = 0, multiplicity = 1:

    H           -0.363861158270     0.219457744298    -3.138490159089
    C           -0.387650111422     0.788597633518    -2.216031617971
    C           -0.178463210256    -0.120076670662    -1.015468144688
    H           -1.339700750258     1.299391129205    -2.146790993186
    H            0.392570617855     1.541423623626    -2.273228828866
    N           -0.229489928180     0.639167265784     0.217030813889
    H           -0.969834369348    -0.863068657932    -0.984634844305
    H            0.755574907315    -0.667498627016    -1.140908573853
    C           -0.189015056005    -0.118024516756     1.454941517918
    H            0.496922457335     1.323699135112     0.217051374610
    C            0.910794603667    -1.173536099240     1.584102182622
    H           -0.055187325730     0.597853404383     2.257649998999
    H           -1.155440705808    -0.589239661322     1.603207384836
    H            1.892502841077    -0.736142913958     1.430096965020
    H            0.891898881270    -1.606392442597     2.578555483567
    H            0.789676965124    -1.981870191580     0.873531405855

  Mulliken Charges: (a.u.)
   Center  Symbol    Alpha    Beta     Spin     Total
       1     H     0.45526  0.45526  0.00000  0.08948
       2     C     3.14091  3.14091  0.00000 -0.28183
       3     C     3.02460  3.02460  0.00000 -0.04920
       4     H     0.44953  0.44953  0.00000  0.10094
       5     H     0.45947  0.45947  0.00000  0.08106
       6     N     3.63888  3.63888  0.00000 -0.27776
       7     H     0.45830  0.45830  0.00000  0.08341
       8     H     0.46951  0.46951  0.00000  0.06098
       9     C     3.04253  3.04253  0.00000 -0.08505
      10     H     0.44439  0.44439  0.00000  0.11121
      11     C     3.15179  3.15179  0.00000 -0.30358
      12     H     0.45239  0.45239  0.00000  0.09523
      13     H     0.45358  0.45358  0.00000  0.09284
      14     H     0.45740  0.45740  0.00000  0.08521
      15     H     0.44870  0.44870  0.00000  0.10259
      16     H     0.45277  0.45277  0.00000  0.09446

   Total alpha = 21.00000, Total beta = 21.00000, Total charge = -0.00000

*** Psi4 exiting successfully. Buy a developer a beer!
