  ==> Input File <==

--------------------------------------------------------------------------
set {
	reference rhf
	basis 6-31G*
}

set_num_threads( 1 )
memory 2 gb

molecule MOL {
0 1

O	 3.225979	 0.970355	 -0.599647
C	 2.701189	 0.057885	 -0.047330
C	 1.245376	 -0.013843	 0.345420
O	 3.347903	 -1.046386	 0.304773
C	 0.455112	 1.231400	 -0.050772
H	 0.838542	 -0.913825	 -0.103701
H	 1.208210	 -0.175333	 1.419774
C	 -0.998893	 1.219485	 0.433193
H	 0.482531	 1.345121	 -1.130325
H	 0.957290	 2.103070	 0.354729
C	 -1.883438	 0.145884	 -0.207175
H	 -1.431207	 2.195402	 0.224832
H	 -1.019646	 1.105716	 1.516076
C	 -1.662024	 -1.243644	 0.393814
H	 -2.928946	 0.426385	 -0.088635
H	 -1.699375	 0.098559	 -1.278088
C	 -2.536920	 -2.325482	 -0.242043
H	 -1.857331	 -1.207918	 1.464241
H	 -0.614450	 -1.520210	 0.285187
C	 -2.312480	 -3.709379	 0.366362
H	 -3.584042	 -2.050204	 -0.135274
H	 -2.339953	 -2.365685	 -1.311327
H	 -2.946358	 -4.454201	 -0.104856
H	 -2.534914	 -3.710885	 1.429713
H	 -1.281087	 -4.028432	 0.245094
C	 4.728119	 -1.109107	 -0.004993
H	 4.882018	 -1.033965	 -1.071845
H	 5.068212	 -2.067527	 0.355250
H	 5.265056	 -0.311663	 0.488280

	symmetry c1
}
set optking {
	frozen_dihedral = ("
		21 17 14 11,
		17 14 11 15,
		6 3 5 9,
		11 8 5 9,
		2 4 26 27,
		1 2 4 26,
		6 3 2 1
	")
}

ee = energy('scf')
oeprop('DIPOLE', 'QUADRUPOLE', 'MULLIKEN_CHARGES')
f=open( 'psi4out.xyz', 'w' )
f.write( "29  " )
f.write( str(ee) + "\n" )
f.write( MOL.save_string_xyz() )
f.close()
--------------------------------------------------------------------------

    Molecular point group: c1

    Geometry (in Angstrom), charge = 0, multiplicity = 1:

       Center              X                  Y                   Z               Mass
    ------------   -----------------  -----------------  -----------------  -----------------
           O          2.603594663110     1.519729370403    -0.660991059185    15.994914619560
           C          2.078804663110     0.607259370403    -0.108674059185    12.000000000000
           C          0.622991663110     0.535531370403     0.284075940815    12.000000000000
           O          2.725518663110    -0.497011629597     0.243428940815    15.994914619560
           C         -0.167272336890     1.780774370403    -0.112116059185    12.000000000000
           H          0.216157663110    -0.364450629597    -0.165045059185     1.007825032070
           H          0.585825663110     0.374041370403     1.358429940815     1.007825032070
           C         -1.621277336890     1.768859370403     0.371848940815    12.000000000000
           H         -0.139853336890     1.894495370403    -1.191669059185     1.007825032070
           H          0.334905663110     2.652444370403     0.293384940815     1.007825032070
           C         -2.505822336890     0.695258370403    -0.268519059185    12.000000000000
           H         -2.053591336890     2.744776370403     0.163487940815     1.007825032070
           H         -1.642030336890     1.655090370403     1.454731940815     1.007825032070
           C         -2.284408336890    -0.694269629597     0.332469940815    12.000000000000
           H         -3.551330336890     0.975759370403    -0.149979059185     1.007825032070
           H         -2.321759336890     0.647933370403    -1.339432059185     1.007825032070
           C         -3.159304336890    -1.776107629597    -0.303387059185    12.000000000000
           H         -2.479715336890    -0.658543629597     1.402896940815     1.007825032070
           H         -1.236834336890    -0.970835629597     0.223842940815     1.007825032070
           C         -2.934864336890    -3.160004629597     0.305017940815    12.000000000000
           H         -4.206426336890    -1.500829629597    -0.196618059185     1.007825032070
           H         -2.962337336890    -1.816310629597    -1.372671059185     1.007825032070
           H         -3.568742336890    -3.904826629597    -0.166200059185     1.007825032070
           H         -3.157298336890    -3.161510629597     1.368368940815     1.007825032070
           H         -1.903471336890    -3.479057629597     0.183749940815     1.007825032070
           C          4.105734663110    -0.559732629597    -0.066337059185    12.000000000000
           H          4.259633663110    -0.484590629597    -1.133189059185     1.007825032070
           H          4.445827663110    -1.518152629597     0.293905940815     1.007825032070
           H          4.642671663110     0.237711370403     0.426935940815     1.007825032070

  Charge       = 0
  Multiplicity = 1
  Basis Set: 6-31G*
  Basis Set:

    Orbital Energies (a.u.)
    -----------------------

    Doubly Occupied:

       1A    -20.603341     2A    -20.544742     3A    -11.371213
       4A    -11.280686     5A    -11.233489     6A    -11.219344
       7A    -11.217492     8A    -11.215863     9A    -11.215736
      10A    -11.212986    11A    -11.209583    12A     -1.468895
      13A     -1.362248    14A     -1.101814    15A     -1.063939
      16A     -1.019942    17A     -0.976073    18A     -0.933563
      19A     -0.862022    20A     -0.804169    21A     -0.785852
      22A     -0.764828    23A     -0.702699    24A     -0.683555
      25A     -0.671521    26A     -0.654075    27A     -0.624809
      28A     -0.608306    29A     -0.594828    30A     -0.574100
      31A     -0.567860    32A     -0.561604    33A     -0.535548
      34A     -0.527283    35A     -0.523111    36A     -0.503091
      37A     -0.497414    38A     -0.481108    39A     -0.471545
      40A     -0.464329    41A     -0.457789    42A     -0.455540
      43A     -0.437430    44A     -0.429281

  @DF-RHF Final Energy:  -501.03256867785410

   => Energetics <=

    Nuclear Repulsion Energy =            634.2526182219954762
    One-Electron Energy =               -1939.5813141217465727
    Two-Electron Energy =                 804.2961272218950626
    DFT Exchange-Correlation Energy =       0.0000000000000000
    Empirical Dispersion Energy =           0.0000000000000000
    PCM Polarization Energy =               0.0000000000000000
    EFP Energy =                            0.0000000000000000
    Total Energy =                       -501.0325686778559202

  Mulliken Charges: (a.u.)
   Center  Symbol    Alpha    Beta     Spin     Total
       1     O     4.28661  4.28661  0.00000 -0.57323
       2     C     2.60161  2.60161  0.00000  0.79678
       3     C     3.21491  3.21491  0.00000 -0.42981
       4     O     4.30761  4.30761  0.00000 -0.61523
       5     C     3.15168  3.15168  0.00000 -0.30336
       6     H     0.39765  0.39765  0.00000  0.20470
       7     H     0.40054  0.40054  0.00000  0.19892
       8     C     3.15992  3.15992  0.00000 -0.31985
       9     H     0.41309  0.41309  0.00000  0.17383
      10     H     0.40854  0.40854  0.00000  0.18292
      11     C     3.15538  3.15538  0.00000 -0.31077
      12     H     0.41653  0.41653  0.00000  0.16694
      13     H     0.42332  0.42332  0.00000  0.15337
      14     C     3.15323  3.15323  0.00000 -0.30647
      15     H     0.41951  0.41951  0.00000  0.16098
      16     H     0.42246  0.42246  0.00000  0.15509
      17     C     3.15044  3.15044  0.00000 -0.30088
      18     H     0.42368  0.42368  0.00000  0.15265
      19     H     0.42544  0.42544  0.00000  0.14911
      20     C     3.23931  3.23931  0.00000 -0.47863
      21     H     0.42279  0.42279  0.00000  0.15441
      22     H     0.42365  0.42365  0.00000  0.15270
      23     H     0.41907  0.41907  0.00000  0.16186
      24     H     0.42171  0.42171  0.00000  0.15658
      25     H     0.42210  0.42210  0.00000  0.15579
      26     C     3.09243  3.09243  0.00000 -0.18486
      27     H     0.40914  0.40914  0.00000  0.18172
      28     H     0.40855  0.40855  0.00000  0.18289
      29     H     0.40908  0.40908  0.00000  0.18185

   Total alpha = 44.00000, Total beta = 44.00000, Total charge = -0.00000
