  ==> Input File <==

--------------------------------------------------------------------------
set {
	reference rhf
	basis cc-pvtz
}

set_num_threads( 4 )
memory 2 gb

molecule MOL {
0 1

H	 -2.266619	 1.169943	 0.000098
O	 -1.438073	 1.611259	 0.000041
C	 -0.408657	 0.734701	 0.000005
C	 -0.720646	 -0.595027	 0.214239
C	 0.906255	 1.136391	 -0.204360
H	 -1.747073	 -0.864796	 0.367872
C	 0.279750	 -1.543714	 0.227189
C	 1.890896	 0.161877	 -0.186140
C	 1.245074	 2.587874	 -0.438027
H	 0.030033	 -2.574130	 0.394115
C	 1.594370	 -1.169602	 0.026577
H	 2.912127	 0.456181	 -0.342479
H	 0.953059	 3.210433	 0.403085
H	 2.309193	 2.713835	 -0.576682
H	 0.755273	 2.978288	 -1.325718
H	 2.377810	 -1.902073	 0.035318

	symmetry c1
}
set optking {
	frozen_dihedral = ("
		4 3 2 1
	")
}

ee = optimize('scf')
oeprop('DIPOLE', 'QUADRUPOLE', 'MULLIKEN_CHARGES')
f=open( 'psi4out.xyz', 'w' )
f.write( "16  " )
f.write( str(ee) + "\n" )
f.write( MOL.save_string_xyz() )
f.close()
--------------------------------------------------------------------------

    Molecular point group: c1
  Charge       = 0
  Multiplicity = 1
  Basis Set: CC-PVTZ
  Basis Set:
  @DF-RHF Final Energy:  -344.71785081332547
    Total Energy =                       -344.7178508133250716
    Molecular point group: c1
  Basis Set: CC-PVTZ
  Basis Set:
  Basis Set: CC-PVTZ
  Basis Set:
  @DF-RHF Final Energy:  -344.72003704703798
    Total Energy =                       -344.7200370470380903
  Basis Set: CC-PVTZ
  Basis Set:
  Basis Set: CC-PVTZ
  Basis Set:
  @DF-RHF Final Energy:  -344.72024829450294
    Total Energy =                       -344.7202482945033353
  Basis Set: CC-PVTZ
  Basis Set:
  Basis Set: CC-PVTZ
  Basis Set:
  @DF-RHF Final Energy:  -344.72026759932351
    Total Energy =                       -344.7202675993239609
  Basis Set: CC-PVTZ
  Basis Set:
  Basis Set: CC-PVTZ
  Basis Set:
  @DF-RHF Final Energy:  -344.72027250712347
    Total Energy =                       -344.7202725071235250
  Basis Set: CC-PVTZ
  Basis Set:
  Charge       = 0
  Multiplicity = 1
  Basis Set: CC-PVTZ
  Basis Set:

    Orbital Energies (a.u.)
    -----------------------

    Doubly Occupied:

       1A    -20.583080     2A    -11.291469     3A    -11.228934
       4A    -11.228761     5A    -11.225935     6A    -11.223628
       7A    -11.216783     8A    -11.212869     9A     -1.413174
      10A     -1.152869    11A     -1.047521    12A     -1.006252
      13A     -0.932006    14A     -0.848759    15A     -0.802498
      16A     -0.735812    17A     -0.675802    18A     -0.653725
      19A     -0.607516    20A     -0.601312    21A     -0.580658
      22A     -0.561078    23A     -0.551861    24A     -0.541861
      25A     -0.502352    26A     -0.483672    27A     -0.478117
      28A     -0.333825    29A     -0.308621

  @DF-RHF Final Energy:  -344.72027258601088

   => Energetics <=

    Nuclear Repulsion Energy =            351.0201335165500041
    One-Electron Energy =               -1163.4193143674137900
    Two-Electron Energy =                 467.6789082648529075
    DFT Exchange-Correlation Energy =       0.0000000000000000
    Empirical Dispersion Energy =           0.0000000000000000
    PCM Polarization Energy =               0.0000000000000000
    EFP Energy =                            0.0000000000000000
    Total Energy =                       -344.7202725860108785
    Molecular point group: c1
  Basis Set: CC-PVTZ
  Basis Set:

  -Total Gradient:
     Atom            X                  Y                   Z
    ------   -----------------  -----------------  -----------------
       1        0.000007737643    -0.000013810248    -0.000956253201
       2        0.000029469844     0.000081360584     0.001538041078
       3       -0.000110781515    -0.000175376056    -0.001232535493
       4        0.000068659014     0.000106310568     0.000689322854
       5       -0.000007653654    -0.000001804474    -0.000027813793
       6        0.000000639234    -0.000001952944    -0.000002469120
       7       -0.000010401632    -0.000010906706    -0.000005920952
       8       -0.000000148636    -0.000007152199    -0.000011469920
       9        0.000012808309     0.000004489844     0.000003900942
      10        0.000005363738     0.000001219797    -0.000000746480
      11        0.000013049996     0.000021916091     0.000003321746
      12        0.000000544839     0.000005044588     0.000002730245
      13       -0.000001808100    -0.000002249736    -0.000001180264
      14       -0.000002327677     0.000000336143    -0.000000226187
      15       -0.000001587705    -0.000001392270     0.000000264073
      16       -0.000003563701    -0.000006032985     0.000001034475

  **** Optimization is complete! (in 6 steps) ****
    Final optimized geometry and variables:
    Molecular point group: c1

    Geometry (in Angstrom), charge = 0, multiplicity = 1:

    H           -2.600438583017     0.859173371534     0.039077142756
    O           -1.742258247694     1.242219071294     0.035315864024
    C           -0.787745162599     0.283041569591     0.046807270973
    C           -1.093587623931    -1.044406389075     0.265243710186
    C            0.527731721075     0.693403233509    -0.153428883690
    H           -2.115790337957    -1.336896550607     0.425782662919
    C           -0.087297314513    -1.994390978538     0.278834917563
    C            1.511760215259    -0.275026747732    -0.130748907608
    C            0.842237276823     2.148069021465    -0.383889526085
    H           -0.334277366967    -3.025196151777     0.446917040220
    C            1.220351610796    -1.613249683922     0.081293564121
    H            2.532418757529     0.022479905214    -0.284223902863
    H            0.528124449297     2.754228863537     0.457399930098
    H            1.904862252456     2.289496227492    -0.527973585655
    H            0.325230346444     2.525671012947    -1.257846712262
    H            2.008140935974    -2.341101985069     0.091416423111

  Mulliken Charges: (a.u.)
   Center  Symbol    Alpha    Beta     Spin     Total
       1     H     0.38987  0.38987  0.00000  0.22026
       2     O     4.17160  4.17160  0.00000 -0.34321
       3     C     2.86321  2.86321  0.00000  0.27358
       4     C     3.13292  3.13292  0.00000 -0.26584
       5     C     2.99657  2.99657  0.00000  0.00685
       6     H     0.43683  0.43683  0.00000  0.12635
       7     C     3.07198  3.07198  0.00000 -0.14395
       8     C     3.08212  3.08212  0.00000 -0.16424
       9     C     3.14391  3.14391  0.00000 -0.28782
      10     H     0.42262  0.42262  0.00000  0.15476
      11     C     3.09099  3.09099  0.00000 -0.18198
      12     H     0.42519  0.42519  0.00000  0.14962
      13     H     0.44624  0.44624  0.00000  0.10752
      14     H     0.45416  0.45416  0.00000  0.09168
      15     H     0.44686  0.44686  0.00000  0.10628
      16     H     0.42493  0.42493  0.00000  0.15014

   Total alpha = 29.00000, Total beta = 29.00000, Total charge =  0.00000
