  ==> Input File <==

--------------------------------------------------------------------------
set {
	reference rhf
	basis 6-31G*
}

set_num_threads( 1 )
memory 2 gb

molecule MOL {
0 1

H	 -3.161837	 0.500524	 -0.000234
C	 -2.367097	 -0.232926	 -0.000000
O	 -1.158440	 0.455814	 -0.000122
H	 -2.468853	 -0.861886	 -0.882833
H	 -2.468942	 -0.861421	 0.883154
C	 -0.029776	 -0.365156	 0.000148
C	 1.166350	 0.445770	 -0.467125
H	 -0.187680	 -1.220631	 -0.657977
H	 0.147742	 -0.758935	 1.001813
C	 2.453691	 -0.376805	 -0.498817
H	 0.949608	 0.841050	 -1.454768
H	 1.282769	 1.299497	 0.193402
H	 2.366494	 -1.223694	 -1.173798
H	 3.290360	 0.226280	 -0.835148
H	 2.701713	 -0.762656	 0.486073

	symmetry c1
}
set optking {
	frozen_dihedral = ("
		6 3 2 4,
		11 7 6 8
	")
}

ee = energy('scf')
oeprop('DIPOLE', 'QUADRUPOLE', 'MULLIKEN_CHARGES')
f=open( 'psi4out.xyz', 'w' )
f.write( "15  " )
f.write( str(ee) + "\n" )
f.write( MOL.save_string_xyz() )
f.close()
--------------------------------------------------------------------------

    Molecular point group: c1

    Geometry (in Angstrom), charge = 0, multiplicity = 1:

       Center              X                  Y                   Z               Mass
    ------------   -----------------  -----------------  -----------------  -----------------
           H         -3.143198984292     0.526210106811     0.189455355678     1.007825032070
           C         -2.348458984292    -0.207239893189     0.189689355678    12.000000000000
           O         -1.139801984292     0.481500106811     0.189567355678    15.994914619560
           H         -2.450214984292    -0.836199893189    -0.693143644322     1.007825032070
           H         -2.450303984292    -0.835734893189     1.072843355678     1.007825032070
           C         -0.011137984292    -0.339469893189     0.189837355678    12.000000000000
           C          1.184988015708     0.471456106811    -0.277435644322    12.000000000000
           H         -0.169041984292    -1.194944893189    -0.468287644322     1.007825032070
           H          0.166380015708    -0.733248893189     1.191502355678     1.007825032070
           C          2.472329015708    -0.351118893189    -0.309127644322    12.000000000000
           H          0.968246015708     0.866736106811    -1.265078644322     1.007825032070
           H          1.301407015708     1.325183106811     0.383091355678     1.007825032070
           H          2.385132015708    -1.198007893189    -0.984108644322     1.007825032070
           H          3.308998015708     0.251966106811    -0.645458644322     1.007825032070
           H          2.720351015708    -0.736969893189     0.675762355678     1.007825032070

  Charge       = 0
  Multiplicity = 1
  Basis Set: 6-31G*
  Basis Set:

    Orbital Energies (a.u.)
    -----------------------

    Doubly Occupied:

       1A    -20.552966     2A    -11.266065     3A    -11.264232
       4A    -11.213996     5A    -11.212761     6A     -1.378276
       7A     -1.057068     8A     -0.955348     9A     -0.877589
      10A     -0.809055    11A     -0.674483    12A     -0.653759
      13A     -0.631135    14A     -0.606633    15A     -0.566031
      16A     -0.540617    17A     -0.502790    18A     -0.489414
      19A     -0.478706    20A     -0.462288    21A     -0.412011

  @DF-RHF Final Energy:  -232.13853674273346

   => Energetics <=

    Nuclear Repulsion Energy =            189.8459312959337524
    One-Electron Energy =                -690.7585009801819069
    Two-Electron Energy =                 268.7740329415142355
    DFT Exchange-Correlation Energy =       0.0000000000000000
    Empirical Dispersion Energy =           0.0000000000000000
    PCM Polarization Energy =               0.0000000000000000
    EFP Energy =                            0.0000000000000000
    Total Energy =                       -232.1385367427339474

  Mulliken Charges: (a.u.)
   Center  Symbol    Alpha    Beta     Spin     Total
       1     H     0.41244  0.41244  0.00000  0.17512
       2     C     3.07977  3.07977  0.00000 -0.15955
       3     O     4.30575  4.30575  0.00000 -0.61150
       4     H     0.42989  0.42989  0.00000  0.14023
       5     H     0.43058  0.43058  0.00000  0.13883
       6     C     2.98191  2.98191  0.00000  0.03618
       7     C     3.15924  3.15924  0.00000 -0.31849
       8     H     0.43425  0.43425  0.00000  0.13149
       9     H     0.43133  0.43133  0.00000  0.13733
      10     C     3.24812  3.24812  0.00000 -0.49625
      11     H     0.41549  0.41549  0.00000  0.16901
      12     H     0.41389  0.41389  0.00000  0.17222
      13     H     0.42119  0.42119  0.00000  0.15761
      14     H     0.41549  0.41549  0.00000  0.16903
      15     H     0.42064  0.42064  0.00000  0.15872

   Total alpha = 21.00000, Total beta = 21.00000, Total charge =  0.00000
