                              Psi4 1.0.54 Driver

  ==> Input File <==

--------------------------------------------------------------------------
set {
	reference rhf
	basis cc-pvtz
}

set_num_threads( 4 )
memory 2 gb

molecule MOL {
0 1

O	 -1.278239	 1.034789	 -0.784693
C	 -1.204115	 0.062668	 -0.112312
C	 -2.386398	 -0.667698	 0.460323
O	 -0.068058	 -0.518372	 0.226882
H	 -2.382952	 -1.693172	 0.114333
H	 -3.296656	 -0.175702	 0.158400
H	 -2.312537	 -0.685191	 1.540100
C	 0.588315	 -1.378193	 -0.710500
C	 1.403509	 -2.357101	 0.110664
C	 1.434827	 -0.552478	 -1.662455
H	 -0.172518	 -1.904344	 -1.266725
H	 0.764987	 -2.920792	 0.778714
H	 1.915274	 -3.053444	 -0.542723
H	 2.144922	 -1.836114	 0.704646
H	 1.942181	 -1.202971	 -2.365271
H	 0.819771	 0.136885	 -2.223823
H	 2.183432	 0.009247	 -1.115335

	symmetry c1
}
set optking {
	frozen_dihedral = ("
		8 4 2 1
	")
}

ee,wfn = optimize('scf', return_wfn=True)
oeprop( wfn, 'DIPOLE', 'QUADRUPOLE', 'MULLIKEN_CHARGES')
f=open( 'psi4out.xyz', 'w' )
f.write( "17  " )
f.write( str(ee) + "\n" )
f.write( MOL.save_string_xyz() )
f.close()
--------------------------------------------------------------------------

    Molecular point group: c1
  Charge       = 0
  Multiplicity = 1
  Basis Set: CC-PVTZ
  Basis Set:
  @DF-RHF Final Energy:  -345.02425366328004
    Total Energy =                       -345.0242536632799215
    Molecular point group: c1
  Basis Set: CC-PVTZ
  Basis Set:
  Basis Set: CC-PVTZ
  Basis Set:
  @DF-RHF Final Energy:  -344.97587021389671
    Total Energy =                       -344.9758702138965418
  Basis Set: CC-PVTZ
  Basis Set:
  Basis Set: CC-PVTZ
  Basis Set:
  @DF-RHF Final Energy:  -344.97367005863896
    Total Energy =                       -344.9736700586387883
  Basis Set: CC-PVTZ
  Basis Set:
  Basis Set: CC-PVTZ
  Basis Set:
  @DF-RHF Final Energy:  -344.97715385777479
    Total Energy =                       -344.9771538577745673
  Basis Set: CC-PVTZ
  Basis Set:
  @DF-RHF Final Energy:  -344.99764007652198
    Total Energy =                       -344.9976400765222024
  @DF-RHF Final Energy:  -345.02349324140363
    Total Energy =                       -345.0234932414039122
  @DF-RHF Final Energy:  -345.02387930415426
    Total Energy =                       -345.0238793041543204
  @DF-RHF Final Energy:  -345.02516031587220
    Total Energy =                       -345.0251603158725402
  Basis Set: CC-PVTZ
  Basis Set:
  @DF-RHF Final Energy:  -345.02551100984948
    Total Energy =                       -345.0255110098494811
  Basis Set: CC-PVTZ
  Basis Set:
  Basis Set: CC-PVTZ
  Basis Set:
  @DF-RHF Final Energy:  -345.02553724979498
    Total Energy =                       -345.0255372497950930
  Basis Set: CC-PVTZ
  Basis Set:
  Basis Set: CC-PVTZ
  Basis Set:
  @DF-RHF Final Energy:  -345.02553965847648
    Total Energy =                       -345.0255396584765322
  Basis Set: CC-PVTZ
  Basis Set:
  Charge       = 0
  Multiplicity = 1
  Basis Set: CC-PVTZ
  Basis Set:

    Orbital Energies (a.u.)
    -----------------------

    Doubly Occupied:

       1A    -20.572661     2A    -20.543499     3A    -11.369393
       4A    -11.298854     5A    -11.234433     6A    -11.220372
       7A    -11.211914     8A     -1.459134     9A     -1.367397
      10A     -1.074553    11A     -1.010218    12A     -0.949140
      13A     -0.845732    14A     -0.771842    15A     -0.694703
      16A     -0.677214    17A     -0.653323    18A     -0.614372
      19A     -0.592900    20A     -0.587341    21A     -0.556879
      22A     -0.550660    23A     -0.549281    24A     -0.517171
      25A     -0.504403    26A     -0.486170    27A     -0.447914
      28A     -0.437520

  @DF-RHF Final Energy:  -345.02554026726250

   => Energetics <=

    Nuclear Repulsion Energy =            322.7725221032361560
    One-Electron Energy =               -1109.9981432295166996
    Two-Electron Energy =                 442.2000808590180441
    DFT Exchange-Correlation Energy =       0.0000000000000000
    Empirical Dispersion Energy =           0.0000000000000000
    PCM Polarization Energy =               0.0000000000000000
    EFP Energy =                            0.0000000000000000
    Total Energy =                       -345.0255402672624996
    Molecular point group: c1
  Basis Set: CC-PVTZ
  Basis Set:

  -Total Gradient:
     Atom            X                  Y                   Z
    ------   -----------------  -----------------  -----------------
       1       -0.001247261350     0.003876873759     0.000181971523
       2        0.001583702770    -0.006214339009     0.001233990875
       3       -0.000042884105     0.000070627927     0.000013037819
       4        0.000303236506     0.003255659766    -0.004428772909
       5       -0.000006486746    -0.000007965019    -0.000004636447
       6        0.000018403735    -0.000012629702     0.000002583614
       7        0.000014416835    -0.000021885590     0.000016896660
       8       -0.000636634286    -0.000945951005     0.003001074396
       9       -0.000027793376    -0.000005514693    -0.000011474857
      10        0.000033162896    -0.000010898135    -0.000003835939
      11        0.000014613302     0.000002185198     0.000003585209
      12        0.000005679120     0.000001154245    -0.000005204851
      13       -0.000009968364     0.000009370361    -0.000007889555
      14       -0.000003074486    -0.000010531191     0.000001249556
      15       -0.000001576726     0.000012972730    -0.000007910145
      16       -0.000005216647     0.000001457370     0.000018451414
      17        0.000007680916    -0.000000587014    -0.000003116367

  **** Optimization is complete! (in 12 steps) ****
    Final optimized geometry and variables:
    Molecular point group: c1

    Geometry (in Angstrom), charge = 0, multiplicity = 1:

    O           -1.548849845670     0.139521509380    -1.263516298310
    C           -1.212702738677     0.183970107001    -0.135721500529
    C           -2.122193493168    -0.090272769311     1.028912148491
    O            0.020566357781     0.566945537483     0.239024337304
    H           -1.706014485621    -0.882478079982     1.640114798649
    H           -3.104209944344    -0.367254932413     0.680885113537
    H           -2.179313958877     0.797241019865     1.646544736069
    C            1.082176395259    -0.389137362279     0.148497194536
    C            2.081780885872    -0.028020709527     1.228254675773
    C            1.687051617985    -0.384721372131    -1.244347637835
    H            0.670492456666    -1.372501324610     0.357935778574
    H            1.619276500424    -0.058879393491     2.206274096720
    H            2.913445540872    -0.722291041065     1.216487866150
    H            2.465336089471     0.971393462081     1.063285001980
    H            2.481663090884    -1.120055490048    -1.305732889982
    H            0.940787910289    -0.616196314429    -1.990331297470
    H            2.101411006661     0.591080405794    -1.467614867802

  Mulliken Charges: (a.u.)
   Center  Symbol    Alpha    Beta     Spin     Total
       1     O     4.17512  4.17512  0.00000 -0.35024
       2     C     2.81108  2.81108  0.00000  0.37784
       3     C     3.13787  3.13787  0.00000 -0.27575
       4     O     4.18114  4.18114  0.00000 -0.36229
       5     H     0.45098  0.45098  0.00000  0.09804
       6     H     0.43687  0.43687  0.00000  0.12626
       7     H     0.44281  0.44281  0.00000  0.11438
       8     C     2.93096  2.93096  0.00000  0.13808
       9     C     3.13694  3.13694  0.00000 -0.27388
      10     C     3.14042  3.14042  0.00000 -0.28085
      11     H     0.46035  0.46035  0.00000  0.07931
      12     H     0.44785  0.44785  0.00000  0.10430
      13     H     0.45440  0.45440  0.00000  0.09119
      14     H     0.44884  0.44884  0.00000  0.10232
      15     H     0.45360  0.45360  0.00000  0.09279
      16     H     0.43825  0.43825  0.00000  0.12350
      17     H     0.45250  0.45250  0.00000  0.09501

   Total alpha = 28.00000, Total beta = 28.00000, Total charge =  0.00000

*** Psi4 exiting successfully. Buy a developer a beer!
