                              Psi4 1.0.54 Driver

  ==> Input File <==

--------------------------------------------------------------------------
set {
	reference rhf
	basis cc-pvtz
}

set_num_threads( 4 )
memory 2 gb

molecule MOL {
0 1

O	 0.749630	 1.305591	 -0.000460
C	 0.576499	 0.134701	 -0.003900
C	 -0.765656	 -0.550508	 -0.002152
O	 1.564816	 -0.744612	 -0.000631
C	 -1.945526	 0.411052	 0.000603
H	 -0.794329	 -1.203792	 -0.868145
H	 -0.791555	 -1.205429	 0.862701
C	 -3.282915	 -0.321280	 0.002596
H	 -1.880300	 1.059126	 -0.864925
H	 -1.877207	 1.057892	 0.866807
H	 -3.388495	 -0.952755	 -0.873419
H	 -4.107811	 0.380864	 0.004116
H	 -3.385717	 -0.953283	 0.878571
C	 2.188116	 -1.015736	 1.238723
H	 2.627548	 -0.118525	 1.648559
H	 2.954429	 -1.745064	 1.032483
H	 1.474836	 -1.413573	 1.945122

	symmetry c1
}
set optking {
	frozen_dihedral = ("
		14 4 2 1
	")
}

ee,wfn = optimize('scf', return_wfn=True)
oeprop( wfn, 'DIPOLE', 'QUADRUPOLE', 'MULLIKEN_CHARGES')
f=open( 'psi4out.xyz', 'w' )
f.write( "17  " )
f.write( str(ee) + "\n" )
f.write( MOL.save_string_xyz() )
f.close()
--------------------------------------------------------------------------

    Molecular point group: c1
  Charge       = 0
  Multiplicity = 1
  Basis Set: CC-PVTZ
  Basis Set:
  @DF-RHF Final Energy:  -345.01600249500785
    Total Energy =                       -345.0160024950079674
    Molecular point group: c1
  Basis Set: CC-PVTZ
  Basis Set:
  Basis Set: CC-PVTZ
  Basis Set:
  @DF-RHF Final Energy:  -344.93910890904283
    Total Energy =                       -344.9391089090426021
  Basis Set: CC-PVTZ
  Basis Set:
  Basis Set: CC-PVTZ
  Basis Set:
  @DF-RHF Final Energy:  -345.00740067413136
    Total Energy =                       -345.0074006741314747
  Basis Set: CC-PVTZ
  Basis Set:
  Basis Set: CC-PVTZ
  Basis Set:
  @DF-RHF Final Energy:  -345.01630444991406
    Total Energy =                       -345.0163044499138323
  Basis Set: CC-PVTZ
  Basis Set:
  @DF-RHF Final Energy:  -345.00967537793463
    Total Energy =                       -345.0096753779348546
  @DF-RHF Final Energy:  -345.01627533803560
    Total Energy =                       -345.0162753380360527
  Basis Set: CC-PVTZ
  Basis Set:
  @DF-RHF Final Energy:  -345.01736440872969
    Total Energy =                       -345.0173644087298044
  Basis Set: CC-PVTZ
  Basis Set:
  Basis Set: CC-PVTZ
  Basis Set:
  @DF-RHF Final Energy:  -345.01738286180171
    Total Energy =                       -345.0173828618017069
  Basis Set: CC-PVTZ
  Basis Set:
  Basis Set: CC-PVTZ
  Basis Set:
  @DF-RHF Final Energy:  -345.01738491020410
    Total Energy =                       -345.0173849102041004
  Basis Set: CC-PVTZ
  Basis Set:
  Charge       = 0
  Multiplicity = 1
  Basis Set: CC-PVTZ
  Basis Set:

    Orbital Energies (a.u.)
    -----------------------

    Doubly Occupied:

       1A    -20.578476     2A    -20.545962     3A    -11.368082
       4A    -11.287887     5A    -11.238281     6A    -11.222887
       7A    -11.215195     8A     -1.462400     9A     -1.369725
      10A     -1.082685    11A     -0.993410    12A     -0.950222
      13A     -0.834366    14A     -0.766669    15A     -0.701490
      16A     -0.681673    17A     -0.675445    18A     -0.634550
      19A     -0.618285    20A     -0.579566    21A     -0.566343
      22A     -0.538594    23A     -0.520353    24A     -0.499373
      25A     -0.492948    26A     -0.482200    27A     -0.456636
      28A     -0.438456

  @DF-RHF Final Energy:  -345.01738502008737

   => Energetics <=

    Nuclear Repulsion Energy =            312.7587678955785009
    One-Electron Energy =               -1089.9479862453622445
    Two-Electron Energy =                 432.1718333296963692
    DFT Exchange-Correlation Energy =       0.0000000000000000
    Empirical Dispersion Energy =           0.0000000000000000
    PCM Polarization Energy =               0.0000000000000000
    EFP Energy =                            0.0000000000000000
    Total Energy =                       -345.0173850200873176
    Molecular point group: c1
  Basis Set: CC-PVTZ
  Basis Set:

  -Total Gradient:
     Atom            X                  Y                   Z
    ------   -----------------  -----------------  -----------------
       1        0.000780870198     0.000430211070    -0.004928702814
       2       -0.002219462165    -0.002102764409     0.007305843430
       3        0.000019792738     0.000042330636    -0.000058524248
       4        0.003627029059     0.004910009445    -0.002509620798
       5       -0.000003292222    -0.000039191715     0.000018667316
       6        0.000014097131    -0.000016480153    -0.000004673721
       7       -0.000022350236     0.000017366616     0.000014967703
       8       -0.000000652399     0.000021681579     0.000003070924
       9       -0.000000014336    -0.000000502177    -0.000000196237
      10       -0.000004800993     0.000012004229     0.000010888162
      11        0.000001627672    -0.000009674367    -0.000007217994
      12        0.000008041573    -0.000002117860    -0.000002903332
      13        0.000004306612     0.000003086282     0.000000089824
      14       -0.002217876081    -0.003272261927     0.000169141846
      15        0.000002928297    -0.000004691876    -0.000006564283
      16        0.000000991011     0.000004345204     0.000012288405
      17        0.000008764141     0.000006649424    -0.000016554184

  **** Optimization is complete! (in 10 steps) ****
    Final optimized geometry and variables:
    Molecular point group: c1

    Geometry (in Angstrom), charge = 0, multiplicity = 1:

    O            0.684694392840     1.499133026982     0.083925937163
    C            0.648860913205     0.325827881166     0.004334749175
    C           -0.571340791063    -0.483197604981    -0.347724904728
    O            1.757826651717    -0.431512992433     0.143136667747
    C           -1.833314289815     0.342122636420    -0.551900208450
    H           -0.320517227283    -1.049906303438    -1.239240218764
    H           -0.709158938282    -1.223206367132     0.436127453159
    C           -3.035456580984    -0.522361281960    -0.915752649105
    H           -1.656036088212     1.075205009935    -1.329347797998
    H           -2.042582016767     0.904882971986     0.350253826538
    H           -2.862148382392    -1.072023279187    -1.835039439072
    H           -3.920268360666     0.086268453561    -1.057411462151
    H           -3.253388218279    -1.244838935937    -0.135922646063
    C            2.192201660293    -0.682688284854     1.460846845539
    H            2.405829275659     0.243366037848     1.977886427256
    H            3.092833149781    -1.269970668135     1.385444020065
    H            1.447287571144    -1.245184152359     2.013327294772

  Mulliken Charges: (a.u.)
   Center  Symbol    Alpha    Beta     Spin     Total
       1     O     4.17098  4.17098  0.00000 -0.34195
       2     C     2.79008  2.79008  0.00000  0.41984
       3     C     3.10844  3.10844  0.00000 -0.21689
       4     O     4.16992  4.16992  0.00000 -0.33983
       5     C     3.07995  3.07995  0.00000 -0.15990
       6     H     0.43791  0.43791  0.00000  0.12417
       7     H     0.44527  0.44527  0.00000  0.10945
       8     C     3.15033  3.15033  0.00000 -0.30067
       9     H     0.44469  0.44469  0.00000  0.11062
      10     H     0.44766  0.44766  0.00000  0.10467
      11     H     0.45508  0.45508  0.00000  0.08984
      12     H     0.44513  0.44513  0.00000  0.10973
      13     H     0.45640  0.45640  0.00000  0.08721
      14     C     3.03459  3.03459  0.00000 -0.06918
      15     H     0.45204  0.45204  0.00000  0.09591
      16     H     0.44376  0.44376  0.00000  0.11249
      17     H     0.46776  0.46776  0.00000  0.06447

   Total alpha = 28.00000, Total beta = 28.00000, Total charge = -0.00000

*** Psi4 exiting successfully. Buy a developer a beer!
