                              Psi4 1.0.54 Driver

  ==> Input File <==

--------------------------------------------------------------------------
set {
	reference rhf
	basis cc-pvtz
}

set_num_threads( 4 )
memory 2 gb

molecule MOL {
0 1

H	 -0.448986	 -1.535647	 0.432742
N	 -0.625934	 -0.663929	 -0.000707
C	 -1.978635	 -0.158664	 0.001017
C	 0.415768	 -0.010204	 -0.561138
H	 -2.519057	 -0.493535	 -0.876362
H	 -1.938890	 0.917202	 -0.004137
H	 -2.514266	 -0.485137	 0.884506
C	 1.744820	 -0.723067	 -0.441688
O	 0.309538	 1.049224	 -1.104646
H	 1.699668	 -1.691111	 -0.926923
H	 2.507218	 -0.122267	 -0.909508
H	 1.998019	 -0.880874	 0.600236

	symmetry c1
}
set optking {
	frozen_dihedral = ("
		4 2 3 5
	")
}

ee,wfn = optimize('scf', return_wfn=True)
oeprop( wfn, 'DIPOLE', 'QUADRUPOLE', 'MULLIKEN_CHARGES')
f=open( 'psi4out.xyz', 'w' )
f.write( "12  " )
f.write( str(ee) + "\n" )
f.write( MOL.save_string_xyz() )
f.close()
--------------------------------------------------------------------------

    Molecular point group: c1
  Charge       = 0
  Multiplicity = 1
  Basis Set: CC-PVTZ
  Basis Set:
  @DF-RHF Final Energy:  -247.10086490198628
    Total Energy =                       -247.1008649019863128
    Molecular point group: c1
  Basis Set: CC-PVTZ
  Basis Set:
  Basis Set: CC-PVTZ
  Basis Set:
  @DF-RHF Final Energy:  -247.10104840054871
    Total Energy =                       -247.1010484005487911
  Basis Set: CC-PVTZ
  Basis Set:
  Basis Set: CC-PVTZ
  Basis Set:
  @DF-RHF Final Energy:  -247.10092568570604
    Total Energy =                       -247.1009256857061018
  Basis Set: CC-PVTZ
  Basis Set:
  Basis Set: CC-PVTZ
  Basis Set:
  @DF-RHF Final Energy:  -247.10111862536908
    Total Energy =                       -247.1011186253690539
  Basis Set: CC-PVTZ
  Basis Set:
  @DF-RHF Final Energy:  -247.10113128302686
    Total Energy =                       -247.1011312830267457
  @DF-RHF Final Energy:  -247.10115009316843
    Total Energy =                       -247.1011500931685987
  @DF-RHF Final Energy:  -247.10115414626785
    Total Energy =                       -247.1011541462678451
  @DF-RHF Final Energy:  -247.10115604606426
    Total Energy =                       -247.1011560460643750
  @DF-RHF Final Energy:  -247.10116142587211
    Total Energy =                       -247.1011614258719646
  @DF-RHF Final Energy:  -247.10106531553558
    Total Energy =                       -247.1010653155356636
  @DF-RHF Final Energy:  -247.10118956580169
    Total Energy =                       -247.1011895658017465
  @DF-RHF Final Energy:  -247.10111981998037
    Total Energy =                       -247.1011198199802266
  @DF-RHF Final Energy:  -247.10122964921067
    Total Energy =                       -247.1012296492106088
  @DF-RHF Final Energy:  -247.10121120589460
    Total Energy =                       -247.1012112058945149
  @DF-RHF Final Energy:  -247.10131279028153
    Total Energy =                       -247.1013127902816109
  Basis Set: CC-PVTZ
  Basis Set:
  @DF-RHF Final Energy:  -247.10131137961005
    Total Energy =                       -247.1013113796099105
  Basis Set: CC-PVTZ
  Basis Set:
  Basis Set: CC-PVTZ
  Basis Set:
  @DF-RHF Final Energy:  -247.10132968744301
    Total Energy =                       -247.1013296874428420
  Basis Set: CC-PVTZ
  Basis Set:
  Basis Set: CC-PVTZ
  Basis Set:
  @DF-RHF Final Energy:  -247.10133097033884
    Total Energy =                       -247.1013309703390064
  Basis Set: CC-PVTZ
  Basis Set:
  Charge       = 0
  Multiplicity = 1
  Basis Set: CC-PVTZ
  Basis Set:

    Orbital Energies (a.u.)
    -----------------------

    Doubly Occupied:

       1A    -20.504132     2A    -15.577117     3A    -11.336222
       4A    -11.253509     5A    -11.228476     6A     -1.387379
       7A     -1.231932     8A     -1.016042     9A     -0.934253
      10A     -0.789825    11A     -0.690940    12A     -0.652245
      13A     -0.635396    14A     -0.586475    15A     -0.583084
      16A     -0.554783    17A     -0.547546    18A     -0.507013
      19A     -0.416772    20A     -0.390493

  @DF-RHF Final Energy:  -247.10133148025591

   => Energetics <=

    Nuclear Repulsion Energy =            181.7577341081199620
    One-Electron Energy =                -696.0708623196218241
    Two-Electron Energy =                 267.2117967312458404
    DFT Exchange-Correlation Energy =       0.0000000000000000
    Empirical Dispersion Energy =           0.0000000000000000
    PCM Polarization Energy =               0.0000000000000000
    EFP Energy =                            0.0000000000000000
    Total Energy =                       -247.1013314802560217
    Molecular point group: c1
  Basis Set: CC-PVTZ
  Basis Set:

  -Total Gradient:
     Atom            X                  Y                   Z
    ------   -----------------  -----------------  -----------------
       1        0.000006253511    -0.000014063099     0.000006200765
       2       -0.000066027661    -0.000293013964    -0.000234282082
       3        0.000105426564     0.000346807616    -0.000159143640
       4        0.000009472902     0.000062297664     0.000256031096
       5       -0.000079684579    -0.000194561872     0.000192773227
       6        0.000002116364     0.000005146747    -0.000003789233
       7       -0.000003228465    -0.000003667479     0.000007704571
       8       -0.000093124265     0.000039214885    -0.000009811125
       9        0.000014679758     0.000067202082    -0.000049377237
      10        0.000016464184    -0.000070181352    -0.000103803377
      11        0.000093034261     0.000103103544     0.000013563506
      12       -0.000005382570    -0.000048284771     0.000083933528

  **** Optimization is complete! (in 19 steps) ****
    Final optimized geometry and variables:
    Molecular point group: c1

    Geometry (in Angstrom), charge = 0, multiplicity = 1:

    H           -0.380269867761    -1.249594554024     1.129923528301
    N           -0.558618365137    -0.446147894262     0.582019600937
    C           -1.916806694848     0.036573668979     0.487810597298
    C            0.446543368940     0.058311342713    -0.163299999361
    H           -2.490054594868    -0.505992761697    -0.255823711803
    H           -1.902039748668     1.078746211045     0.214698254009
    H           -2.403892511071    -0.070782513502     1.447718842014
    C            1.789031858324    -0.618310614594    -0.000494729955
    O            0.300191550935     0.976986820374    -0.915348438628
    H            1.982482269950    -1.210486796784    -0.886618939135
    H            2.552013647625     0.143658699015     0.063295331457
    H            1.843619974131    -1.259764008474     0.869265038862

  Mulliken Charges: (a.u.)
   Center  Symbol    Alpha    Beta     Spin     Total
       1     H     0.41037  0.41037  0.00000  0.17926
       2     N     3.61500  3.61500  0.00000 -0.23000
       3     C     3.08078  3.08078  0.00000 -0.16155
       4     C     2.84214  2.84214  0.00000  0.31572
       5     H     0.45723  0.45723  0.00000  0.08554
       6     H     0.43475  0.43475  0.00000  0.13050
       7     H     0.45531  0.45531  0.00000  0.08938
       8     C     3.14387  3.14387  0.00000 -0.28773
       9     O     4.22063  4.22063  0.00000 -0.44127
      10     H     0.44329  0.44329  0.00000  0.11342
      11     H     0.43796  0.43796  0.00000  0.12409
      12     H     0.45868  0.45868  0.00000  0.08264

   Total alpha = 20.00000, Total beta = 20.00000, Total charge =  0.00000

*** Psi4 exiting successfully. Buy a developer a beer!
