  ==> Input File <==

--------------------------------------------------------------------------
set {
	reference rhf
	basis 6-31G*
}

set_num_threads( 4 )
memory 2 gb

molecule MOL {
0 1

H	 -0.000158	 1.970498	 0.756846
O	 -0.000074	 1.880206	 -0.189275
C	 -0.000015	 0.544847	 -0.545111
C	 -1.278788	 -0.123820	 -0.051541
C	 1.278802	 -0.123718	 -0.051505
H	 -0.000001	 0.490777	 -1.623619
F	 -0.986361	 -0.999285	 0.886325
F	 -2.132533	 0.742396	 0.451597
F	 -1.880593	 -0.772324	 -1.035852
F	 2.323327	 0.466644	 -0.591854
F	 1.326242	 -1.401483	 -0.363667
F	 1.388946	 -0.015632	 1.262939

	symmetry c1
}
set optking {
	frozen_dihedral = ("
		7 4 3 6
	")
}

ee = optimize('scf')
oeprop('DIPOLE', 'QUADRUPOLE', 'MULLIKEN_CHARGES')
f=open( 'psi4out.xyz', 'w' )
f.write( "12  " )
f.write( str(ee) + "\n" )
f.write( MOL.save_string_xyz() )
f.close()
--------------------------------------------------------------------------

    Molecular point group: c1
  Charge       = 0
  Multiplicity = 1
  Basis Set: 6-31G*
  Basis Set:
  @DF-RHF Final Energy:  -786.27045997402649
    Total Energy =                       -786.2704599740263802
    Molecular point group: c1
  Basis Set: 6-31G*
  Basis Set:
  Basis Set: 6-31G*
  Basis Set:
  @DF-RHF Final Energy:  -786.27177213192658
    Total Energy =                       -786.2717721319258999
  Basis Set: 6-31G*
  Basis Set:
  Basis Set: 6-31G*
  Basis Set:
  @DF-RHF Final Energy:  -786.27226887690256
    Total Energy =                       -786.2722688769023307
  Basis Set: 6-31G*
  Basis Set:
  Basis Set: 6-31G*
  Basis Set:
  @DF-RHF Final Energy:  -786.27232774252343
    Total Energy =                       -786.2723277425236574
  Basis Set: 6-31G*
  Basis Set:
  Basis Set: 6-31G*
  Basis Set:
  @DF-RHF Final Energy:  -786.27234120197261
    Total Energy =                       -786.2723412019727220
  Basis Set: 6-31G*
  Basis Set:
  Basis Set: 6-31G*
  Basis Set:
  @DF-RHF Final Energy:  -786.27234350704828
    Total Energy =                       -786.2723435070479354
  Basis Set: 6-31G*
  Basis Set:
  Charge       = 0
  Multiplicity = 1
  Basis Set: 6-31G*
  Basis Set:

    Orbital Energies (a.u.)
    -----------------------

    Doubly Occupied:

       1A    -26.361765     2A    -26.361493     3A    -26.361007
       4A    -26.360286     5A    -26.358403     6A    -26.356660
       7A    -20.616844     8A    -11.527426     9A    -11.523846
      10A    -11.349358    11A     -1.764285    12A     -1.757681
      13A     -1.659590    14A     -1.658414    15A     -1.656882
      16A     -1.653248    17A     -1.435250    18A     -1.099646
      19A     -0.995324    20A     -0.936962    21A     -0.864982
      22A     -0.859443    23A     -0.850138    24A     -0.845488
      25A     -0.833150    26A     -0.812787    27A     -0.733070
      28A     -0.730049    29A     -0.728161    30A     -0.722325
      31A     -0.687448    32A     -0.684790    33A     -0.682875
      34A     -0.676861    35A     -0.667155    36A     -0.661858
      37A     -0.655574    38A     -0.650599    39A     -0.617570
      40A     -0.548968    41A     -0.505362

  @DF-RHF Final Energy:  -786.27234378922344

   => Energetics <=

    Nuclear Repulsion Energy =            669.3944424976621121
    One-Electron Energy =               -2425.7075268884786965
    Two-Electron Energy =                 970.0407406015926881
    DFT Exchange-Correlation Energy =       0.0000000000000000
    Empirical Dispersion Energy =           0.0000000000000000
    PCM Polarization Energy =               0.0000000000000000
    EFP Energy =                            0.0000000000000000
    Total Energy =                       -786.2723437892238962
    Molecular point group: c1
  Basis Set: 6-31G*
  Basis Set:

  -Total Gradient:
     Atom            X                  Y                   Z
    ------   -----------------  -----------------  -----------------
       1       -0.000007295433     0.000002437478    -0.000005051726
       2        0.000007314558     0.000000677805     0.000024940353
       3       -0.001260955520     0.001824942372    -0.000591109492
       4       -0.000051479195     0.001279469457     0.001733576869
       5        0.000034103451     0.000028338758     0.000043492319
       6        0.001111887712    -0.001885566729     0.000091829823
       7        0.000244446788    -0.001311294952    -0.001307417556
       8       -0.000031454756     0.000063976768     0.000019581481
       9        0.000023348855     0.000012145469     0.000025374096
      10       -0.000011473708     0.000023989045    -0.000018386582
      11       -0.000037427522    -0.000036794870    -0.000002846176
      12       -0.000021015230    -0.000002320601    -0.000013983412

  **** Optimization is complete! (in 7 steps) ****
    Final optimized geometry and variables:
    Molecular point group: c1

    Geometry (in Angstrom), charge = 0, multiplicity = 1:

    H           -0.018494206373     2.029388433991     0.765636974791
    O            0.028095641977     1.919653577915    -0.176443952005
    C            0.000909059868     0.585148211994    -0.521544342708
    C           -1.280903686812    -0.132550762858    -0.038745597307
    C            1.276592205415    -0.102204579423    -0.049072345896
    H            0.006917232761     0.527071737271    -1.598994755560
    F           -1.048488963113    -1.021549980790     0.909499109943
    F           -2.150914752639     0.733231712359     0.435359170138
    F           -1.847310103729    -0.772957812809    -1.044097158027
    F            2.320853764281     0.452008485395    -0.627424822866
    F            1.275656105688    -1.384400729174    -0.354344652360
    F            1.429313205813     0.020561763034     1.258658594676

  Mulliken Charges: (a.u.)
   Center  Symbol    Alpha    Beta     Spin     Total
       1     H     0.26723  0.26723  0.00000  0.46555
       2     O     4.35915  4.35915  0.00000 -0.71831
       3     C     3.06478  3.06478  0.00000 -0.12956
       4     C     2.43808  2.43808  0.00000  1.12384
       5     C     2.43728  2.43728  0.00000  1.12544
       6     H     0.37137  0.37137  0.00000  0.25725
       7     F     4.67579  4.67579  0.00000 -0.35159
       8     F     4.67467  4.67467  0.00000 -0.34933
       9     F     4.67735  4.67735  0.00000 -0.35470
      10     F     4.67543  4.67543  0.00000 -0.35085
      11     F     4.67699  4.67699  0.00000 -0.35398
      12     F     4.68188  4.68188  0.00000 -0.36376

   Total alpha = 41.00000, Total beta = 41.00000, Total charge = -0.00000
