  ==> Input File <==

--------------------------------------------------------------------------
set {
	reference rhf
	basis cc-pvtz
}

set_num_threads( 4 )
memory 2 gb

molecule MOL {
0 1

H	 3.889604	 0.356866	 -0.089510
N	 3.091268	 -0.241216	 -0.065538
C	 1.860978	 0.530248	 0.016256
H	 3.192566	 -0.835836	 0.730398
C	 0.644130	 -0.381765	 -0.031064
H	 1.835721	 1.204666	 -0.833114
H	 1.808789	 1.151975	 0.911067
C	 -0.678115	 0.376691	 0.025731
H	 0.693998	 -0.977147	 -0.936845
H	 0.693309	 -1.082142	 0.800523
C	 -1.878552	 -0.521811	 0.310069
H	 -0.836357	 0.894480	 -0.917566
H	 -0.621960	 1.148655	 0.789792
C	 -3.199189	 0.239194	 0.359682
H	 -1.936160	 -1.294059	 -0.451907
H	 -1.724674	 -1.037530	 1.254064
H	 -3.399108	 0.738021	 -0.582892
H	 -4.029556	 -0.427255	 0.563010
H	 -3.185711	 0.996847	 1.136287

	symmetry c1
}
set optking {
	frozen_dihedral = ("
		12 8 5 9
	")
}

ee = optimize('scf')
oeprop('DIPOLE', 'QUADRUPOLE', 'MULLIKEN_CHARGES')
f=open( 'psi4out.xyz', 'w' )
f.write( "19  " )
f.write( str(ee) + "\n" )
f.write( MOL.save_string_xyz() )
f.close()
--------------------------------------------------------------------------

    Molecular point group: c1
  Charge       = 0
  Multiplicity = 1
  Basis Set: CC-PVTZ
  Basis Set:
  @DF-RHF Final Energy:  -251.44751850874465
    Total Energy =                       -251.4475185087449063
    Molecular point group: c1
  Basis Set: CC-PVTZ
  Basis Set:
  Basis Set: CC-PVTZ
  Basis Set:
  @DF-RHF Final Energy:  -251.44759934086954
    Total Energy =                       -251.4475993408696581
  Basis Set: CC-PVTZ
  Basis Set:
  Basis Set: CC-PVTZ
  Basis Set:
  @DF-RHF Final Energy:  -251.44762033094671
    Total Energy =                       -251.4476203309467337
  Basis Set: CC-PVTZ
  Basis Set:
  Basis Set: CC-PVTZ
  Basis Set:
  @DF-RHF Final Energy:  -251.44762140141120
    Total Energy =                       -251.4476214014112543
  Basis Set: CC-PVTZ
  Basis Set:
  Charge       = 0
  Multiplicity = 1
  Basis Set: CC-PVTZ
  Basis Set:

    Orbital Energies (a.u.)
    -----------------------

    Doubly Occupied:

       1A    -15.526341     2A    -11.237814     3A    -11.211888
       4A    -11.210462     5A    -11.207667     6A    -11.205430
       7A     -1.178110     8A     -1.074130     9A     -0.999480
      10A     -0.900875    11A     -0.813172    12A     -0.789474
      13A     -0.665905    14A     -0.644006    15A     -0.616471
      16A     -0.591850    17A     -0.563801    18A     -0.548493
      19A     -0.533652    20A     -0.495965    21A     -0.483007
      22A     -0.464825    23A     -0.461714    24A     -0.449945
      25A     -0.383797

  @DF-RHF Final Energy:  -251.44762155236540

   => Energetics <=

    Nuclear Repulsion Energy =            246.0756653984859383
    One-Electron Energy =                -826.5300275825786684
    Two-Electron Energy =                 329.0067406317273253
    DFT Exchange-Correlation Energy =       0.0000000000000000
    Empirical Dispersion Energy =           0.0000000000000000
    PCM Polarization Energy =               0.0000000000000000
    EFP Energy =                            0.0000000000000000
    Total Energy =                       -251.4476215523653764
    Molecular point group: c1
  Basis Set: CC-PVTZ
  Basis Set:

  -Total Gradient:
     Atom            X                  Y                   Z
    ------   -----------------  -----------------  -----------------
       1       -0.000000607147     0.000000900233    -0.000002220053
       2        0.000003819459    -0.000004759384    -0.000003003533
       3        0.000002190967    -0.000000070587     0.000009387176
       4       -0.000001982082     0.000003803041    -0.000000645161
       5       -0.001416025908    -0.002533057979     0.001149929091
       6        0.000003856625    -0.000001827113    -0.000000275644
       7       -0.000003365119     0.000003609286     0.000001287916
       8        0.001532144536     0.002587968863     0.000725245087
       9        0.000939200789     0.001707119551    -0.001066153342
      10        0.000002464427     0.000000733986    -0.000006680939
      11       -0.000001013498    -0.000001629240    -0.000014341901
      12       -0.001065161192    -0.001764207299    -0.000791682056
      13        0.000006284051    -0.000002107454    -0.000005574970
      14       -0.000003233690     0.000003222073     0.000005906886
      15        0.000000213132    -0.000007141180    -0.000000723512
      16        0.000002054597     0.000006311014    -0.000001880496
      17        0.000001451026    -0.000000664530     0.000000730722
      18        0.000000446819    -0.000000210133     0.000000540233
      19       -0.000002737793     0.000002006851     0.000000154498

  **** Optimization is complete! (in 5 steps) ****
    Final optimized geometry and variables:
    Molecular point group: c1

    Geometry (in Angstrom), charge = 0, multiplicity = 1:

    H            3.880308265148     0.355418195459    -0.261894877594
    N            3.083370577770    -0.243912373161    -0.224909162210
    C            1.856070482904     0.523818801371    -0.085691210486
    H            3.211174673465    -0.855517773419     0.554239717151
    C            0.637986838856    -0.389321743437    -0.105763897586
    H            1.799639057523     1.213546676500    -0.921456475562
    H            1.834927541405     1.129231977348     0.821381475387
    C           -0.681846891487     0.376136634185    -0.048503649384
    H            0.682721479555    -0.983325354101    -1.012275587323
    H            0.698935334659    -1.080560893279     0.731964551768
    C           -1.888128593471    -0.523866729342     0.210013787185
    H           -0.834271676978     0.893656619006    -0.992317809800
    H           -0.634790590198     1.139250409382     0.724405309408
    C           -3.211660713108     0.233522803611     0.215846845742
    H           -1.922126993232    -1.303085292787    -0.546582393717
    H           -1.759314861510    -1.030685980184     1.162427083381
    H           -3.388945292972     0.719447226855    -0.737890626369
    H           -4.045207443206    -0.432656154348     0.406880895340
    H           -3.219841843976     1.001331781899     0.982583633022

  Mulliken Charges: (a.u.)
   Center  Symbol    Alpha    Beta     Spin     Total
       1     H     0.43021  0.43021  0.00000  0.13957
       2     N     3.68938  3.68938  0.00000 -0.37876
       3     C     3.02590  3.02590  0.00000 -0.05179
       4     H     0.43110  0.43110  0.00000  0.13780
       5     C     3.08236  3.08236  0.00000 -0.16471
       6     H     0.45738  0.45738  0.00000  0.08525
       7     H     0.46857  0.46857  0.00000  0.06286
       8     C     3.09325  3.09325  0.00000 -0.18650
       9     H     0.44836  0.44836  0.00000  0.10328
      10     H     0.46045  0.46045  0.00000  0.07910
      11     C     3.08354  3.08354  0.00000 -0.16709
      12     H     0.45399  0.45399  0.00000  0.09202
      13     H     0.45714  0.45714  0.00000  0.08571
      14     C     3.14986  3.14986  0.00000 -0.29973
      15     H     0.45389  0.45389  0.00000  0.09221
      16     H     0.45522  0.45522  0.00000  0.08956
      17     H     0.45512  0.45512  0.00000  0.08975
      18     H     0.44859  0.44859  0.00000  0.10281
      19     H     0.45567  0.45567  0.00000  0.08867

   Total alpha = 25.00000, Total beta = 25.00000, Total charge =  0.00000
