  ==> Input File <==

--------------------------------------------------------------------------
set {
	reference rhf
	basis cc-pvtz
}

set_num_threads( 4 )
memory 2 gb

molecule MOL {
0 1

H	 -3.034039	 -0.667848	 0.004703
O	 -2.240597	 -1.171748	 0.000934
C	 -1.159675	 -0.364500	 0.000370
C	 -1.012555	 0.676151	 0.894693
C	 -0.179689	 -0.616564	 -0.947335
H	 -1.771927	 0.874567	 1.628890
C	 0.124951	 1.462306	 0.829368
H	 -0.325756	 -1.431759	 -1.629286
C	 0.955074	 0.166905	 -1.009518
H	 0.241590	 2.274750	 1.521541
C	 1.101603	 1.217688	 -0.109311
C	 2.031903	 -0.121914	 -2.024737
H	 1.976438	 1.838674	 -0.148034
H	 2.392163	 0.792268	 -2.480045
H	 1.669259	 -0.771008	 -2.810174
H	 2.879257	 -0.609363	 -1.554600

	symmetry c1
}
set optking {
	frozen_dihedral = ("
		5 3 2 1
	")
}

ee = optimize('scf')
oeprop('DIPOLE', 'QUADRUPOLE', 'MULLIKEN_CHARGES')
f=open( 'psi4out.xyz', 'w' )
f.write( "16  " )
f.write( str(ee) + "\n" )
f.write( MOL.save_string_xyz() )
f.close()
--------------------------------------------------------------------------

    Molecular point group: c1
  Charge       = 0
  Multiplicity = 1
  Basis Set: CC-PVTZ
  Basis Set:
  @DF-RHF Final Energy:  -344.71772326955545
    Total Energy =                       -344.7177232695554494
    Molecular point group: c1
  Basis Set: CC-PVTZ
  Basis Set:
  Basis Set: CC-PVTZ
  Basis Set:
  @DF-RHF Final Energy:  -344.71792798546869
    Total Energy =                       -344.7179279854690321
  Basis Set: CC-PVTZ
  Basis Set:
  Basis Set: CC-PVTZ
  Basis Set:
  @DF-RHF Final Energy:  -344.71795395766719
    Total Energy =                       -344.7179539576674756
  Basis Set: CC-PVTZ
  Basis Set:
  Basis Set: CC-PVTZ
  Basis Set:
  @DF-RHF Final Energy:  -344.71795724908725
    Total Energy =                       -344.7179572490874193
  Basis Set: CC-PVTZ
  Basis Set:
  @DF-RHF Final Energy:  -344.71795857089802
    Total Energy =                       -344.7179585708981904
  @DF-RHF Final Energy:  -344.71796051848850
    Total Energy =                       -344.7179605184879847
  @DF-RHF Final Energy:  -344.71796311813722
    Total Energy =                       -344.7179631181370496
  Basis Set: CC-PVTZ
  Basis Set:
  @DF-RHF Final Energy:  -344.71797467254618
    Total Energy =                       -344.7179746725463474
  Basis Set: CC-PVTZ
  Basis Set:
  Basis Set: CC-PVTZ
  Basis Set:
  @DF-RHF Final Energy:  -344.71798301899128
    Total Energy =                       -344.7179830189912764
  Basis Set: CC-PVTZ
  Basis Set:
  Basis Set: CC-PVTZ
  Basis Set:
  @DF-RHF Final Energy:  -344.71798652244144
    Total Energy =                       -344.7179865224416062
  Basis Set: CC-PVTZ
  Basis Set:
  Charge       = 0
  Multiplicity = 1
  Basis Set: CC-PVTZ
  Basis Set:

    Orbital Energies (a.u.)
    -----------------------

    Doubly Occupied:

       1A    -20.574367     2A    -11.290027     3A    -11.240276
       4A    -11.232002     5A    -11.220280     6A    -11.219712
       7A    -11.216676     8A    -11.215834     9A     -1.402740
      10A     -1.154654    11A     -1.046554    12A     -1.008059
      13A     -0.938702    14A     -0.828100    15A     -0.819591
      16A     -0.718536    17A     -0.681789    18A     -0.659121
      19A     -0.620202    20A     -0.594332    21A     -0.576595
      22A     -0.571016    23A     -0.555110    24A     -0.521813
      25A     -0.507511    26A     -0.485259    27A     -0.469794
      28A     -0.332658    29A     -0.318397

  @DF-RHF Final Energy:  -344.71798711089946

   => Energetics <=

    Nuclear Repulsion Energy =            346.0644522251265016
    One-Electron Energy =               -1153.5254706341615929
    Two-Electron Energy =                 462.7430312981356906
    DFT Exchange-Correlation Energy =       0.0000000000000000
    Empirical Dispersion Energy =           0.0000000000000000
    PCM Polarization Energy =               0.0000000000000000
    EFP Energy =                            0.0000000000000000
    Total Energy =                       -344.7179871108994007
    Molecular point group: c1
  Basis Set: CC-PVTZ
  Basis Set:

  -Total Gradient:
     Atom            X                  Y                   Z
    ------   -----------------  -----------------  -----------------
       1       -0.000054364172    -0.000092154967    -0.002677497850
       2       -0.000358331623     0.000650588723     0.002751369417
       3        0.001259320498    -0.001611096986     0.001131487674
       4        0.000015014749    -0.000042052311     0.000015647013
       5       -0.000881677612     0.001133760352    -0.001244465850
       6        0.000014231744    -0.000018349093     0.000014321089
       7        0.000036440661    -0.000003740901    -0.000012009703
       8        0.000010196178    -0.000015016895     0.000014159870
       9       -0.000033960142    -0.000003070041    -0.000030566675
      10       -0.000007816069     0.000002478634    -0.000000384267
      11       -0.000015654895     0.000016159549     0.000033156181
      12        0.000008474836    -0.000006015117     0.000006400402
      13       -0.000000330084    -0.000003052828    -0.000004434986
      14       -0.000008369320    -0.000002231974    -0.000003046139
      15        0.000000971297    -0.000003685904     0.000008803079
      16        0.000015853949    -0.000002520240    -0.000002939256

  **** Optimization is complete! (in 11 steps) ****
    Final optimized geometry and variables:
    Molecular point group: c1

    Geometry (in Angstrom), charge = 0, multiplicity = 1:

    H           -2.933838657343    -0.835369782209     0.370265779321
    O           -2.132575065211    -1.327602095433     0.370035984923
    C           -1.058370032672    -0.493805114616     0.319524944575
    C           -0.931898463372     0.568968489937     1.194675644836
    C           -0.082470504062    -0.741743680974    -0.624723705051
    H           -1.690525145483     0.749948884789     1.932504453269
    C            0.183010271263     1.378289723055     1.108877053758
    H           -0.215702684784    -1.570319669151    -1.293638152354
    C            1.045869858377     0.059321004860    -0.701828553579
    H            0.286676741173     2.208249857035     1.781965700188
    C            1.167106323978     1.128655187370     0.171993557908
    C            2.125209922444    -0.242945121849    -1.710646345126
    H            2.029013637618     1.766541244282     0.120903829588
    H            2.696775045229     0.643880282352    -1.950664653673
    H            1.705442957778    -0.633835550278    -2.628658183876
    H            2.814309447464    -0.985611756559    -1.322448878364

  Mulliken Charges: (a.u.)
   Center  Symbol    Alpha    Beta     Spin     Total
       1     H     0.38582  0.38582  0.00000  0.22836
       2     O     4.18649  4.18649  0.00000 -0.37298
       3     C     2.85425  2.85425  0.00000  0.29150
       4     C     3.13632  3.13632  0.00000 -0.27264
       5     C     3.13595  3.13595  0.00000 -0.27189
       6     H     0.42437  0.42437  0.00000  0.15125
       7     C     3.05892  3.05892  0.00000 -0.11784
       8     H     0.42044  0.42044  0.00000  0.15911
       9     C     2.93981  2.93981  0.00000  0.12037
      10     H     0.42272  0.42272  0.00000  0.15456
      11     C     3.11599  3.11599  0.00000 -0.23197
      12     C     3.14556  3.14556  0.00000 -0.29112
      13     H     0.42696  0.42696  0.00000  0.14608
      14     H     0.45031  0.45031  0.00000  0.09939
      15     H     0.44936  0.44936  0.00000  0.10127
      16     H     0.44673  0.44673  0.00000  0.10654

   Total alpha = 29.00000, Total beta = 29.00000, Total charge =  0.00000
