                              Psi4 1.0.54 Driver

  ==> Input File <==

--------------------------------------------------------------------------
set {
	reference rhf
	basis cc-pvtz
}

set_num_threads( 4 )
memory 2 gb

molecule MOL {
0 1

H	 -2.698799	 -0.000846	 0.036018
C	 -1.694291	 -0.000483	 0.434279
O	 -0.828718	 -0.000608	 -0.655022
H	 -1.576855	 0.881100	 1.056504
H	 -1.576401	 -0.881658	 1.057001
C	 -0.888406	 -1.067635	 -1.569225
C	 -0.505746	 -2.401635	 -0.938126
C	 -2.222909	 -1.136064	 -2.303165
H	 -0.125324	 -0.814834	 -2.294770
H	 0.426124	 -2.307798	 -0.394185
H	 -0.374564	 -3.149747	 -1.711344
H	 -1.266078	 -2.766086	 -0.257205
H	 -2.481853	 -0.164590	 -2.705942
H	 -2.154207	 -1.838256	 -3.125953
H	 -3.028806	 -1.466823	 -1.658440

	symmetry c1
}
set optking {
	frozen_dihedral = ("
		6 3 2 1
	")
}

ee,wfn = optimize('scf', return_wfn=True)
oeprop( wfn, 'DIPOLE', 'QUADRUPOLE', 'MULLIKEN_CHARGES')
f=open( 'psi4out.xyz', 'w' )
f.write( "15  " )
f.write( str(ee) + "\n" )
f.write( MOL.save_string_xyz() )
f.close()
--------------------------------------------------------------------------

    Molecular point group: c1
  Charge       = 0
  Multiplicity = 1
  Basis Set: CC-PVTZ
  Basis Set:
  @DF-RHF Final Energy:  -232.22383589967436
    Total Energy =                       -232.2238358996744410
    Molecular point group: c1
  Basis Set: CC-PVTZ
  Basis Set:
  Basis Set: CC-PVTZ
  Basis Set:
  @DF-RHF Final Energy:  -232.22565408093055
    Total Energy =                       -232.2256540809303829
  Basis Set: CC-PVTZ
  Basis Set:
  Basis Set: CC-PVTZ
  Basis Set:
  @DF-RHF Final Energy:  -232.22617007499989
    Total Energy =                       -232.2261700749999136
  Basis Set: CC-PVTZ
  Basis Set:
  Basis Set: CC-PVTZ
  Basis Set:
  @DF-RHF Final Energy:  -232.22617221782247
    Total Energy =                       -232.2261722178225796
  Basis Set: CC-PVTZ
  Basis Set:
  Basis Set: CC-PVTZ
  Basis Set:
  @DF-RHF Final Energy:  -232.22617789389980
    Total Energy =                       -232.2261778938997168
  Basis Set: CC-PVTZ
  Basis Set:
  Charge       = 0
  Multiplicity = 1
  Basis Set: CC-PVTZ
  Basis Set:

    Orbital Energies (a.u.)
    -----------------------

    Doubly Occupied:

       1A    -20.541894     2A    -11.272633     3A    -11.258502
       4A    -11.208781     5A    -11.208577     6A     -1.373608
       7A     -1.051638     8A     -0.940193     9A     -0.931673
      10A     -0.781491    11A     -0.675604    12A     -0.642365
      13A     -0.635233    14A     -0.574063    15A     -0.565759
      16A     -0.552826    17A     -0.533748    18A     -0.497846
      19A     -0.497435    20A     -0.444814    21A     -0.409647

  @DF-RHF Final Energy:  -232.22617802760399

   => Energetics <=

    Nuclear Repulsion Energy =            199.0271236330252975
    One-Electron Energy =                -709.3099432884489488
    Two-Electron Energy =                 278.0566416278195447
    DFT Exchange-Correlation Energy =       0.0000000000000000
    Empirical Dispersion Energy =           0.0000000000000000
    PCM Polarization Energy =               0.0000000000000000
    EFP Energy =                            0.0000000000000000
    Total Energy =                       -232.2261780276040781
    Molecular point group: c1
  Basis Set: CC-PVTZ
  Basis Set:

  -Total Gradient:
     Atom            X                  Y                   Z
    ------   -----------------  -----------------  -----------------
       1        0.000013998640    -0.000075443292    -0.000010119622
       2        0.000010634621     0.000130112505     0.000016023211
       3        0.000032928004    -0.000102291224     0.000058424911
       4       -0.000009370822    -0.000002418474     0.000004858990
       5       -0.000009597087     0.000007705649    -0.000006566071
       6       -0.000034591100     0.000031741569    -0.000084444495
       7       -0.000006476702     0.000009085045     0.000012117277
       8        0.000009670500    -0.000004193369     0.000015223309
       9       -0.000003428247    -0.000006167214    -0.000011806318
      10       -0.000007172135     0.000005819772     0.000006190112
      11        0.000001045414     0.000006604346     0.000003435967
      12       -0.000001251007    -0.000004050942    -0.000002184424
      13       -0.000007272872     0.000002768996     0.000006568928
      14        0.000007032757     0.000005629364     0.000001163658
      15        0.000003850037    -0.000004902732    -0.000008885433

  **** Optimization is complete! (in 6 steps) ****
    Final optimized geometry and variables:
    Molecular point group: c1

    Geometry (in Angstrom), charge = 0, multiplicity = 1:

    H           -1.463046101461     0.903422067335     1.171157074193
    C           -0.410330006943     0.911619783873     1.435535583809
    O            0.418316216994     0.916310437322     0.318009776657
    H           -0.206424914388     1.821913240548     1.980972880735
    H           -0.212826533097     0.070910545239     2.093184899554
    C            0.336193863887    -0.152013159201    -0.592832392110
    C            0.728546913060    -1.486532020373     0.031202937175
    C           -1.014200855528    -0.217556932626    -1.297600519489
    H            1.083771077980     0.097596669839    -1.335420106360
    H            1.672218781754    -1.395187468161     0.554965538149
    H            0.840746717674    -2.235843100273    -0.743859011180
    H           -0.018199435796    -1.847731734703     0.728763637019
    H           -1.279371806533     0.754565835740    -1.694771576822
    H           -0.965067824037    -0.920077382090    -2.121578112525
    H           -1.806822979977    -0.546290985718    -0.635604629023

  Mulliken Charges: (a.u.)
   Center  Symbol    Alpha    Beta     Spin     Total
       1     H     0.47060  0.47060  0.00000  0.05880
       2     C     3.03887  3.03887  0.00000 -0.07775
       3     O     4.18302  4.18302  0.00000 -0.36604
       4     H     0.44078  0.44078  0.00000  0.11844
       5     H     0.47018  0.47018  0.00000  0.05963
       6     C     2.93322  2.93322  0.00000  0.13357
       7     C     3.15914  3.15914  0.00000 -0.31828
       8     C     3.15816  3.15816  0.00000 -0.31632
       9     H     0.44701  0.44701  0.00000  0.10598
      10     H     0.44382  0.44382  0.00000  0.11235
      11     H     0.44947  0.44947  0.00000  0.10106
      12     H     0.45591  0.45591  0.00000  0.08819
      13     H     0.44391  0.44391  0.00000  0.11218
      14     H     0.44985  0.44985  0.00000  0.10031
      15     H     0.45606  0.45606  0.00000  0.08788

   Total alpha = 21.00000, Total beta = 21.00000, Total charge = -0.00000

*** Psi4 exiting successfully. Buy a developer a beer!
