                              Psi4 1.0.54 Driver

  ==> Input File <==

--------------------------------------------------------------------------
set {
	reference rhf
	basis cc-pvtz
}

set_num_threads( 4 )
memory 2 gb

molecule MOL {
0 1

H	 -0.830157	 -2.505923	 -0.210533
N	 -0.101726	 -1.832937	 -0.320311
C	 -0.561396	 -0.500007	 0.035200
H	 0.189353	 -1.866801	 -1.275016
C	 0.575129	 0.507849	 -0.048832
H	 -0.930492	 -0.536864	 1.054821
H	 -1.390495	 -0.156418	 -0.585247
C	 1.951750	 -0.141983	 0.035101
H	 0.478254	 1.061643	 -0.975981
H	 0.467676	 1.231891	 0.755499
H	 2.101550	 -0.848142	 -0.774949
H	 2.738260	 0.600794	 -0.026526
H	 2.078939	 -0.679792	 0.968824

	symmetry c1
}
set optking {
	frozen_dihedral = ("
		6 3 5 9
	")
}

ee,wfn = optimize('scf', return_wfn=True)
oeprop( wfn, 'DIPOLE', 'QUADRUPOLE', 'MULLIKEN_CHARGES')
f=open( 'psi4out.xyz', 'w' )
f.write( "13  " )
f.write( str(ee) + "\n" )
f.write( MOL.save_string_xyz() )
f.close()
--------------------------------------------------------------------------

    Molecular point group: c1
  Charge       = 0
  Multiplicity = 1
  Basis Set: CC-PVTZ
  Basis Set:
  @DF-RHF Final Energy:  -173.34339810319500
    Total Energy =                       -173.3433981031950850
    Molecular point group: c1
  Basis Set: CC-PVTZ
  Basis Set:
  Basis Set: CC-PVTZ
  Basis Set:
  @DF-RHF Final Energy:  -173.34463576048805
    Total Energy =                       -173.3446357604881314
  Basis Set: CC-PVTZ
  Basis Set:
  Basis Set: CC-PVTZ
  Basis Set:
  @DF-RHF Final Energy:  -173.34603402627971
    Total Energy =                       -173.3460340262797956
  Basis Set: CC-PVTZ
  Basis Set:
  Basis Set: CC-PVTZ
  Basis Set:
  @DF-RHF Final Energy:  -173.34613901724646
    Total Energy =                       -173.3461390172465144
  Basis Set: CC-PVTZ
  Basis Set:
  Basis Set: CC-PVTZ
  Basis Set:
  @DF-RHF Final Energy:  -173.34614676432415
    Total Energy =                       -173.3461467643240894
  Basis Set: CC-PVTZ
  Basis Set:
  Charge       = 0
  Multiplicity = 1
  Basis Set: CC-PVTZ
  Basis Set:

    Orbital Energies (a.u.)
    -----------------------

    Doubly Occupied:

       1A    -15.527618     2A    -11.239176     3A    -11.210751
       4A    -11.198755     5A     -1.178642     6A     -1.027816
       7A     -0.906344     8A     -0.787537     9A     -0.668275
      10A     -0.626408    11A     -0.599919    12A     -0.560711
      13A     -0.533911    14A     -0.493643    15A     -0.471476
      16A     -0.459709    17A     -0.382425

  @DF-RHF Final Energy:  -173.34614736377927

   => Energetics <=

    Nuclear Repulsion Energy =            133.8844753163252221
    One-Electron Energy =                -498.7150130669558621
    Two-Electron Energy =                 191.4843903868513735
    DFT Exchange-Correlation Energy =       0.0000000000000000
    Empirical Dispersion Energy =           0.0000000000000000
    PCM Polarization Energy =               0.0000000000000000
    EFP Energy =                            0.0000000000000000
    Total Energy =                       -173.3461473637792665
    Molecular point group: c1
  Basis Set: CC-PVTZ
  Basis Set:

  -Total Gradient:
     Atom            X                  Y                   Z
    ------   -----------------  -----------------  -----------------
       1       -0.000013495989     0.000014836430     0.000005159534
       2        0.000037280642    -0.000009165313     0.000016850942
       3        0.004295917876    -0.004729415867     0.002483511950
       4       -0.000003017120     0.000014675663    -0.000001106364
       5        0.003329706912    -0.004637682399    -0.004027788788
       6       -0.004172172696     0.004740499615    -0.001426869836
       7        0.000011723638    -0.000005064219    -0.000003625022
       8       -0.000007082889     0.000001199510    -0.000022231500
       9       -0.003477477873     0.004617988106     0.002940785523
      10       -0.000005737152    -0.000011456803     0.000010887829
      11       -0.000002456497     0.000004813119    -0.000001871068
      12        0.000004373562     0.000009020161     0.000012428083
      13        0.000002437587    -0.000010248004     0.000013868720

  **** Optimization is complete! (in 6 steps) ****
    Final optimized geometry and variables:
    Molecular point group: c1

    Geometry (in Angstrom), charge = 0, multiplicity = 1:

    H           -1.448352744911    -1.944020470889    -0.053910595104
    N           -0.678952280197    -1.336103020350    -0.238178565096
    C           -1.004649210142     0.028583166462     0.140545056016
    H           -0.484181797104    -1.400125462994    -1.215754516705
    C            0.170228043447     1.011012960239    -0.006844281412
    H           -1.350769423459     0.034399394795     1.167692359579
    H           -1.841480652170     0.427515584251    -0.434094807934
    C            1.563229419075     0.414893710327     0.155587405527
    H            0.082948188847     1.547478857429    -0.947229013807
    H            0.035707258477     1.781764991098     0.747165241618
    H            1.790658344979    -0.303587367295    -0.620646572346
    H            2.311043842605     1.199262640478     0.116042315369
    H            1.660232774916    -0.096766119219     1.105567198151

  Mulliken Charges: (a.u.)
   Center  Symbol    Alpha    Beta     Spin     Total
       1     H     0.42908  0.42908  0.00000  0.14184
       2     N     3.68597  3.68597  0.00000 -0.37194
       3     C     3.03309  3.03309  0.00000 -0.06618
       4     H     0.43140  0.43140  0.00000  0.13719
       5     C     3.09487  3.09487  0.00000 -0.18974
       6     H     0.45612  0.45612  0.00000  0.08776
       7     H     0.46382  0.46382  0.00000  0.07236
       8     C     3.13682  3.13682  0.00000 -0.27364
       9     H     0.45316  0.45316  0.00000  0.09368
      10     H     0.45412  0.45412  0.00000  0.09177
      11     H     0.45648  0.45648  0.00000  0.08705
      12     H     0.45260  0.45260  0.00000  0.09480
      13     H     0.45248  0.45248  0.00000  0.09504

   Total alpha = 17.00000, Total beta = 17.00000, Total charge = -0.00000

*** Psi4 exiting successfully. Buy a developer a beer!
