                              Psi4 1.0.54 Driver

  ==> Input File <==

--------------------------------------------------------------------------
set {
	reference rhf
	basis cc-pvtz
}

set_num_threads( 4 )
memory 2 gb

molecule MOL {
0 1

H	 -3.436473	 1.252944	 -1.023892
O	 -3.458596	 0.315260	 -0.960865
C	 -3.176635	 -0.080824	 0.355601
C	 -1.763371	 0.265266	 0.799691
H	 -3.321825	 -1.153438	 0.379502
H	 -3.895468	 0.357385	 1.043382
C	 -0.673390	 -0.426948	 -0.013392
H	 -1.631049	 1.344913	 0.747560
H	 -1.664587	 -0.001624	 1.849167
C	 0.737842	 -0.043159	 0.423759
H	 -0.806103	 -0.190518	 -1.063345
H	 -0.797221	 -1.503753	 0.074146
C	 1.824000	 -0.743224	 -0.390623
H	 0.850588	 1.033777	 0.343840
H	 0.868587	 -0.286314	 1.476203
C	 1.313839	 -1.807908	 -1.363265
H	 2.545291	 -1.194281	 0.286974
H	 2.369965	 0.006357	 -0.956900
C	 0.689126	 -3.032514	 -0.699024
H	 2.144883	 -2.134310	 -1.981006
H	 0.592349	 -1.358379	 -2.040609
H	 1.386254	 -3.499903	 -0.010810
H	 0.412556	 -3.773057	 -1.440877
H	 -0.205632	 -2.780449	 -0.142717

	symmetry c1
}
set optking {
	frozen_dihedral = ("
		17 13 10 7
	")
}

ee,wfn = optimize('scf', return_wfn=True)
oeprop( wfn, 'DIPOLE', 'QUADRUPOLE', 'MULLIKEN_CHARGES')
f=open( 'psi4out.xyz', 'w' )
f.write( "24  " )
f.write( str(ee) + "\n" )
f.write( MOL.save_string_xyz() )
f.close()
--------------------------------------------------------------------------

    Molecular point group: c1
  Charge       = 0
  Multiplicity = 1
  Basis Set: CC-PVTZ
  Basis Set:
  @DF-RHF Final Energy:  -349.35198257399850
    Total Energy =                       -349.3519825739984981
    Molecular point group: c1
  Basis Set: CC-PVTZ
  Basis Set:
  Basis Set: CC-PVTZ
  Basis Set:
  @DF-RHF Final Energy:  -349.36516221446027
    Total Energy =                       -349.3651622144606108
  Basis Set: CC-PVTZ
  Basis Set:
  Basis Set: CC-PVTZ
  Basis Set:
  @DF-RHF Final Energy:  -349.36807385136376
    Total Energy =                       -349.3680738513634196
  Basis Set: CC-PVTZ
  Basis Set:
  Basis Set: CC-PVTZ
  Basis Set:
  @DF-RHF Final Energy:  -349.36650751276051
    Total Energy =                       -349.3665075127606201
  Basis Set: CC-PVTZ
  Basis Set:
  @DF-RHF Final Energy:  -349.36886559843680
    Total Energy =                       -349.3688655984361731
  @DF-RHF Final Energy:  -349.36898663259933
    Total Energy =                       -349.3689866325993307
  Basis Set: CC-PVTZ
  Basis Set:
  @DF-RHF Final Energy:  -349.36908247917353
    Total Energy =                       -349.3690824791733007
  Basis Set: CC-PVTZ
  Basis Set:
  Basis Set: CC-PVTZ
  Basis Set:
  @DF-RHF Final Energy:  -349.36909210922613
    Total Energy =                       -349.3690921092264148
  Basis Set: CC-PVTZ
  Basis Set:
  Basis Set: CC-PVTZ
  Basis Set:
  @DF-RHF Final Energy:  -349.36909350287266
    Total Energy =                       -349.3690935028721469
  Basis Set: CC-PVTZ
  Basis Set:
  Charge       = 0
  Multiplicity = 1
  Basis Set: CC-PVTZ
  Basis Set:

    Orbital Energies (a.u.)
    -----------------------

    Doubly Occupied:

       1A    -20.546527     2A    -11.265679     3A    -11.215176
       4A    -11.211401     5A    -11.210467     6A    -11.209860
       7A    -11.208780     8A    -11.204014     9A     -1.364340
      10A     -1.086581    11A     -1.046309    12A     -0.983639
      13A     -0.918983    14A     -0.851384    15A     -0.811814
      16A     -0.761778    17A     -0.683023    18A     -0.653996
      19A     -0.620002    20A     -0.619790    21A     -0.610366
      22A     -0.580310    23A     -0.554174    24A     -0.543265
      25A     -0.517219    26A     -0.512800    27A     -0.495785
      28A     -0.481924    29A     -0.468991    30A     -0.459648
      31A     -0.444906    32A     -0.441853    33A     -0.422954

  @DF-RHF Final Energy:  -349.36909361458908

   => Energetics <=

    Nuclear Repulsion Energy =            393.3442354839045834
    One-Electron Energy =               -1253.4111800143436994
    Two-Electron Energy =                 510.6978509158499833
    DFT Exchange-Correlation Energy =       0.0000000000000000
    Empirical Dispersion Energy =           0.0000000000000000
    PCM Polarization Energy =               0.0000000000000000
    EFP Energy =                            0.0000000000000000
    Total Energy =                       -349.3690936145890760
    Molecular point group: c1
  Basis Set: CC-PVTZ
  Basis Set:

  -Total Gradient:
     Atom            X                  Y                   Z
    ------   -----------------  -----------------  -----------------
       1        0.000001124105     0.000004313974    -0.000000666368
       2        0.000007263145    -0.000019033259    -0.000001936203
       3       -0.000011937825     0.000027952173    -0.000020049865
       4        0.000001956650    -0.000008374103     0.000013242562
       5        0.000004351238    -0.000002078636     0.000000898453
       6       -0.000001363122    -0.000000252928     0.000015005944
       7       -0.000166482989    -0.002434065798     0.002888346251
       8       -0.000006126138     0.000000939368    -0.000002427829
       9        0.000001596962    -0.000002558539     0.000010181307
      10       -0.000332426688     0.002708833630    -0.004147103021
      11        0.000005719148     0.000010659940     0.000006259618
      12       -0.000017683115    -0.000027253370     0.000009001207
      13        0.003370018761     0.003698897572     0.000598511719
      14        0.000012365196     0.000014553051    -0.000000778249
      15       -0.000020245444    -0.000027802158    -0.000003593597
      16       -0.000036471879     0.000002918675     0.000016166270
      17       -0.002831638282    -0.003974381913     0.000635470743
      18        0.000006863744     0.000014148101    -0.000003872275
      19        0.000011442260     0.000045055652    -0.000014584603
      20        0.000003898996    -0.000002520802     0.000008669490
      21       -0.000005743701     0.000004700011    -0.000008306748
      22        0.000016007537    -0.000010319167     0.000004929322
      23       -0.000002426131    -0.000021296018    -0.000005815188
      24       -0.000010062427    -0.000003035458     0.000002451058

  **** Optimization is complete! (in 10 steps) ****
    Final optimized geometry and variables:
    Molecular point group: c1

    Geometry (in Angstrom), charge = 0, multiplicity = 1:

    H           -2.763952744885     2.156901922472    -0.995563873572
    O           -2.894823598967     1.249900018464    -0.786000978328
    C           -2.587526792776     1.023799038317     0.564504904978
    C           -1.119667293253     1.248975650472     0.894980228800
    H           -2.860064784851    -0.005388327271     0.761289701584
    H           -3.207577983689     1.648920983342     1.202154354984
    C           -0.170258256721     0.307019337570     0.158216241012
    H           -0.861545655269     2.282587754635     0.669874579951
    H           -0.993954306672     1.132693324698     1.968804281588
    C            1.293644219036     0.596534173732     0.492502222996
    H           -0.342068907780     0.403018172847    -0.907189201231
    H           -0.425107392832    -0.713431736066     0.418926728096
    C            2.386798716029    -0.284242874967    -0.174382299092
    H            1.497201362301     1.634663262631     0.250479339801
    H            1.402736993273     0.526443090228     1.570855737790
    C            1.940832639866    -1.527062169854    -0.960029394449
    H            3.059246412159    -0.640675898750     0.599200694056
    H            2.974572907372     0.339519938574    -0.837232251286
    C            1.615537315556    -2.737546470745    -0.086533278029
    H            2.751238517156    -1.805317129944    -1.626720844407
    H            1.097854335277    -1.295513230503    -1.600149385404
    H            2.490259206626    -3.048988212975     0.475246748255
    H            1.296712734686    -3.579039756511    -0.691500429290
    H            0.828070015806    -2.530814498769     0.627679614156

  Mulliken Charges: (a.u.)
   Center  Symbol    Alpha    Beta     Spin     Total
       1     H     0.39520  0.39520  0.00000  0.20960
       2     O     4.20376  4.20376  0.00000 -0.40753
       3     C     2.97747  2.97747  0.00000  0.04507
       4     C     3.10429  3.10429  0.00000 -0.20858
       5     H     0.45904  0.45904  0.00000  0.08192
       6     H     0.45987  0.45987  0.00000  0.08026
       7     C     3.09452  3.09452  0.00000 -0.18905
       8     H     0.45841  0.45841  0.00000  0.08318
       9     H     0.45325  0.45325  0.00000  0.09351
      10     C     3.09840  3.09840  0.00000 -0.19681
      11     H     0.44470  0.44470  0.00000  0.11060
      12     H     0.44964  0.44964  0.00000  0.10073
      13     C     3.09932  3.09932  0.00000 -0.19864
      14     H     0.44989  0.44989  0.00000  0.10023
      15     H     0.45266  0.45266  0.00000  0.09469
      16     C     3.09947  3.09947  0.00000 -0.19894
      17     H     0.45346  0.45346  0.00000  0.09307
      18     H     0.44591  0.44591  0.00000  0.10818
      19     C     3.14774  3.14774  0.00000 -0.29549
      20     H     0.44445  0.44445  0.00000  0.11110
      21     H     0.44923  0.44923  0.00000  0.10153
      22     H     0.45453  0.45453  0.00000  0.09094
      23     H     0.44829  0.44829  0.00000  0.10342
      24     H     0.45650  0.45650  0.00000  0.08700

   Total alpha = 33.00000, Total beta = 33.00000, Total charge = -0.00000

*** Psi4 exiting successfully. Buy a developer a beer!
