  ==> Input File <==

--------------------------------------------------------------------------
set {
	reference rhf
	basis 6-31G*
}

set_num_threads( 1 )
memory 2 gb

molecule MOL {
0 1

O	 1.846825	 1.296220	 0.000415
C	 1.705091	 0.115954	 0.001797
C	 0.381791	 -0.609817	 0.001258
O	 2.721346	 -0.737485	 -0.000216
C	 -0.823008	 0.326187	 0.001381
H	 0.371250	 -1.265087	 -0.865474
H	 0.370908	 -1.265746	 0.867490
C	 -0.891516	 1.184216	 -1.262800
H	 -0.780043	 0.964198	 0.878470
H	 -1.731329	 -0.260070	 0.099177
C	 -2.093748	 2.129857	 -1.278970
H	 0.023637	 1.766970	 -1.357080
H	 -0.932002	 0.538690	 -2.138893
C	 -2.162338	 2.986039	 -2.542892
H	 -2.053405	 2.777152	 -0.405744
H	 -3.008743	 1.549139	 -1.185750
H	 -1.275459	 3.604895	 -2.646222
H	 -3.024748	 3.645106	 -2.524736
H	 -2.237932	 2.367045	 -3.432523
C	 4.024888	 -0.184556	 -0.001949
H	 4.179030	 0.422472	 -0.882452
H	 4.701782	 -1.024608	 -0.003642
H	 4.181981	 0.421185	 0.878906

	symmetry c1
}
set optking {
	frozen_dihedral = ("
		15 11 8 12,
		9 5 8 12,
		1 2 3 6,
		1 2 4 20
	")
}

ee = energy('scf')
oeprop('DIPOLE', 'QUADRUPOLE', 'MULLIKEN_CHARGES')
f=open( 'psi4out.xyz', 'w' )
f.write( "23  " )
f.write( str(ee) + "\n" )
f.write( MOL.save_string_xyz() )
f.close()
--------------------------------------------------------------------------

    Molecular point group: c1

    Geometry (in Angstrom), charge = 0, multiplicity = 1:

       Center              X                  Y                   Z               Mass
    ------------   -----------------  -----------------  -----------------  -----------------
           O          1.281589068025     0.568589639295     0.567680675271    15.994914619560
           C          1.139855068025    -0.611676360705     0.569062675271    12.000000000000
           C         -0.183444931975    -1.337447360705     0.568523675271    12.000000000000
           O          2.156110068025    -1.465115360705     0.567049675271    15.994914619560
           C         -1.388243931975    -0.401443360705     0.568646675271    12.000000000000
           H         -0.193985931975    -1.992717360705    -0.298208324729     1.007825032070
           H         -0.194327931975    -1.993376360705     1.434755675271     1.007825032070
           C         -1.456751931975     0.456585639295    -0.695534324729    12.000000000000
           H         -1.345278931975     0.236567639295     1.445735675271     1.007825032070
           H         -2.296564931975    -0.987700360705     0.666442675271     1.007825032070
           C         -2.658983931975     1.402226639295    -0.711704324729    12.000000000000
           H         -0.541598931975     1.039339639295    -0.789814324729     1.007825032070
           H         -1.497237931975    -0.188940360705    -1.571627324729     1.007825032070
           C         -2.727573931975     2.258408639295    -1.975626324729    12.000000000000
           H         -2.618640931975     2.049521639295     0.161521675271     1.007825032070
           H         -3.573978931975     0.821508639295    -0.618484324729     1.007825032070
           H         -1.840694931975     2.877264639295    -2.078956324729     1.007825032070
           H         -3.589983931975     2.917475639295    -1.957470324729     1.007825032070
           H         -2.803167931975     1.639414639295    -2.865257324729     1.007825032070
           C          3.459652068025    -0.912186360705     0.565316675271    12.000000000000
           H          3.613794068025    -0.305158360705    -0.315186324729     1.007825032070
           H          4.136546068025    -1.752238360705     0.563623675271     1.007825032070
           H          3.616745068025    -0.306445360705     1.446171675271     1.007825032070

  Charge       = 0
  Multiplicity = 1
  Basis Set: 6-31G*
  Basis Set:

    Orbital Energies (a.u.)
    -----------------------

    Doubly Occupied:

       1A    -20.605246     2A    -20.547099     3A    -11.374163
       4A    -11.281961     5A    -11.235963     6A    -11.219276
       7A    -11.209693     8A    -11.205244     9A    -11.203677
      10A     -1.471261    11A     -1.365303    12A     -1.089744
      13A     -1.039745    14A     -0.985798    15A     -0.927951
      16A     -0.842636    17A     -0.790812    18A     -0.767992
      19A     -0.701918    20A     -0.681706    21A     -0.673171
      22A     -0.637665    23A     -0.612384    24A     -0.598678
      25A     -0.566203    26A     -0.555074    27A     -0.551066
      28A     -0.532118    29A     -0.521105    30A     -0.501517
      31A     -0.491504    32A     -0.467989    33A     -0.462098
      34A     -0.455450    35A     -0.447224    36A     -0.430645

  @DF-RHF Final Energy:  -422.97415713188462

   => Energetics <=

    Nuclear Repulsion Energy =            465.7762745919775966
    One-Electron Energy =               -1499.3986388519072079
    Two-Electron Energy =                 610.6482071280440778
    DFT Exchange-Correlation Energy =       0.0000000000000000
    Empirical Dispersion Energy =           0.0000000000000000
    PCM Polarization Energy =               0.0000000000000000
    EFP Energy =                            0.0000000000000000
    Total Energy =                       -422.9741571318854767

  Mulliken Charges: (a.u.)
   Center  Symbol    Alpha    Beta     Spin     Total
       1     O     4.28601  4.28601  0.00000 -0.57203
       2     C     2.60523  2.60523  0.00000  0.78955
       3     C     3.20974  3.20974  0.00000 -0.41948
       4     O     4.30682  4.30682  0.00000 -0.61364
       5     C     3.15413  3.15413  0.00000 -0.30826
       6     H     0.40014  0.40014  0.00000  0.19971
       7     H     0.39804  0.39804  0.00000  0.20392
       8     C     3.16203  3.16203  0.00000 -0.32406
       9     H     0.41241  0.41241  0.00000  0.17518
      10     H     0.41829  0.41829  0.00000  0.16342
      11     C     3.15127  3.15127  0.00000 -0.30253
      12     H     0.39770  0.39770  0.00000  0.20461
      13     H     0.42915  0.42915  0.00000  0.14170
      14     C     3.23938  3.23938  0.00000 -0.47877
      15     H     0.42137  0.42137  0.00000  0.15725
      16     H     0.42627  0.42627  0.00000  0.14745
      17     H     0.41977  0.41977  0.00000  0.16047
      18     H     0.42041  0.42041  0.00000  0.15919
      19     H     0.42322  0.42322  0.00000  0.15357
      20     C     3.09249  3.09249  0.00000 -0.18499
      21     H     0.40907  0.40907  0.00000  0.18186
      22     H     0.40813  0.40813  0.00000  0.18373
      23     H     0.40893  0.40893  0.00000  0.18214

   Total alpha = 36.00000, Total beta = 36.00000, Total charge = -0.00000
