                              Psi4 1.0.54 Driver

  ==> Input File <==

--------------------------------------------------------------------------
set {
	reference rhf
	basis cc-pvtz
}

set_num_threads( 4 )
memory 2 gb

molecule MOL {
0 1

H	 2.436864	 1.390392	 1.428403
N	 1.569883	 0.898379	 1.385308
C	 1.263552	 0.494993	 0.021953
H	 0.865972	 1.510057	 1.742654
C	 -0.016533	 -0.325589	 -0.026925
H	 2.089487	 -0.109179	 -0.338327
H	 1.173583	 1.340946	 -0.660875
C	 -1.280353	 0.525521	 0.047747
H	 -0.016686	 -0.912532	 -0.939714
H	 -0.014099	 -1.037598	 0.796369
C	 -2.560681	 -0.301323	 -0.007747
H	 -1.279957	 1.241025	 -0.770189
H	 -1.270445	 1.110526	 0.963468
H	 -2.617064	 -0.872870	 -0.928010
H	 -3.439525	 0.331102	 0.043462
H	 -2.609427	 -1.002736	 0.818585

	symmetry c1
}
set optking {
	frozen_dihedral = ("
		6 3 5 9
	")
}

ee,wfn = optimize('scf', return_wfn=True)
oeprop( wfn, 'DIPOLE', 'QUADRUPOLE', 'MULLIKEN_CHARGES')
f=open( 'psi4out.xyz', 'w' )
f.write( "16  " )
f.write( str(ee) + "\n" )
f.write( MOL.save_string_xyz() )
f.close()
--------------------------------------------------------------------------

    Molecular point group: c1
  Charge       = 0
  Multiplicity = 1
  Basis Set: CC-PVTZ
  Basis Set:
  @DF-RHF Final Energy:  -212.39830709145312
    Total Energy =                       -212.3983070914531481
    Molecular point group: c1
  Basis Set: CC-PVTZ
  Basis Set:
  Basis Set: CC-PVTZ
  Basis Set:
  @DF-RHF Final Energy:  -212.39852391846938
    Total Energy =                       -212.3985239184693228
  Basis Set: CC-PVTZ
  Basis Set:
  Basis Set: CC-PVTZ
  Basis Set:
  @DF-RHF Final Energy:  -212.39856805126479
    Total Energy =                       -212.3985680512648742
  Basis Set: CC-PVTZ
  Basis Set:
  Basis Set: CC-PVTZ
  Basis Set:
  @DF-RHF Final Energy:  -212.39857036325711
    Total Energy =                       -212.3985703632572495
  Basis Set: CC-PVTZ
  Basis Set:
  Charge       = 0
  Multiplicity = 1
  Basis Set: CC-PVTZ
  Basis Set:

    Orbital Energies (a.u.)
    -----------------------

    Doubly Occupied:

       1A    -15.526761     2A    -11.238314     3A    -11.213688
       4A    -11.207377     5A    -11.206098     6A     -1.178385
       7A     -1.059030     8A     -0.961372     9A     -0.850768
      10A     -0.784085    11A     -0.666779    12A     -0.643854
      13A     -0.598181    14A     -0.586425    15A     -0.552751
      16A     -0.524632    17A     -0.514989    18A     -0.472576
      19A     -0.466081    20A     -0.454159    21A     -0.383655

  @DF-RHF Final Energy:  -212.39857107023840

   => Energetics <=

    Nuclear Repulsion Energy =            188.6337816594083279
    One-Electron Energy =                -659.8847788091829898
    Two-Electron Energy =                 258.8524260795362579
    DFT Exchange-Correlation Energy =       0.0000000000000000
    Empirical Dispersion Energy =           0.0000000000000000
    PCM Polarization Energy =               0.0000000000000000
    EFP Energy =                            0.0000000000000000
    Total Energy =                       -212.3985710702384040
    Molecular point group: c1
  Basis Set: CC-PVTZ
  Basis Set:

  -Total Gradient:
     Atom            X                  Y                   Z
    ------   -----------------  -----------------  -----------------
       1        0.000072090449     0.000047699298     0.000045475702
       2        0.000016986942    -0.000079371404    -0.000080552722
       3        0.000866072815    -0.001715715991     0.003626603048
       4       -0.000060686234     0.000040934958     0.000009538689
       5       -0.001741418591     0.002973218649    -0.002286793198
       6       -0.000502391220     0.000930184197    -0.002670064058
       7        0.000004912198     0.000044037407    -0.000012121712
       8        0.000090086036    -0.000048726867     0.000013456870
       9        0.001300069141    -0.002185542639     0.001322963881
      10       -0.000007586311    -0.000013457113     0.000029967337
      11       -0.000023808934    -0.000012986786    -0.000013907440
      12        0.000003111482     0.000004755891     0.000006721167
      13       -0.000006052312     0.000006851759     0.000004377418
      14        0.000003169015     0.000003011021     0.000008103192
      15       -0.000028125288    -0.000004852457    -0.000005300720
      16        0.000013570809     0.000009960075     0.000001532546

  **** Optimization is complete! (in 5 steps) ****
    Final optimized geometry and variables:
    Molecular point group: c1

    Geometry (in Angstrom), charge = 0, multiplicity = 1:

    H            2.687864536128     1.075063691828     1.076373288812
    N            1.793295258064     0.633213836368     1.055497069006
    C            1.455033579270     0.212856667962    -0.295957114887
    H            1.134285673772     1.297497859717     1.402622172317
    C            0.160231391514    -0.592342922423    -0.336914726712
    H            2.264133893298    -0.402092009635    -0.672054765349
    H            1.371758057154     1.052224571953    -0.989414598969
    C           -1.110646057673     0.245947395215    -0.228846739799
    H            0.138489814401    -1.172720122117    -1.255410518507
    H            0.188615870319    -1.313903266724     0.474110484187
    C           -2.381816332990    -0.595725627441    -0.272760959235
    H           -1.131331379911     0.972732427473    -1.036629752212
    H           -1.098373542368     0.815871734485     0.696085883166
    H           -2.446915096402    -1.155693294828    -1.199771649349
    H           -3.267780267417     0.024431731729    -0.198003557299
    H           -2.405951925083    -1.308280853040     0.544700564714

  Mulliken Charges: (a.u.)
   Center  Symbol    Alpha    Beta     Spin     Total
       1     H     0.42922  0.42922  0.00000  0.14155
       2     N     3.68809  3.68809  0.00000 -0.37617
       3     C     3.03624  3.03624  0.00000 -0.07248
       4     H     0.43071  0.43071  0.00000  0.13858
       5     C     3.08802  3.08802  0.00000 -0.17605
       6     H     0.45178  0.45178  0.00000  0.09644
       7     H     0.46717  0.46717  0.00000  0.06565
       8     C     3.08380  3.08380  0.00000 -0.16759
       9     H     0.45350  0.45350  0.00000  0.09301
      10     H     0.45098  0.45098  0.00000  0.09804
      11     C     3.14955  3.14955  0.00000 -0.29910
      12     H     0.45534  0.45534  0.00000  0.08931
      13     H     0.45811  0.45811  0.00000  0.08378
      14     H     0.45499  0.45499  0.00000  0.09002
      15     H     0.44909  0.44909  0.00000  0.10181
      16     H     0.45340  0.45340  0.00000  0.09320

   Total alpha = 21.00000, Total beta = 21.00000, Total charge = -0.00000

*** Psi4 exiting successfully. Buy a developer a beer!
