  ==> Input File <==

--------------------------------------------------------------------------
set {
	reference rhf
	basis 6-31G*
}

set_num_threads( 4 )
memory 2 gb

molecule MOL {
0 1

H	 -1.848165	 -1.578732	 0.117484
O	 -2.310168	 -0.871793	 -0.309793
C	 -2.026376	 0.340750	 0.341611
C	 -0.673256	 0.843270	 -0.132153
H	 -2.792215	 1.080697	 0.115987
H	 -2.013526	 0.200402	 1.421792
C	 0.486613	 -0.083066	 0.235839
H	 -0.715586	 0.970948	 -1.210718
H	 -0.508072	 1.829858	 0.297090
C	 1.840406	 0.433480	 -0.254303
H	 0.300215	 -1.068318	 -0.178947
H	 0.519509	 -0.203625	 1.318070
C	 3.000220	 -0.489290	 0.118523
H	 1.809207	 0.553576	 -1.335192
H	 2.021860	 1.424500	 0.157276
H	 2.864959	 -1.479103	 -0.307933
H	 3.946603	 -0.099227	 -0.243630
H	 3.080049	 -0.602997	 1.196117

	symmetry c1
}
set optking {
	frozen_dihedral = ("
		1 2 3 4
	")
}

ee = optimize('scf')
oeprop('DIPOLE', 'QUADRUPOLE', 'MULLIKEN_CHARGES')
f=open( 'psi4out.xyz', 'w' )
f.write( "18  " )
f.write( str(ee) + "\n" )
f.write( MOL.save_string_xyz() )
f.close()
--------------------------------------------------------------------------

    Molecular point group: c1
  Charge       = 0
  Multiplicity = 1
  Basis Set: 6-31G*
  Basis Set:
  @DF-RHF Final Energy:  -271.17748229611595
    Total Energy =                       -271.1774822961159543
    Molecular point group: c1
  Basis Set: 6-31G*
  Basis Set:
  Basis Set: 6-31G*
  Basis Set:
  @DF-RHF Final Energy:  -271.17888237195422
    Total Energy =                       -271.1788823719541028
  Basis Set: 6-31G*
  Basis Set:
  Basis Set: 6-31G*
  Basis Set:
  @DF-RHF Final Energy:  -271.17930246921065
    Total Energy =                       -271.1793024692109384
  Basis Set: 6-31G*
  Basis Set:
  Basis Set: 6-31G*
  Basis Set:
  @DF-RHF Final Energy:  -271.17930526009366
    Total Energy =                       -271.1793052600938836
  Basis Set: 6-31G*
  Basis Set:
  Basis Set: 6-31G*
  Basis Set:
  @DF-RHF Final Energy:  -271.17931022073731
    Total Energy =                       -271.1793102207373067
  Basis Set: 6-31G*
  Basis Set:
  Charge       = 0
  Multiplicity = 1
  Basis Set: 6-31G*
  Basis Set:

    Orbital Energies (a.u.)
    -----------------------

    Doubly Occupied:

       1A    -20.552670     2A    -11.267638     3A    -11.219366
       4A    -11.218549     5A    -11.214697     6A    -11.211326
       7A     -1.359276     8A     -1.081791     9A     -1.012035
      10A     -0.920843    11A     -0.828206    12A     -0.791486
      13A     -0.696834    14A     -0.646376    15A     -0.619578
      16A     -0.598330    17A     -0.575474    18A     -0.565471
      19A     -0.523650    20A     -0.511299    21A     -0.490126
      22A     -0.475352    23A     -0.468550    24A     -0.456829
      25A     -0.424659

  @DF-RHF Final Energy:  -271.17931096733571

   => Energetics <=

    Nuclear Repulsion Energy =            248.7696409547938572
    One-Electron Energy =                -860.4370825644664365
    Two-Electron Energy =                 340.4881306423367278
    DFT Exchange-Correlation Energy =       0.0000000000000000
    Empirical Dispersion Energy =           0.0000000000000000
    PCM Polarization Energy =               0.0000000000000000
    EFP Energy =                            0.0000000000000000
    Total Energy =                       -271.1793109673358231
    Molecular point group: c1
  Basis Set: 6-31G*
  Basis Set:

  -Total Gradient:
     Atom            X                  Y                   Z
    ------   -----------------  -----------------  -----------------
       1       -0.000487568797    -0.000040484299     0.000411720143
       2        0.000566798263     0.000129164384    -0.000644687184
       3        0.000087094768    -0.000300966912     0.000536790668
       4       -0.000191284900     0.000119856244    -0.000338754589
       5       -0.000006755211     0.000037765294     0.000011179423
       6        0.000026209774     0.000000728898    -0.000001850918
       7       -0.000001091692     0.000003535410    -0.000019924223
       8        0.000018300372     0.000007788810    -0.000001767033
       9        0.000008042233     0.000000589330    -0.000001759348
      10        0.000002682567     0.000018650459     0.000034126527
      11       -0.000010888808     0.000023672744     0.000010943368
      12        0.000005837567     0.000008098633     0.000014178337
      13       -0.000012804209    -0.000013979997    -0.000018523893
      14       -0.000010463058     0.000007659976     0.000003867555
      15        0.000006699038    -0.000001440560     0.000010096435
      16        0.000000969230    -0.000007179631     0.000006064466
      17       -0.000001213774    -0.000000758154    -0.000008585888
      18       -0.000000563366     0.000007299372    -0.000003113846

  **** Optimization is complete! (in 6 steps) ****
    Final optimized geometry and variables:
    Molecular point group: c1

    Geometry (in Angstrom), charge = 0, multiplicity = 1:

    H           -1.970458449999    -1.592315605121     0.171435119292
    O           -2.409176020183    -0.874685270937    -0.261281251962
    C           -2.027879823666     0.341650398821     0.331169405841
    C           -0.671633416609     0.838990990697    -0.155487582745
    H           -2.795845627344     1.056775139133     0.064542528457
    H           -2.030398911444     0.255352071584     1.416791634686
    C            0.493473233811    -0.081909560994     0.211397829655
    H           -0.716385013891     0.958634371877    -1.234751311337
    H           -0.499580893093     1.827845936084     0.266754817154
    C            1.851308428755     0.452178782314    -0.248188356258
    H            0.333081339831    -1.062032630864    -0.232651398043
    H            0.514329400863    -0.228375277064     1.291360696201
    C            3.010730972903    -0.477564563917     0.107474451294
    H            1.829162544299     0.606647441018    -1.324545610377
    H            2.022438208537     1.429796181702     0.197218593738
    H            2.885654489223    -1.453855982085    -0.352326268859
    H            3.958502650665    -0.071650333277    -0.232160218235
    H            3.080342216033    -0.625078818762     1.181619740669

  Mulliken Charges: (a.u.)
   Center  Symbol    Alpha    Beta     Spin     Total
       1     H     0.27994  0.27994  0.00000  0.44012
       2     O     4.37057  4.37057  0.00000 -0.74115
       3     C     2.99906  2.99906  0.00000  0.00189
       4     C     3.15947  3.15947  0.00000 -0.31893
       5     H     0.41463  0.41463  0.00000  0.17074
       6     H     0.43181  0.43181  0.00000  0.13638
       7     C     3.15985  3.15985  0.00000 -0.31969
       8     H     0.41499  0.41499  0.00000  0.17003
       9     H     0.42478  0.42478  0.00000  0.15044
      10     C     3.15050  3.15050  0.00000 -0.30101
      11     H     0.42350  0.42350  0.00000  0.15300
      12     H     0.42619  0.42619  0.00000  0.14762
      13     C     3.23964  3.23964  0.00000 -0.47928
      14     H     0.42063  0.42063  0.00000  0.15873
      15     H     0.42254  0.42254  0.00000  0.15492
      16     H     0.42142  0.42142  0.00000  0.15716
      17     H     0.41839  0.41839  0.00000  0.16323
      18     H     0.42210  0.42210  0.00000  0.15580

   Total alpha = 25.00000, Total beta = 25.00000, Total charge = -0.00000
