  ==> Input File <==

--------------------------------------------------------------------------
set {
	reference rhf
	basis 6-31G*
}

set_num_threads( 4 )
memory 2 gb

molecule MOL {
0 1

H	 2.236707	 -1.228404	 -4.662173
C	 2.496859	 -0.400446	 -4.010000
C	 1.323733	 -0.017540	 -3.108704
H	 3.358225	 -0.701341	 -3.421058
H	 2.799650	 0.432977	 -4.638111
C	 1.654899	 1.152741	 -2.179949
H	 1.031433	 -0.878261	 -2.515979
H	 0.466460	 0.245082	 -3.726608
C	 0.493384	 1.570614	 -1.277989
H	 2.506979	 0.895708	 -1.560645
H	 1.947203	 2.011184	 -2.780511
C	 0.169600	 0.576866	 -0.172154
H	 0.729853	 2.513682	 -0.787607
H	 -0.403960	 1.760436	 -1.862726
C	 -1.181045	 0.701995	 0.511084
O	 0.950894	 -0.261515	 0.164151
C	 -2.285934	 -0.139295	 -0.145128
H	 -1.449051	 1.751551	 0.493206
H	 -1.071135	 0.403303	 1.551943
C	 -3.651768	 0.085446	 0.506485
H	 -2.346596	 0.110469	 -1.202272
H	 -2.034737	 -1.195320	 -0.088721
C	 -4.759797	 -0.746382	 -0.137905
H	 -3.908762	 1.140117	 0.445781
H	 -3.588286	 -0.154158	 1.565709
H	 -4.868882	 -0.505166	 -1.191300
H	 -4.548009	 -1.809175	 -0.062213
H	 -5.715422	 -0.564821	 0.343442

	symmetry c1
}
set optking {
	frozen_dihedral = ("
		16 12 15 17
	")
}

ee = optimize('scf')
oeprop('DIPOLE', 'QUADRUPOLE', 'MULLIKEN_CHARGES')
f=open( 'psi4out.xyz', 'w' )
f.write( "28  " )
f.write( str(ee) + "\n" )
f.write( MOL.save_string_xyz() )
f.close()
--------------------------------------------------------------------------

    Molecular point group: c1
  Charge       = 0
  Multiplicity = 1
  Basis Set: 6-31G*
  Basis Set:
  @DF-RHF Final Energy:  -426.16920730012532
    Total Energy =                       -426.1692073001252083
    Molecular point group: c1
  Basis Set: 6-31G*
  Basis Set:
  Basis Set: 6-31G*
  Basis Set:
  @DF-RHF Final Energy:  -426.16985720764023
    Total Energy =                       -426.1698572076402343
  Basis Set: 6-31G*
  Basis Set:
  Basis Set: 6-31G*
  Basis Set:
  @DF-RHF Final Energy:  -426.16936882756863
    Total Energy =                       -426.1693688275684053
  Basis Set: 6-31G*
  Basis Set:
  Basis Set: 6-31G*
  Basis Set:
  @DF-RHF Final Energy:  -426.16983566477188
    Total Energy =                       -426.1698356647717674
  Basis Set: 6-31G*
  Basis Set:
  Basis Set: 6-31G*
  Basis Set:
  @DF-RHF Final Energy:  -426.16973320358784
    Total Energy =                       -426.1697332035879526
  Basis Set: 6-31G*
  Basis Set:
  Basis Set: 6-31G*
  Basis Set:
  @DF-RHF Final Energy:  -426.16995723851869
    Total Energy =                       -426.1699572385186912
  Basis Set: 6-31G*
  Basis Set:
  Basis Set: 6-31G*
  Basis Set:
  @DF-RHF Final Energy:  -426.16996119118005
    Total Energy =                       -426.1699611911799366
  Basis Set: 6-31G*
  Basis Set:
  Charge       = 0
  Multiplicity = 1
  Basis Set: 6-31G*
  Basis Set:

    Orbital Energies (a.u.)
    -----------------------

    Doubly Occupied:

       1A    -20.547589     2A    -11.322149     3A    -11.230958
       4A    -11.230638     5A    -11.228544     6A    -11.225057
       7A    -11.216403     8A    -11.215165     9A    -11.212167
      10A    -11.205672    11A     -1.393101    12A     -1.093796
      13A     -1.077728    14A     -1.022774    15A     -0.991201
      16A     -0.908652    17A     -0.870158    18A     -0.807245
      19A     -0.799402    20A     -0.724014    21A     -0.669613
      22A     -0.652872    23A     -0.624765    24A     -0.620047
      25A     -0.609333    26A     -0.589506    27A     -0.575313
      28A     -0.573017    29A     -0.545435    30A     -0.529217
      31A     -0.517258    32A     -0.510086    33A     -0.503773
      34A     -0.482908    35A     -0.477462    36A     -0.473841
      37A     -0.468698    38A     -0.465559    39A     -0.455969
      40A     -0.391876

  @DF-RHF Final Energy:  -426.16996122078945

   => Energetics <=

    Nuclear Repulsion Energy =            535.5313790569932735
    One-Electron Energy =               -1639.2847600530319596
    Two-Electron Energy =                 677.5834197752493537
    DFT Exchange-Correlation Energy =       0.0000000000000000
    Empirical Dispersion Energy =           0.0000000000000000
    PCM Polarization Energy =               0.0000000000000000
    EFP Energy =                            0.0000000000000000
    Total Energy =                       -426.1699612207893324
    Molecular point group: c1
  Basis Set: 6-31G*
  Basis Set:

  -Total Gradient:
     Atom            X                  Y                   Z
    ------   -----------------  -----------------  -----------------
       1       -0.000003627215     0.000002941728    -0.000003788965
       2       -0.000001341075     0.000003650117     0.000000711001
       3       -0.000000529161     0.000019953419     0.000006033226
       4       -0.000006932866    -0.000000705249     0.000000837826
       5       -0.000000079280     0.000001943795     0.000003012896
       6        0.000034740541     0.000047860237    -0.000017004493
       7        0.000008770697    -0.000020913734    -0.000000757817
       8       -0.000003955606    -0.000005026619     0.000009268681
       9       -0.000028070683    -0.000051694321    -0.000082945470
      10       -0.000018019333     0.000004724519    -0.000002948626
      11        0.000027343459    -0.000009040650    -0.000021144158
      12       -0.000263075015    -0.000253244102    -0.000525486466
      13       -0.000011609876    -0.000019305306     0.000015599544
      14       -0.000006141999     0.000022253942    -0.000012370386
      15        0.000261395447    -0.000330487090     0.000524691807
      16        0.000054213675     0.000339327196     0.000373728876
      17       -0.000049709191     0.000258421466    -0.000236922180
      18        0.000017369226     0.000000168769     0.000002904640
      19        0.000015568175    -0.000015142019     0.000006016448
      20        0.000010285676     0.000026452661    -0.000033655532
      21        0.000004010346     0.000006767299     0.000020516694
      22       -0.000036109595    -0.000037609822     0.000005838531
      23       -0.000009202669    -0.000015155973     0.000003095845
      24       -0.000010821171     0.000005762779    -0.000018966204
      25        0.000024849904     0.000020766868    -0.000016819482
      26       -0.000009942042     0.000003603191     0.000004187509
      27        0.000006693774     0.000006917089    -0.000008324617
      28       -0.000006074144    -0.000013190191     0.000004690870

  **** Optimization is complete! (in 8 steps) ****
    Final optimized geometry and variables:
    Molecular point group: c1

    Geometry (in Angstrom), charge = 0, multiplicity = 1:

    H            2.771572684443    -1.470974537073    -3.657068215332
    C            3.016393977098    -0.641548497502    -3.000834537994
    C            1.827898279785    -0.267941766564    -2.116018488287
    H            3.871532772112    -0.936563857085    -2.399954276168
    H            3.321939964216     0.194470364678    -3.624189461212
    C            2.136540011528     0.905214524363    -1.183039691146
    H            1.533931864049    -1.130300559728    -1.526802595121
    H            0.977364011569    -0.011913098045    -2.745949658920
    C            0.959284285818     1.311968927824    -0.298372655078
    H            2.981871581798     0.654550898406    -0.551565520534
    H            2.431260205059     1.765694829221    -1.779477868210
    C            0.633817482359     0.333405715389     0.817208913789
    H            1.167354560431     2.263588298432     0.190860878893
    H            0.064677671818     1.482934442489    -0.893436194898
    C           -0.696783524564     0.513177018765     1.525353154522
    O            1.384685235721    -0.537849119403     1.138647282104
    C           -1.804107138398    -0.304459738972     0.841010552139
    H           -0.974602119913     1.563945475646     1.541000813597
    H           -0.573426797783     0.178001409024     2.548667378324
    C           -3.158713184646    -0.156385396477     1.535778411086
    H           -1.900230942626     0.000749775076    -0.198994924630
    H           -1.510595081424    -1.350549220650     0.832238873257
    C           -4.258729568019    -0.981580677955     0.869270904929
    H           -3.447262832793     0.892449409443     1.543859339349
    H           -3.061651717195    -0.455867398145     2.576574937115
    H           -4.403894728385    -0.680710020098    -0.164407158935
    H           -4.012277443209    -2.039275861305     0.874145263815
    H           -5.205990095668    -0.860051812661     1.384991151174

  Mulliken Charges: (a.u.)
   Center  Symbol    Alpha    Beta     Spin     Total
       1     H     0.41942  0.41942  0.00000  0.16117
       2     C     3.24012  3.24012  0.00000 -0.48023
       3     C     3.15620  3.15620  0.00000 -0.31240
       4     H     0.41834  0.41834  0.00000  0.16332
       5     H     0.42368  0.42368  0.00000  0.15264
       6     C     3.14951  3.14951  0.00000 -0.29902
       7     H     0.40974  0.40974  0.00000  0.18052
       8     H     0.42797  0.42797  0.00000  0.14406
       9     C     3.21292  3.21292  0.00000 -0.42584
      10     H     0.40715  0.40715  0.00000  0.18570
      11     H     0.42183  0.42183  0.00000  0.15635
      12     C     2.73319  2.73319  0.00000  0.53361
      13     H     0.40448  0.40448  0.00000  0.19104
      14     H     0.41120  0.41120  0.00000  0.17761
      15     C     3.19825  3.19825  0.00000 -0.39650
      16     O     4.26777  4.26777  0.00000 -0.53554
      17     C     3.16241  3.16241  0.00000 -0.32481
      18     H     0.41590  0.41590  0.00000  0.16820
      19     H     0.40092  0.40092  0.00000  0.19817
      20     C     3.15159  3.15159  0.00000 -0.30318
      21     H     0.41992  0.41992  0.00000  0.16016
      22     H     0.40853  0.40853  0.00000  0.18294
      23     C     3.24036  3.24036  0.00000 -0.48073
      24     H     0.42210  0.42210  0.00000  0.15580
      25     H     0.41901  0.41901  0.00000  0.16198
      26     H     0.42115  0.42115  0.00000  0.15770
      27     H     0.41903  0.41903  0.00000  0.16194
      28     H     0.41732  0.41732  0.00000  0.16536

   Total alpha = 40.00000, Total beta = 40.00000, Total charge =  0.00000
