  ==> Input File <==

--------------------------------------------------------------------------
set {
	reference rhf
	basis cc-pvtz
}

set_num_threads( 4 )
memory 2 gb

molecule MOL {
0 1

H	 -0.000105	 1.988529	 0.748933
O	 -0.000098	 1.879786	 -0.188206
C	 -0.000014	 0.545691	 -0.532416
C	 -1.395209	 0.118617	 -0.991563
C	 0.575096	 -0.294293	 0.609271
H	 0.660691	 0.421067	 -1.377755
F	 -1.749451	 0.838326	 -2.027610
F	 -1.439312	 -1.141505	 -1.343498
F	 -2.290223	 0.311831	 -0.046579
F	 1.801614	 0.094128	 0.857547
F	 0.608397	 -1.570642	 0.320243
F	 -0.123054	 -0.142321	 1.714199

	symmetry c1
}
set optking {
	frozen_dihedral = ("
		6 3 2 1
	")
}

ee = optimize('scf')
oeprop('DIPOLE', 'QUADRUPOLE', 'MULLIKEN_CHARGES')
f=open( 'psi4out.xyz', 'w' )
f.write( "12  " )
f.write( str(ee) + "\n" )
f.write( MOL.save_string_xyz() )
f.close()
--------------------------------------------------------------------------

    Molecular point group: c1
  Charge       = 0
  Multiplicity = 1
  Basis Set: CC-PVTZ
  Basis Set:
  @DF-RHF Final Energy:  -786.58651620183514
    Total Energy =                       -786.5865162018349110
    Molecular point group: c1
  Basis Set: CC-PVTZ
  Basis Set:
  Basis Set: CC-PVTZ
  Basis Set:
  @DF-RHF Final Energy:  -786.58688895095611
    Total Energy =                       -786.5868889509563360
  Basis Set: CC-PVTZ
  Basis Set:
  Basis Set: CC-PVTZ
  Basis Set:
  @DF-RHF Final Energy:  -786.58696505597914
    Total Energy =                       -786.5869650559784532
  Basis Set: CC-PVTZ
  Basis Set:
  Basis Set: CC-PVTZ
  Basis Set:
  @DF-RHF Final Energy:  -786.58697470985703
    Total Energy =                       -786.5869747098573725
  Basis Set: CC-PVTZ
  Basis Set:
  Charge       = 0
  Multiplicity = 1
  Basis Set: CC-PVTZ
  Basis Set:

    Orbital Energies (a.u.)
    -----------------------

    Doubly Occupied:

       1A    -26.364486     2A    -26.363223     3A    -26.360395
       4A    -26.352163     5A    -26.351872     6A    -26.348790
       7A    -20.608200     8A    -11.526406     9A    -11.514704
      10A    -11.351760    11A     -1.776205    12A     -1.763219
      13A     -1.672397    14A     -1.668140    15A     -1.659107
      16A     -1.657058    17A     -1.437723    18A     -1.104387
      19A     -1.002862    20A     -0.944979    21A     -0.874688
      22A     -0.869480    23A     -0.862324    24A     -0.850247
      25A     -0.839260    26A     -0.815435    27A     -0.751341
      28A     -0.738747    29A     -0.728075    30A     -0.725262
      31A     -0.701051    32A     -0.696733    33A     -0.691617
      34A     -0.679069    35A     -0.674277    36A     -0.673379
      37A     -0.660457    38A     -0.657893    39A     -0.623060
      40A     -0.551859    41A     -0.508622

  @DF-RHF Final Energy:  -786.58697582758043

   => Energetics <=

    Nuclear Repulsion Energy =            670.9905076814073936
    One-Electron Energy =               -2429.1530575197875805
    Two-Electron Energy =                 971.5755740107994143
    DFT Exchange-Correlation Energy =       0.0000000000000000
    Empirical Dispersion Energy =           0.0000000000000000
    PCM Polarization Energy =               0.0000000000000000
    EFP Energy =                            0.0000000000000000
    Total Energy =                       -786.5869758275806589
    Molecular point group: c1
  Basis Set: CC-PVTZ
  Basis Set:

  -Total Gradient:
     Atom            X                  Y                   Z
    ------   -----------------  -----------------  -----------------
       1        0.003282486860     0.000010491712     0.000100299815
       2       -0.003534962182    -0.000089698202     0.000346919398
       3       -0.001833187892     0.000592287712    -0.002214428325
       4       -0.000124760223    -0.000191551317    -0.000039617996
       5       -0.000107410478     0.000032255107     0.000140669762
       6        0.002087762772    -0.000398146380     0.001801197635
       7        0.000045145349     0.000072977348    -0.000007534127
       8        0.000058990961    -0.000062033132    -0.000012947702
       9        0.000093986458     0.000072339863     0.000053538665
      10       -0.000000383897    -0.000002349719    -0.000044931624
      11        0.000035604298    -0.000093115781    -0.000088704543
      12       -0.000003272024     0.000056542795    -0.000034460956

  **** Optimization is complete! (in 5 steps) ****
    Final optimized geometry and variables:
    Molecular point group: c1

    Geometry (in Angstrom), charge = 0, multiplicity = 1:

    H            0.383663567245     1.984240372569     0.870067254222
    O            0.405603460504     1.846279991542    -0.061132064167
    C            0.421237240050     0.504821786553    -0.387522315547
    C           -0.972836728068     0.078710332674    -0.848560344032
    C            0.980807249459    -0.329977537688     0.764215869414
    H            1.098422037827     0.351940917469    -1.216817348450
    F           -1.365111692468     0.863225568950    -1.820872444292
    F           -0.975087444216    -1.152409300771    -1.302553102636
    F           -1.855261663969     0.159556237243     0.118946721793
    F            2.235017876482     0.003718643649     0.966925552292
    F            0.938082593325    -1.612118723501     0.519627721088
    F            0.331156513604    -0.100453658897     1.885833684416

  Mulliken Charges: (a.u.)
   Center  Symbol    Alpha    Beta     Spin     Total
       1     H     0.38170  0.38170  0.00000  0.23661
       2     O     4.19018  4.19018  0.00000 -0.38036
       3     C     3.00074  3.00074  0.00000 -0.00149
       4     C     2.68095  2.68095  0.00000  0.63810
       5     C     2.68706  2.68706  0.00000  0.62588
       6     H     0.43160  0.43160  0.00000  0.13681
       7     F     4.60161  4.60161  0.00000 -0.20323
       8     F     4.60561  4.60561  0.00000 -0.21122
       9     F     4.60720  4.60720  0.00000 -0.21439
      10     F     4.60479  4.60479  0.00000 -0.20957
      11     F     4.59842  4.59842  0.00000 -0.19684
      12     F     4.61014  4.61014  0.00000 -0.22029

   Total alpha = 41.00000, Total beta = 41.00000, Total charge = -0.00000
