  ==> Input File <==

--------------------------------------------------------------------------
set {
	reference rhf
	basis cc-pvtz
}

set_num_threads( 4 )
memory 2 gb

molecule MOL {
0 1

H	 -4.236644	 0.417048	 0.295269
O	 -3.521383	 -0.139085	 0.047654
C	 -2.302264	 0.528872	 0.237390
C	 -1.175688	 -0.398187	 -0.171891
H	 -2.269377	 1.437980	 -0.359447
H	 -2.184386	 0.817195	 1.279889
C	 0.196029	 0.106276	 0.266738
H	 -1.201873	 -0.515469	 -1.250677
H	 -1.365975	 -1.378728	 0.252664
C	 1.330220	 -0.826136	 -0.155230
H	 0.359542	 1.097229	 -0.145561
H	 0.212134	 0.218135	 1.348778
C	 2.719700	 -0.407669	 0.328325
H	 1.339388	 -0.911200	 -1.239363
H	 1.119001	 -1.821953	 0.224128
C	 3.241564	 0.893452	 -0.276737
H	 3.418299	 -1.204729	 0.093035
H	 2.711776	 -0.323368	 1.411960
H	 3.254204	 0.841071	 -1.360784
H	 2.634460	 1.745075	 0.005842
H	 4.254264	 1.092401	 0.054971

	symmetry c1
}
set optking {
	frozen_dihedral = ("
		2 3 4 8
	")
}

ee = optimize('scf')
oeprop('DIPOLE', 'QUADRUPOLE', 'MULLIKEN_CHARGES')
f=open( 'psi4out.xyz', 'w' )
f.write( "21  " )
f.write( str(ee) + "\n" )
f.write( MOL.save_string_xyz() )
f.close()
--------------------------------------------------------------------------

    Molecular point group: c1
  Charge       = 0
  Multiplicity = 1
  Basis Set: CC-PVTZ
  Basis Set:
  @DF-RHF Final Energy:  -310.33247089948679
    Total Energy =                       -310.3324708994866796
    Molecular point group: c1
  Basis Set: CC-PVTZ
  Basis Set:
  Basis Set: CC-PVTZ
  Basis Set:
  @DF-RHF Final Energy:  -310.33254238035073
    Total Energy =                       -310.3325423803506737
  Basis Set: CC-PVTZ
  Basis Set:
  Basis Set: CC-PVTZ
  Basis Set:
  @DF-RHF Final Energy:  -310.33255468838922
    Total Energy =                       -310.3325546883894503
  Basis Set: CC-PVTZ
  Basis Set:
  Charge       = 0
  Multiplicity = 1
  Basis Set: CC-PVTZ
  Basis Set:

    Orbital Energies (a.u.)
    -----------------------

    Doubly Occupied:

       1A    -20.545343     2A    -11.265008     3A    -11.213076
       4A    -11.212980     5A    -11.211181     6A    -11.209055
       7A    -11.206138     8A     -1.363072     9A     -1.087355
      10A     -1.034392    11A     -0.955379    12A     -0.876234
      13A     -0.807595    14A     -0.779264    15A     -0.697264
      16A     -0.661055    17A     -0.624824    18A     -0.606632
      19A     -0.587726    20A     -0.573011    21A     -0.536650
      22A     -0.521325    23A     -0.511963    24A     -0.486504
      25A     -0.481440    26A     -0.461102    27A     -0.455886
      28A     -0.444053    29A     -0.436820

  @DF-RHF Final Energy:  -310.33255386199204

   => Energetics <=

    Nuclear Repulsion Energy =            312.8863906523967557
    One-Electron Energy =               -1040.7332317229479486
    Two-Electron Energy =                 417.5142872085589261
    DFT Exchange-Correlation Energy =       0.0000000000000000
    Empirical Dispersion Energy =           0.0000000000000000
    PCM Polarization Energy =               0.0000000000000000
    EFP Energy =                            0.0000000000000000
    Total Energy =                       -310.3325538619922099
    Molecular point group: c1
  Basis Set: CC-PVTZ
  Basis Set:

  -Total Gradient:
     Atom            X                  Y                   Z
    ------   -----------------  -----------------  -----------------
       1        0.000012474590     0.000009665100    -0.000004264391
       2        0.000045769375    -0.000673219490     0.001694675175
       3        0.000242632668     0.001264860811    -0.002238617250
       4       -0.001991957076    -0.002726935376     0.000684631665
       5        0.000030736828    -0.000054838632     0.000006343875
       6        0.000073582138     0.000013263705     0.000050758641
       7       -0.000026972462     0.000011327245     0.000073343822
       8        0.001550221217     0.001928321428    -0.000326727530
       9        0.000002217173     0.000154191580     0.000057153015
      10        0.000012691318     0.000053993730    -0.000047555904
      11       -0.000064043745    -0.000067498079    -0.000016283675
      12        0.000064864953     0.000071684373     0.000042218374
      13       -0.000049881980     0.000047454427     0.000088411675
      14       -0.000008742140     0.000040842108    -0.000006369050
      15        0.000024982293    -0.000033228180    -0.000033261337
      16        0.000036133150    -0.000013513974    -0.000022834508
      17       -0.000004904054    -0.000011205037     0.000024379259
      18       -0.000019139992     0.000027088178    -0.000000364352
      19       -0.000014144181     0.000016504972    -0.000021173042
      20        0.000077769912    -0.000035454899     0.000015386707
      21        0.000005710012    -0.000023303989    -0.000019851171

  **** Optimization is complete! (in 4 steps) ****
    Final optimized geometry and variables:
    Molecular point group: c1

    Geometry (in Angstrom), charge = 0, multiplicity = 1:

    H           -4.235556904422     0.473238259501     0.199700255364
    O           -3.524288993303    -0.109508278438     0.008199644127
    C           -2.298271159600     0.546911131961     0.195832038069
    C           -1.177257399308    -0.397884082782    -0.192186485563
    H           -2.249029203262     1.451440369250    -0.405939912480
    H           -2.186378749608     0.840522287892     1.237724149163
    C            0.196485349078     0.118194759852     0.230301919002
    H           -1.190758665748    -0.535812222294    -1.268885032409
    H           -1.370355906668    -1.363492387543     0.261502786076
    C            1.333075746633    -0.803690294728    -0.207508909100
    H            0.346692119659     1.111386821904    -0.182661069372
    H            0.224447766261     0.228950547520     1.311909533365
    C            2.722278579071    -0.387311458814     0.278542883662
    H            1.340139205858    -0.873965695757    -1.292700096774
    H            1.126162370067    -1.805434783652     0.158608693186
    C            3.242193000143     0.919134271030    -0.316481854620
    H            3.421718962641    -1.181511245803     0.036276225970
    H            2.715019089939    -0.311756697638     1.362763348673
    H            3.248857106672     0.877513891665    -1.401059088840
    H            2.637539787287     1.768433197270    -0.022044132589
    H            4.256886784402     1.113778742954     0.011603432434

  Mulliken Charges: (a.u.)
   Center  Symbol    Alpha    Beta     Spin     Total
       1     H     0.39715  0.39715  0.00000  0.20570
       2     O     4.19488  4.19488  0.00000 -0.38975
       3     C     2.96324  2.96324  0.00000  0.07352
       4     C     3.08350  3.08350  0.00000 -0.16700
       5     H     0.47328  0.47328  0.00000  0.05343
       6     H     0.47656  0.47656  0.00000  0.04689
       7     C     3.10298  3.10298  0.00000 -0.20596
       8     H     0.45308  0.45308  0.00000  0.09383
       9     H     0.44849  0.44849  0.00000  0.10303
      10     C     3.09463  3.09463  0.00000 -0.18926
      11     H     0.45438  0.45438  0.00000  0.09124
      12     H     0.45481  0.45481  0.00000  0.09037
      13     C     3.08982  3.08982  0.00000 -0.17963
      14     H     0.45333  0.45333  0.00000  0.09333
      15     H     0.44869  0.44869  0.00000  0.10263
      16     C     3.15233  3.15233  0.00000 -0.30466
      17     H     0.44847  0.44847  0.00000  0.10307
      18     H     0.45487  0.45487  0.00000  0.09026
      19     H     0.45481  0.45481  0.00000  0.09038
      20     H     0.45424  0.45424  0.00000  0.09153
      21     H     0.44647  0.44647  0.00000  0.10706

   Total alpha = 29.00000, Total beta = 29.00000, Total charge = -0.00000
