  ==> Input File <==

--------------------------------------------------------------------------
set {
	reference rhf
	basis cc-pvtz
}

set_num_threads( 4 )
memory 2 gb

molecule MOL {
0 1

O	 1.015618	 0.786834	 0.880897
C	 0.576499	 0.134701	 -0.003900
C	 -0.765656	 -0.550508	 -0.002152
O	 1.228622	 -0.088979	 -1.132915
C	 -1.945526	 0.411052	 0.000603
H	 -0.794329	 -1.203792	 -0.868145
H	 -0.791555	 -1.205429	 0.862701
C	 -3.282915	 -0.321280	 0.002596
H	 -1.880300	 1.059126	 -0.864925
H	 -1.877207	 1.057892	 0.866807
H	 -3.388495	 -0.952755	 -0.873419
H	 -4.107811	 0.380864	 0.004116
H	 -3.385717	 -0.953283	 0.878571
C	 2.509562	 0.493051	 -1.268725
H	 2.447817	 1.569220	 -1.204679
H	 2.868300	 0.197832	 -2.241269
H	 3.175921	 0.131601	 -0.499726

	symmetry c1
}
set optking {
	frozen_dihedral = ("
		1 2 3 6
	")
}

ee = optimize('scf')
oeprop('DIPOLE', 'QUADRUPOLE', 'MULLIKEN_CHARGES')
f=open( 'psi4out.xyz', 'w' )
f.write( "17  " )
f.write( str(ee) + "\n" )
f.write( MOL.save_string_xyz() )
f.close()
--------------------------------------------------------------------------

    Molecular point group: c1
  Charge       = 0
  Multiplicity = 1
  Basis Set: CC-PVTZ
  Basis Set:
  @DF-RHF Final Energy:  -345.03324475489683
    Total Energy =                       -345.0332447548964865
    Molecular point group: c1
  Basis Set: CC-PVTZ
  Basis Set:
  Basis Set: CC-PVTZ
  Basis Set:
  @DF-RHF Final Energy:  -345.03387083011631
    Total Energy =                       -345.0338708301163138
  Basis Set: CC-PVTZ
  Basis Set:
  Basis Set: CC-PVTZ
  Basis Set:
  @DF-RHF Final Energy:  -345.03305449210632
    Total Energy =                       -345.0330544921063165
  Basis Set: CC-PVTZ
  Basis Set:
  Basis Set: CC-PVTZ
  Basis Set:
  @DF-RHF Final Energy:  -345.03398612091991
    Total Energy =                       -345.0339861209197920
  Basis Set: CC-PVTZ
  Basis Set:
  Basis Set: CC-PVTZ
  Basis Set:
  @DF-RHF Final Energy:  -345.03399238898908
    Total Energy =                       -345.0339923889889064
  Basis Set: CC-PVTZ
  Basis Set:
  Charge       = 0
  Multiplicity = 1
  Basis Set: CC-PVTZ
  Basis Set:

    Orbital Energies (a.u.)
    -----------------------

    Doubly Occupied:

       1A    -20.598966     2A    -20.531447     3A    -11.364088
       4A    -11.278779     5A    -11.232591     6A    -11.228221
       7A    -11.215618     8A     -1.472742     9A     -1.364760
      10A     -1.083774    11A     -1.001366    12A     -0.942293
      13A     -0.829381    14A     -0.774787    15A     -0.700675
      16A     -0.683569    17A     -0.676240    18A     -0.637686
      19A     -0.596250    20A     -0.583662    21A     -0.559600
      22A     -0.537998    23A     -0.527387    24A     -0.505450
      25A     -0.485590    26A     -0.484351    27A     -0.458181
      28A     -0.437275

  @DF-RHF Final Energy:  -345.03399282866127

   => Energetics <=

    Nuclear Repulsion Energy =            313.7308778295341085
    One-Electron Energy =               -1091.9442810855919106
    Two-Electron Energy =                 433.1794104273967037
    DFT Exchange-Correlation Energy =       0.0000000000000000
    Empirical Dispersion Energy =           0.0000000000000000
    PCM Polarization Energy =               0.0000000000000000
    EFP Energy =                            0.0000000000000000
    Total Energy =                       -345.0339928286610416
    Molecular point group: c1
  Basis Set: CC-PVTZ
  Basis Set:

  -Total Gradient:
     Atom            X                  Y                   Z
    ------   -----------------  -----------------  -----------------
       1       -0.000036762551     0.000073791654    -0.000004885064
       2        0.000051796127    -0.000077480379     0.000027206931
       3        0.000014796800    -0.000033822721     0.000019864152
       4       -0.000019394610    -0.000003386646     0.000012413823
       5        0.000018638948     0.000002303070    -0.000012887529
       6       -0.000032914163     0.000037586714    -0.000052530493
       7        0.000000973080     0.000005092679    -0.000003420964
       8        0.000003852017    -0.000007170310     0.000017249830
       9        0.000000305957    -0.000012355885     0.000004976019
      10       -0.000008921982     0.000004655364    -0.000004291140
      11        0.000009891241     0.000008934779    -0.000001182064
      12        0.000003341033     0.000007071029     0.000004236923
      13        0.000002008241    -0.000004129792    -0.000004245193
      14       -0.000012759716    -0.000001166320     0.000003736678
      15        0.000005158612     0.000001078272    -0.000002163570
      16       -0.000001907871    -0.000002163325    -0.000001910499
      17        0.000001898840     0.000001161817    -0.000002167844

  **** Optimization is complete! (in 6 steps) ****
    Final optimized geometry and variables:
    Molecular point group: c1

    Geometry (in Angstrom), charge = 0, multiplicity = 1:

    O            1.049395069103     0.616322954274     1.115839775302
    C            0.639959816070    -0.033305135906     0.213661039183
    C           -0.696952363835    -0.729992820527     0.213435559714
    O            1.307676928967    -0.209377201629    -0.912924328597
    C           -1.849434752450     0.278640099280     0.203199726759
    H           -0.762643942949    -1.392760292318    -0.637963125170
    H           -0.744309555768    -1.325936869244     1.117060005392
    C           -3.211553954241    -0.403169958818     0.252411137874
    H           -1.781903956577     0.890179361539    -0.691354321171
    H           -1.737883698868     0.946184178196     1.048507142044
    H           -3.354197329348    -1.060259146580    -0.598746935954
    H           -4.010327204199     0.328709948688     0.243274152373
    H           -3.317762139839    -0.998691808109     1.152725720344
    C            2.568698398187     0.420556547128    -1.022703132287
    H            2.468056169962     1.491990603145    -0.933742078140
    H            2.946801273150     0.161051905211    -1.998162482245
    H            3.239601525938     0.064726658654    -0.255109024451

  Mulliken Charges: (a.u.)
   Center  Symbol    Alpha    Beta     Spin     Total
       1     O     4.20529  4.20529  0.00000 -0.41058
       2     C     2.81011  2.81011  0.00000  0.37978
       3     C     3.07965  3.07965  0.00000 -0.15930
       4     O     4.14521  4.14521  0.00000 -0.29042
       5     C     3.08907  3.08907  0.00000 -0.17813
       6     H     0.44149  0.44149  0.00000  0.11702
       7     H     0.44371  0.44371  0.00000  0.11257
       8     C     3.15138  3.15138  0.00000 -0.30277
       9     H     0.45113  0.45113  0.00000  0.09774
      10     H     0.44052  0.44052  0.00000  0.11896
      11     H     0.45478  0.45478  0.00000  0.09044
      12     H     0.44605  0.44605  0.00000  0.10790
      13     H     0.45335  0.45335  0.00000  0.09331
      14     C     3.03503  3.03503  0.00000 -0.07006
      15     H     0.45412  0.45412  0.00000  0.09176
      16     H     0.44526  0.44526  0.00000  0.10947
      17     H     0.45385  0.45385  0.00000  0.09229

   Total alpha = 28.00000, Total beta = 28.00000, Total charge =  0.00000
