                              Psi4 1.0.54 Driver

  ==> Input File <==

--------------------------------------------------------------------------
set {
	reference rhf
	basis cc-pvtz
}

set_num_threads( 4 )
memory 2 gb

molecule MOL {
0 1

H	 2.867672	 -0.456275	 0.875795
C	 2.403497	 -0.020426	 0.000000
N	 0.989899	 -0.304564	 0.000000
H	 2.867672	 -0.456275	 -0.875795
H	 2.620366	 1.051270	 0.000000
C	 0.695215	 -1.646646	 0.457763
C	 0.375936	 -0.058222	 -1.288384
H	 1.155517	 -2.399764	 -0.189290
H	 1.098826	 -1.779997	 1.454780
C	 -0.804845	 -1.868241	 0.488720
H	 0.545283	 0.973905	 -1.572572
H	 0.812224	 -0.691868	 -2.066773
C	 -1.115920	 -0.320630	 -1.212562
H	 -1.031510	 -2.894796	 0.740580
H	 -1.252477	 -1.221569	 1.240744
O	 -1.378150	 -1.615759	 -0.759767
H	 -1.567442	 -0.228514	 -2.190452
H	 -1.579649	 0.406126	 -0.548574

	symmetry c1
}
set optking {
	frozen_dihedral = ("
		6 3 2 5
	")
}

ee,wfn = optimize('scf', return_wfn=True)
oeprop( wfn, 'DIPOLE', 'QUADRUPOLE', 'MULLIKEN_CHARGES')
f=open( 'psi4out.xyz', 'w' )
f.write( "18  " )
f.write( str(ee) + "\n" )
f.write( MOL.save_string_xyz() )
f.close()
--------------------------------------------------------------------------

    Molecular point group: c1
  Charge       = 0
  Multiplicity = 1
  Basis Set: CC-PVTZ
  Basis Set:
  @DF-RHF Final Energy:  -325.14404136696442
    Total Energy =                       -325.1440413669644158
    Molecular point group: c1
  Basis Set: CC-PVTZ
  Basis Set:
  Basis Set: CC-PVTZ
  Basis Set:
  @DF-RHF Final Energy:  -325.14482009255323
    Total Energy =                       -325.1448200925535161
  Basis Set: CC-PVTZ
  Basis Set:
  Basis Set: CC-PVTZ
  Basis Set:
  @DF-RHF Final Energy:  -325.14489661240236
    Total Energy =                       -325.1448966124022490
  Basis Set: CC-PVTZ
  Basis Set:
  Charge       = 0
  Multiplicity = 1
  Basis Set: CC-PVTZ
  Basis Set:

    Orbital Energies (a.u.)
    -----------------------

    Doubly Occupied:

       1A    -20.547553     2A    -15.543206     3A    -11.264266
       4A    -11.264224     5A    -11.242644     6A    -11.242447
       7A    -11.239059     8A     -1.386403     9A     -1.233180
      10A     -1.039359    11A     -0.982110    12A     -0.884330
      13A     -0.869626    14A     -0.773868    15A     -0.685053
      16A     -0.646907    17A     -0.645299    18A     -0.634720
      19A     -0.630681    20A     -0.573990    21A     -0.556717
      22A     -0.543293    23A     -0.526704    24A     -0.501332
      25A     -0.485680    26A     -0.454075    27A     -0.410820
      28A     -0.352903

  @DF-RHF Final Energy:  -325.14489799248673

   => Energetics <=

    Nuclear Repulsion Energy =            341.8079751696200788
    One-Electron Energy =               -1119.5848484371899758
    Two-Electron Energy =                 452.6319752750829366
    DFT Exchange-Correlation Energy =       0.0000000000000000
    Empirical Dispersion Energy =           0.0000000000000000
    PCM Polarization Energy =               0.0000000000000000
    EFP Energy =                            0.0000000000000000
    Total Energy =                       -325.1448979924870173
    Molecular point group: c1
  Basis Set: CC-PVTZ
  Basis Set:

  -Total Gradient:
     Atom            X                  Y                   Z
    ------   -----------------  -----------------  -----------------
       1       -0.000040024387    -0.000008645945     0.000010465560
       2        0.000083257421     0.000352078322    -0.003203205454
       3        0.000235986630    -0.001066639499    -0.002361714674
       4       -0.000019176571    -0.000012353121     0.000001234674
       5       -0.000086433984    -0.000029806275     0.003245365318
       6       -0.000190417123     0.000652322084     0.002367820375
       7       -0.000004502282     0.000016812887    -0.000116401623
       8       -0.000020137488     0.000053077500     0.000009885080
       9        0.000006681247     0.000014408816     0.000007123221
      10        0.000031281568     0.000039872294    -0.000028932800
      11        0.000004264120     0.000007177591     0.000004860166
      12        0.000000285323     0.000005387361     0.000048842482
      13        0.000017896060    -0.000015701648     0.000042416614
      14        0.000002095567    -0.000006753813     0.000004903750
      15        0.000009953179    -0.000004013104    -0.000000401813
      16       -0.000025220818     0.000003186219    -0.000021575236
      17       -0.000004167741    -0.000004302910    -0.000005229949
      18       -0.000001620724     0.000003893241    -0.000005455693

  **** Optimization is complete! (in 4 steps) ****
    Final optimized geometry and variables:
    Molecular point group: c1

    Geometry (in Angstrom), charge = 0, multiplicity = 1:

    H            2.684313508636     0.405560005862     1.264152293826
    C            2.245352610447     0.794559893580     0.354008486839
    N            0.833176182824     0.502121671863     0.334809802617
    H            2.785199975835     0.359493352528    -0.490001138069
    H            2.405258612294     1.866238548672     0.358999906612
    C            0.515070366026    -0.837467804295     0.781030233550
    C            0.218331147468     0.793653904039    -0.941421598514
    H            0.960324093717    -1.597773990178     0.131333421318
    H            0.911651375981    -0.984507806516     1.778539103245
    C           -0.989676644023    -1.028491413633     0.806975372861
    H            0.405325231516     1.830151171470    -1.199166392117
    H            0.641229649872     0.174092527979    -1.738409309512
    C           -1.277403138006     0.554015464619    -0.866347771742
    H           -1.237853476432    -2.053673058792     1.044068765813
    H           -1.423686281586    -0.383481094712     1.568508540939
    O           -1.557818294250    -0.745336524365    -0.437293122279
    H           -1.730153969392     0.671732091818    -1.841008292199
    H           -1.728128096927     1.275045296708    -0.187251302699

  Mulliken Charges: (a.u.)
   Center  Symbol    Alpha    Beta     Spin     Total
       1     H     0.45370  0.45370  0.00000  0.09260
       2     C     3.09451  3.09451  0.00000 -0.18901
       3     N     3.61757  3.61757  0.00000 -0.23513
       4     H     0.46810  0.46810  0.00000  0.06379
       5     H     0.45027  0.45027  0.00000  0.09947
       6     C     3.03916  3.03916  0.00000 -0.07833
       7     C     3.04095  3.04095  0.00000 -0.08189
       8     H     0.47007  0.47007  0.00000  0.05987
       9     H     0.45398  0.45398  0.00000  0.09204
      10     C     2.98386  2.98386  0.00000  0.03229
      11     H     0.45434  0.45434  0.00000  0.09132
      12     H     0.46833  0.46833  0.00000  0.06334
      13     C     2.98338  2.98338  0.00000  0.03324
      14     H     0.44981  0.44981  0.00000  0.10038
      15     H     0.46787  0.46787  0.00000  0.06426
      16     O     4.18649  4.18649  0.00000 -0.37297
      17     H     0.44988  0.44988  0.00000  0.10023
      18     H     0.46774  0.46774  0.00000  0.06451

   Total alpha = 28.00000, Total beta = 28.00000, Total charge =  0.00000

*** Psi4 exiting successfully. Buy a developer a beer!
