  ==> Input File <==

--------------------------------------------------------------------------
set {
	reference rhf
	basis cc-pvtz
}

set_num_threads( 4 )
memory 2 gb

molecule MOL {
0 1

H	 -2.685112	 -0.569975	 1.380822
C	 -2.640116	 -0.566171	 0.294156
O	 -1.335881	 -0.424247	 -0.160123
H	 -3.017205	 -1.509657	 -0.072621
H	 -3.281058	 0.233058	 -0.073690
C	 -0.718530	 0.758693	 0.228682
C	 0.718529	 0.758687	 -0.228709
H	 -1.229543	 1.613976	 -0.213274
H	 -0.749521	 0.871656	 1.310213
O	 1.401606	 -0.295166	 0.366636
H	 0.748705	 0.673477	 -1.312803
H	 1.176496	 1.708671	 0.046552
C	 2.714315	 -0.441627	 -0.061017
H	 2.765292	 -0.641548	 -1.128869
H	 3.305661	 0.447341	 0.150952
H	 3.143725	 -1.278506	 0.470147

	symmetry c1
}
set optking {
	frozen_dihedral = ("
		3 6 7 11
	")
}

ee = optimize('scf')
oeprop('DIPOLE', 'QUADRUPOLE', 'MULLIKEN_CHARGES')
f=open( 'psi4out.xyz', 'w' )
f.write( "16  " )
f.write( str(ee) + "\n" )
f.write( MOL.save_string_xyz() )
f.close()
--------------------------------------------------------------------------

    Molecular point group: c1
  Charge       = 0
  Multiplicity = 1
  Basis Set: CC-PVTZ
  Basis Set:
  @DF-RHF Final Energy:  -307.09728416444972
    Total Energy =                       -307.0972841644497748
    Molecular point group: c1
  Basis Set: CC-PVTZ
  Basis Set:
  Basis Set: CC-PVTZ
  Basis Set:
  @DF-RHF Final Energy:  -307.09739070071504
    Total Energy =                       -307.0973907007150387
  Basis Set: CC-PVTZ
  Basis Set:
  Basis Set: CC-PVTZ
  Basis Set:
  @DF-RHF Final Energy:  -307.09740699332036
    Total Energy =                       -307.0974069933201349
  Basis Set: CC-PVTZ
  Basis Set:
  Charge       = 0
  Multiplicity = 1
  Basis Set: CC-PVTZ
  Basis Set:

    Orbital Energies (a.u.)
    -----------------------

    Doubly Occupied:

       1A    -20.547954     2A    -20.547218     3A    -11.268023
       4A    -11.267343     5A    -11.261712     6A    -11.261348
       7A     -1.392583     8A     -1.374408     9A     -1.032163
      10A     -0.936843    11A     -0.894041    12A     -0.822795
      13A     -0.687527    14A     -0.681732    15A     -0.660167
      16A     -0.640506    17A     -0.629830    18A     -0.597976
      19A     -0.556031    20A     -0.531280    21A     -0.509975
      22A     -0.479106    23A     -0.465519    24A     -0.420469
      25A     -0.415024

  @DF-RHF Final Energy:  -307.09740754363952

   => Energetics <=

    Nuclear Repulsion Energy =            259.3582145734533242
    One-Electron Energy =                -933.1480969739927787
    Two-Electron Energy =                 366.6924748569003896
    DFT Exchange-Correlation Energy =       0.0000000000000000
    Empirical Dispersion Energy =           0.0000000000000000
    PCM Polarization Energy =               0.0000000000000000
    EFP Energy =                            0.0000000000000000
    Total Energy =                       -307.0974075436390649
    Molecular point group: c1
  Basis Set: CC-PVTZ
  Basis Set:

  -Total Gradient:
     Atom            X                  Y                   Z
    ------   -----------------  -----------------  -----------------
       1       -0.000007632062    -0.000003237125     0.000005494503
       2        0.000019225464     0.000040443775     0.000018773008
       3        0.000654891267    -0.001022972806     0.001960974001
       4        0.000016612483     0.000003150997    -0.000007701547
       5       -0.000006874497    -0.000005847748    -0.000002545421
       6       -0.000848727592     0.002065354584    -0.002636603246
       7        0.000181511533    -0.004011657211     0.000845793561
       8       -0.000002292811    -0.000029438854    -0.000012051336
       9        0.000000435824     0.000004436036     0.000008228828
      10        0.000012109385    -0.000010874028    -0.000001120994
      11       -0.000023677499     0.002964908669    -0.000197718142
      12        0.000007906518    -0.000005505046     0.000008516155
      13       -0.000028073636     0.000016954708     0.000011165564
      14       -0.000005384494    -0.000001344978     0.000002648458
      15        0.000015799979     0.000001318712    -0.000003158138
      16        0.000014170139    -0.000005689685    -0.000000695252

  **** Optimization is complete! (in 4 steps) ****
    Final optimized geometry and variables:
    Molecular point group: c1

    Geometry (in Angstrom), charge = 0, multiplicity = 1:

    H           -2.731596788923    -0.498874981775     1.307331181375
    C           -2.682826920788    -0.502942181707     0.220680410722
    O           -1.374972794384    -0.385022755071    -0.229486709849
    H           -3.073275904460    -1.442883715768    -0.141067064637
    H           -3.310120601404     0.303687979077    -0.154493123571
    C           -0.738764295232     0.785630397884     0.160811895263
    C            0.693357131131     0.779012789567    -0.311903251183
    H           -1.240579722938     1.656589377307    -0.260674180645
    H           -0.757170440453     0.881995459786     1.245008122599
    O            1.391311709594    -0.259406336507     0.285941352448
    H            0.720507535264     0.704531321448    -1.397581113137
    H            1.140763584464     1.738278499076    -0.047106475656
    C            2.710187780075    -0.377806318405    -0.131437286434
    H            2.773583369148    -0.571660231175    -1.199758353872
    H            3.282137145943     0.521613516236     0.089439885157
    H            3.151315641908    -1.208736770051     0.399341274650

  Mulliken Charges: (a.u.)
   Center  Symbol    Alpha    Beta     Spin     Total
       1     H     0.47077  0.47077  0.00000  0.05846
       2     C     3.03200  3.03200  0.00000 -0.06400
       3     O     4.16822  4.16822  0.00000 -0.33643
       4     H     0.44612  0.44612  0.00000  0.10775
       5     H     0.47367  0.47367  0.00000  0.05265
       6     C     2.96179  2.96179  0.00000  0.07643
       7     C     2.96132  2.96132  0.00000  0.07736
       8     H     0.47576  0.47576  0.00000  0.04848
       9     H     0.47186  0.47186  0.00000  0.05628
      10     O     4.16753  4.16753  0.00000 -0.33505
      11     H     0.47173  0.47173  0.00000  0.05654
      12     H     0.47709  0.47709  0.00000  0.04581
      13     C     3.03216  3.03216  0.00000 -0.06433
      14     H     0.47035  0.47035  0.00000  0.05930
      15     H     0.47357  0.47357  0.00000  0.05287
      16     H     0.44606  0.44606  0.00000  0.10788

   Total alpha = 25.00000, Total beta = 25.00000, Total charge = -0.00000
