  ==> Input File <==

--------------------------------------------------------------------------
set {
	reference rhf
	basis 6-31G*
}

set_num_threads( 4 )
memory 2 gb

molecule MOL {
0 1

H	 1.918377	 -1.396093	 0.784206
O	 2.016064	 -0.864478	 0.000222
C	 1.050492	 0.053836	 0.000068
C	 -0.318135	 -0.576402	 0.000164
O	 1.285279	 1.218255	 -0.000078
C	 -1.454360	 0.441875	 -0.000474
H	 -0.374042	 -1.230163	 -0.866135
H	 -0.374274	 -1.229227	 0.867154
C	 -2.826123	 -0.230780	 0.000056
H	 -1.357605	 1.085198	 -0.868380
H	 -1.357504	 1.086451	 0.866496
H	 -2.959731	 -0.858053	 -0.876869
H	 -3.619374	 0.509403	 -0.000080
H	 -2.959371	 -0.857318	 0.877556

	symmetry c1
}
set optking {
	frozen_dihedral = ("
		1 2 3 5
	")
}

ee = optimize('scf')
oeprop('DIPOLE', 'QUADRUPOLE', 'MULLIKEN_CHARGES')
f=open( 'psi4out.xyz', 'w' )
f.write( "14  " )
f.write( str(ee) + "\n" )
f.write( MOL.save_string_xyz() )
f.close()
--------------------------------------------------------------------------

    Molecular point group: c1
  Charge       = 0
  Multiplicity = 1
  Basis Set: 6-31G*
  Basis Set:
  @DF-RHF Final Energy:  -305.85947457026157
    Total Energy =                       -305.8594745702615683
    Molecular point group: c1
  Basis Set: 6-31G*
  Basis Set:
  Basis Set: 6-31G*
  Basis Set:
  @DF-RHF Final Energy:  -305.86095801970839
    Total Energy =                       -305.8609580197083346
  Basis Set: 6-31G*
  Basis Set:
  Basis Set: 6-31G*
  Basis Set:
  @DF-RHF Final Energy:  -305.86084681374030
    Total Energy =                       -305.8608468137404088
  Basis Set: 6-31G*
  Basis Set:
  Basis Set: 6-31G*
  Basis Set:
  @DF-RHF Final Energy:  -305.86109547815755
    Total Energy =                       -305.8610954781574378
  Basis Set: 6-31G*
  Basis Set:
  Basis Set: 6-31G*
  Basis Set:
  @DF-RHF Final Energy:  -305.86110468150065
    Total Energy =                       -305.8611046815007626
  Basis Set: 6-31G*
  Basis Set:
  Basis Set: 6-31G*
  Basis Set:
  @DF-RHF Final Energy:  -305.86110579398883
    Total Energy =                       -305.8611057939889406
  Basis Set: 6-31G*
  Basis Set:
  Charge       = 0
  Multiplicity = 1
  Basis Set: 6-31G*
  Basis Set:

    Orbital Energies (a.u.)
    -----------------------

    Doubly Occupied:

       1A    -20.599202     2A    -20.559544     3A    -11.381747
       4A    -11.247905     5A    -11.229330     6A    -11.220665
       7A     -1.462000     8A     -1.369624     9A     -1.085507
      10A     -0.977246    11A     -0.851496    12A     -0.806508
      13A     -0.716198    14A     -0.672832    15A     -0.661181
      16A     -0.629566    17A     -0.581324    18A     -0.566189
      19A     -0.546659    20A     -0.506443    21A     -0.496151
      22A     -0.486595    23A     -0.481959    24A     -0.443745

  @DF-RHF Final Energy:  -305.86110592776708

   => Energetics <=

    Nuclear Repulsion Energy =            239.3259091498414080
    One-Electron Energy =                -891.2147937165603935
    Two-Electron Energy =                 346.0277786389519861
    DFT Exchange-Correlation Energy =       0.0000000000000000
    Empirical Dispersion Energy =           0.0000000000000000
    PCM Polarization Energy =               0.0000000000000000
    EFP Energy =                            0.0000000000000000
    Total Energy =                       -305.8611059277669710
    Molecular point group: c1
  Basis Set: 6-31G*
  Basis Set:

  -Total Gradient:
     Atom            X                  Y                   Z
    ------   -----------------  -----------------  -----------------
       1        0.003215928651     0.003670874740     0.002645807389
       2       -0.003980321369    -0.004592815992    -0.001150799456
       3        0.000760138003     0.000777060491    -0.006366389027
       4       -0.000010862168     0.000006557058    -0.000024206875
       5        0.000019445986     0.000135597415     0.004859468802
       6       -0.000019340455    -0.000009306561     0.000029760081
       7        0.000001287606     0.000003826406     0.000007380471
       8       -0.000000930185     0.000008013593     0.000014758856
       9        0.000004771665     0.000000884345    -0.000012558537
      10       -0.000000199083     0.000003098808    -0.000005640842
      11        0.000004252867    -0.000004030878     0.000001134247
      12        0.000001432612    -0.000005187454     0.000001226561
      13        0.000005256924     0.000001047066    -0.000004638159
      14       -0.000000861067     0.000004380965     0.000004696490

  **** Optimization is complete! (in 7 steps) ****
    Final optimized geometry and variables:
    Molecular point group: c1

    Geometry (in Angstrom), charge = 0, multiplicity = 1:

    H            2.044462308411    -1.382580693512     0.800337825678
    O            2.071644016307    -0.846311551973     0.017886716518
    C            1.059090179210     0.055716778625    -0.007532623095
    C           -0.320301368274    -0.563497616219    -0.006636831132
    O            1.279303963736     1.213604469612    -0.048227361634
    C           -1.453896450243     0.457622390018     0.000615886597
    H           -0.379391985926    -1.210716609551    -0.878196133360
    H           -0.394006615344    -1.226001458098     0.854976706808
    C           -2.828812173540    -0.208402589116    -0.009319973339
    H           -1.349804701075     1.107525037591    -0.861027087841
    H           -1.356532220066     1.094253137589     0.873626997203
    H           -2.961981783741    -0.828032321694    -0.891645684845
    H           -3.618149733911     0.535807827534    -0.007144599007
    H           -2.969725354353    -0.840818092502     0.862951364732

  Mulliken Charges: (a.u.)
   Center  Symbol    Alpha    Beta     Spin     Total
       1     H     0.26853  0.26853  0.00000  0.46295
       2     O     4.36445  4.36445  0.00000 -0.72891
       3     C     2.62288  2.62288  0.00000  0.75425
       4     C     3.21653  3.21653  0.00000 -0.43307
       5     O     4.24802  4.24802  0.00000 -0.49604
       6     C     3.15184  3.15184  0.00000 -0.30367
       7     H     0.39701  0.39701  0.00000  0.20598
       8     H     0.41378  0.41378  0.00000  0.17245
       9     C     3.24322  3.24322  0.00000 -0.48643
      10     H     0.40716  0.40716  0.00000  0.18568
      11     H     0.41100  0.41100  0.00000  0.17801
      12     H     0.42022  0.42022  0.00000  0.15956
      13     H     0.41341  0.41341  0.00000  0.17318
      14     H     0.42196  0.42196  0.00000  0.15608

   Total alpha = 24.00000, Total beta = 24.00000, Total charge =  0.00000
