  ==> Input File <==

--------------------------------------------------------------------------
set {
	reference rhf
	basis cc-pvtz
}

set_num_threads( 4 )
memory 2 gb

molecule MOL {
0 1

H	 0.275396	 -3.197515	 -4.261306
C	 0.596360	 -2.655979	 -3.393069
C	 0.000575	 -2.883576	 -2.160562
C	 1.604743	 -1.724808	 -3.482277
H	 -0.788041	 -3.606556	 -2.071587
C	 0.408700	 -2.191984	 -1.045592
H	 2.077696	 -1.534994	 -4.427250
C	 2.029200	 -1.017412	 -2.366106
H	 -0.044998	 -2.360314	 -0.088778
C	 1.428999	 -1.251654	 -1.142600
H	 2.816350	 -0.299546	 -2.468705
O	 1.760432	 -0.625184	 0.000000
C	 2.773565	 0.334879	 0.000000
H	 2.728295	 0.960928	 -0.884150
H	 3.706387	 -0.206610	 0.000000
H	 2.728295	 0.960928	 0.884150

	symmetry c1
}
set optking {
	frozen_dihedral = ("
		10 12 13 14
	")
}

ee = optimize('scf')
oeprop('DIPOLE', 'QUADRUPOLE', 'MULLIKEN_CHARGES')
f=open( 'psi4out.xyz', 'w' )
f.write( "16  " )
f.write( str(ee) + "\n" )
f.write( MOL.save_string_xyz() )
f.close()
--------------------------------------------------------------------------

    Molecular point group: c1
  Charge       = 0
  Multiplicity = 1
  Basis Set: CC-PVTZ
  Basis Set:
  @DF-RHF Final Energy:  -344.70042916382931
    Total Energy =                       -344.7004291638291420
    Molecular point group: c1
  Basis Set: CC-PVTZ
  Basis Set:
  Basis Set: CC-PVTZ
  Basis Set:
  @DF-RHF Final Energy:  -344.70211973139266
    Total Energy =                       -344.7021197313929406
  Basis Set: CC-PVTZ
  Basis Set:
  Basis Set: CC-PVTZ
  Basis Set:
  @DF-RHF Final Energy:  -344.70269968645704
    Total Energy =                       -344.7026996864570947
  Basis Set: CC-PVTZ
  Basis Set:
  Basis Set: CC-PVTZ
  Basis Set:
  @DF-RHF Final Energy:  -344.70275730477022
    Total Energy =                       -344.7027573047702163
  Basis Set: CC-PVTZ
  Basis Set:
  Basis Set: CC-PVTZ
  Basis Set:
  @DF-RHF Final Energy:  -344.70276634205146
    Total Energy =                       -344.7027663420516888
  Basis Set: CC-PVTZ
  Basis Set:
  Charge       = 0
  Multiplicity = 1
  Basis Set: CC-PVTZ
  Basis Set:

    Orbital Energies (a.u.)
    -----------------------

    Doubly Occupied:

       1A    -20.579061     2A    -11.293445     3A    -11.278300
       4A    -11.231327     5A    -11.230035     6A    -11.221999
       7A    -11.218106     8A    -11.217195     9A     -1.418439
      10A     -1.151005    11A     -1.025398    12A     -1.016758
      13A     -0.943904    14A     -0.834847    15A     -0.808449
      16A     -0.725809    17A     -0.667819    18A     -0.666516
      19A     -0.658858    20A     -0.619233    21A     -0.590767
      22A     -0.580881    23A     -0.527776    24A     -0.522723
      25A     -0.512469    26A     -0.480824    27A     -0.464293
      28A     -0.339736    29A     -0.310525

  @DF-RHF Final Energy:  -344.70276781868904

   => Energetics <=

    Nuclear Repulsion Energy =            348.8114340315945583
    One-Electron Energy =               -1158.7554133639039264
    Two-Electron Energy =                 465.2412115136202715
    DFT Exchange-Correlation Energy =       0.0000000000000000
    Empirical Dispersion Energy =           0.0000000000000000
    PCM Polarization Energy =               0.0000000000000000
    EFP Energy =                            0.0000000000000000
    Total Energy =                       -344.7027678186890967
    Molecular point group: c1
  Basis Set: CC-PVTZ
  Basis Set:

  -Total Gradient:
     Atom            X                  Y                   Z
    ------   -----------------  -----------------  -----------------
       1       -0.000009099443    -0.000010378401     0.000010886729
       2        0.000108055960     0.000094207092    -0.000087899126
       3       -0.000008764508     0.000012738442     0.000183400204
       4       -0.000105093666    -0.000114490818    -0.000071559838
       5       -0.000005772385    -0.000003061866    -0.000011516722
       6       -0.000122629998    -0.000143402758    -0.000119373437
       7        0.000007957506     0.000009958194     0.000010516487
       8        0.000005021241     0.000010282441     0.000197496120
       9        0.000002067767     0.000012808821     0.000001755471
      10       -0.001674411425     0.001516781928    -0.000097093145
      11        0.000008315776     0.000035929939     0.000007971388
      12        0.003108309911    -0.002446658063    -0.000405370462
      13       -0.002941162754     0.002230944449     0.002010966672
      14        0.001603558376    -0.001219269022    -0.001645466398
      15        0.000001733267     0.000010306943     0.000017715940
      16        0.000021914375     0.000003302681    -0.000002429888

  **** Optimization is complete! (in 6 steps) ****
    Final optimized geometry and variables:
    Molecular point group: c1

    Geometry (in Angstrom), charge = 0, multiplicity = 1:

    H           -1.198208531331    -1.659838306168    -2.643413127751
    C           -0.834787154267    -1.156491903990    -1.768912608839
    C           -1.433786726394    -1.367282609925    -0.535509896935
    C            0.234081237353    -0.293914794287    -1.851340222828
    H           -2.268110016467    -2.037764480481    -0.452393243943
    C           -0.973289443031    -0.722270899837     0.587713505934
    H            0.714113443195    -0.122819021699    -2.796305425519
    C            0.713360934964     0.361891370738    -0.726643304171
    H           -1.430166239455    -0.876535827269     1.545376756953
    C            0.104402092658     0.151221895824     0.496881264457
    H            1.555439458523     1.016864481271    -0.818442952961
    O            0.501334564205     0.723177157110     1.647814376797
    C            1.347023864551     1.835678848908     1.623849259841
    H            1.081437319034     2.522130894097     0.829492434394
    H            2.381504609652     1.536776857786     1.489890863868
    H            1.244845971509     2.326873534086     2.578777874884

  Mulliken Charges: (a.u.)
   Center  Symbol    Alpha    Beta     Spin     Total
       1     H     0.42439  0.42439  0.00000  0.15122
       2     C     3.10026  3.10026  0.00000 -0.20052
       3     C     3.05848  3.05848  0.00000 -0.11696
       4     C     3.06221  3.06221  0.00000 -0.12443
       5     H     0.42295  0.42295  0.00000  0.15409
       6     C     3.11059  3.11059  0.00000 -0.22119
       7     H     0.42337  0.42337  0.00000  0.15325
       8     C     3.14050  3.14050  0.00000 -0.28099
       9     H     0.42054  0.42054  0.00000  0.15891
      10     C     2.85271  2.85271  0.00000  0.29458
      11     H     0.42293  0.42293  0.00000  0.15414
      12     O     4.15352  4.15352  0.00000 -0.30703
      13     C     3.04362  3.04362  0.00000 -0.08723
      14     H     0.46362  0.46362  0.00000  0.07276
      15     H     0.46014  0.46014  0.00000  0.07971
      16     H     0.44016  0.44016  0.00000  0.11967

   Total alpha = 29.00000, Total beta = 29.00000, Total charge = -0.00000
