  ==> Input File <==

--------------------------------------------------------------------------
set {
	reference rhf
	basis 6-31G*
}

set_num_threads( 4 )
memory 2 gb

molecule MOL {
0 1

O	 2.775749	 -0.397532	 0.057848
C	 1.705091	 0.115954	 0.001797
C	 0.381791	 -0.609817	 0.001258
O	 1.532568	 1.430065	 -0.065176
C	 -0.823008	 0.326187	 0.001381
H	 0.371250	 -1.265087	 -0.865474
H	 0.370908	 -1.265746	 0.867490
C	 -2.149452	 -0.435131	 -0.000098
H	 -0.770201	 0.977095	 -0.865636
H	 -0.771220	 0.975655	 0.869608
C	 -3.368779	 0.488503	 -0.000883
H	 -2.193746	 -1.087250	 -0.871175
H	 -2.195311	 -1.087803	 0.870418
C	 -4.693822	 -0.272754	 -0.001129
H	 -3.325798	 1.139422	 -0.871284
H	 -3.326423	 1.139959	 0.869145
H	 -4.781274	 -0.907928	 -0.878124
H	 -5.538651	 0.408946	 -0.001420
H	 -4.781694	 -0.907783	 0.875984
C	 2.699546	 2.231994	 -0.070402
H	 3.269639	 2.079291	 0.834697
H	 2.355778	 3.252960	 -0.128098
H	 3.318714	 1.996520	 -0.924034

	symmetry c1
}
set optking {
	frozen_dihedral = ("
		1 2 3 6
	")
}

ee = optimize('scf')
oeprop('DIPOLE', 'QUADRUPOLE', 'MULLIKEN_CHARGES')
f=open( 'psi4out.xyz', 'w' )
f.write( "23  " )
f.write( str(ee) + "\n" )
f.write( MOL.save_string_xyz() )
f.close()
--------------------------------------------------------------------------

    Molecular point group: c1
  Charge       = 0
  Multiplicity = 1
  Basis Set: 6-31G*
  Basis Set:
  @DF-RHF Final Energy:  -422.97221064204666
    Total Energy =                       -422.9722106420464343
    Molecular point group: c1
  Basis Set: 6-31G*
  Basis Set:
  Basis Set: 6-31G*
  Basis Set:
  @DF-RHF Final Energy:  -422.97320250527025
    Total Energy =                       -422.9732025052702511
  Basis Set: 6-31G*
  Basis Set:
  Basis Set: 6-31G*
  Basis Set:
  @DF-RHF Final Energy:  -422.97361721612498
    Total Energy =                       -422.9736172161246941
  Basis Set: 6-31G*
  Basis Set:
  Basis Set: 6-31G*
  Basis Set:
  @DF-RHF Final Energy:  -422.97353613378476
    Total Energy =                       -422.9735361337847053
  Basis Set: 6-31G*
  Basis Set:
  Basis Set: 6-31G*
  Basis Set:
  @DF-RHF Final Energy:  -422.97367655790407
    Total Energy =                       -422.9736765579044686
  Basis Set: 6-31G*
  Basis Set:
  Basis Set: 6-31G*
  Basis Set:
  @DF-RHF Final Energy:  -422.97367853512787
    Total Energy =                       -422.9736785351281014
  Basis Set: 6-31G*
  Basis Set:
  Charge       = 0
  Multiplicity = 1
  Basis Set: 6-31G*
  Basis Set:

    Orbital Energies (a.u.)
    -----------------------

    Doubly Occupied:

       1A    -20.606655     2A    -20.539958     3A    -11.372432
       4A    -11.281643     5A    -11.235737     6A    -11.223075
       7A    -11.220101     8A    -11.219018     9A    -11.211478
      10A     -1.470254    11A     -1.360684    12A     -1.095672
      13A     -1.044492    14A     -0.983010    15A     -0.936297
      16A     -0.848105    17A     -0.797115    18A     -0.774568
      19A     -0.692662    20A     -0.684546    21A     -0.669503
      22A     -0.653322    23A     -0.610310    24A     -0.592182
      25A     -0.576854    26A     -0.560488    27A     -0.558129
      28A     -0.522723    29A     -0.521555    30A     -0.506948
      31A     -0.488540    32A     -0.481315    33A     -0.469760
      34A     -0.469258    35A     -0.451163    36A     -0.425124

  @DF-RHF Final Energy:  -422.97367857596697

   => Energetics <=

    Nuclear Repulsion Energy =            455.0980976093225649
    One-Electron Energy =               -1477.8342023089144277
    Two-Electron Energy =                 599.7624261236248913
    DFT Exchange-Correlation Energy =       0.0000000000000000
    Empirical Dispersion Energy =           0.0000000000000000
    PCM Polarization Energy =               0.0000000000000000
    EFP Energy =                            0.0000000000000000
    Total Energy =                       -422.9736785759669147
    Molecular point group: c1
  Basis Set: 6-31G*
  Basis Set:

  -Total Gradient:
     Atom            X                  Y                   Z
    ------   -----------------  -----------------  -----------------
       1       -0.000017713724    -0.000001635350    -0.000189932755
       2        0.000032009442    -0.000053021541     0.000288116549
       3       -0.000081383342     0.000168935359    -0.000200945783
       4        0.000011269211     0.000034962884    -0.000002640326
       5       -0.000001692773     0.000006210194    -0.000004209630
       6        0.000070994127    -0.000135576218     0.000099972160
       7        0.000001608565     0.000000440070    -0.000000011656
       8       -0.000000144068    -0.000007925375     0.000005016973
       9       -0.000000115307     0.000000460694     0.000001254567
      10        0.000004201582    -0.000001223534     0.000003110169
      11        0.000004495529     0.000000707989    -0.000005334636
      12        0.000000458865    -0.000001391520     0.000000956209
      13       -0.000003119606    -0.000000909535     0.000002196651
      14        0.000001590296    -0.000000841947     0.000000578040
      15       -0.000000681009     0.000001580429    -0.000000524853
      16       -0.000000851923    -0.000000989159    -0.000000686662
      17       -0.000000025444     0.000001000605     0.000000268062
      18       -0.000000138406     0.000000285462     0.000000658693
      19        0.000000623487    -0.000000330357    -0.000000908547
      20       -0.000026916548    -0.000010040698     0.000005308042
      21        0.000000870514    -0.000001609409     0.000000256773
      22        0.000005176867     0.000004569441    -0.000000819168
      23       -0.000000516341    -0.000003658483    -0.000001678874

  **** Optimization is complete! (in 7 steps) ****
    Final optimized geometry and variables:
    Molecular point group: c1

    Geometry (in Angstrom), charge = 0, multiplicity = 1:

    O            2.915852614931    -0.769656690674     0.082720496116
    C            1.886457115326    -0.176760372751     0.015915813192
    C            0.537014901622    -0.861802454714     0.004274916097
    O            1.817016656149     1.142695950931    -0.064501556477
    C           -0.697781147736     0.037798990305     0.008776216101
    H            0.538727999484    -1.508644891751    -0.868736306439
    H            0.533551267216    -1.528451992659     0.861175158528
    C           -1.995167785148    -0.772949042345     0.007144010886
    H           -0.674889387639     0.692144665827    -0.856867748091
    H           -0.673367149697     0.684827440437     0.880502123822
    C           -3.248661912650     0.103715624474     0.010035382133
    H           -2.015167018818    -1.423833563119    -0.865566090847
    H           -2.014643365410    -1.428984366507     0.875932477521
    C           -4.543793425166    -0.707430600508     0.008139629293
    H           -3.231395995582     0.758531471278    -0.858431730601
    H           -3.230869388143     0.753504148047     0.882267711932
    H           -4.607466574786    -1.342714455636    -0.870780452147
    H           -5.413949515304    -0.058431856059     0.010491740938
    H           -4.606696444252    -1.348045840829     0.883232526161
    C            3.044479801280     1.849917919332    -0.067341168443
    H            3.593363474299     1.659394824513     0.843393666475
    H            2.782523230122     2.894187181093    -0.136295635102
    H            3.648155758007     1.557083906543    -0.914019196731

  Mulliken Charges: (a.u.)
   Center  Symbol    Alpha    Beta     Spin     Total
       1     O     4.28950  4.28950  0.00000 -0.57900
       2     C     2.60368  2.60368  0.00000  0.79263
       3     C     3.21262  3.21262  0.00000 -0.42525
       4     O     4.30454  4.30454  0.00000 -0.60908
       5     C     3.15088  3.15088  0.00000 -0.30176
       6     H     0.39835  0.39835  0.00000  0.20329
       7     H     0.39799  0.39799  0.00000  0.20401
       8     C     3.15398  3.15398  0.00000 -0.30796
       9     H     0.41371  0.41371  0.00000  0.17259
      10     H     0.41509  0.41509  0.00000  0.16981
      11     C     3.15148  3.15148  0.00000 -0.30295
      12     H     0.42301  0.42301  0.00000  0.15398
      13     H     0.42284  0.42284  0.00000  0.15431
      14     C     3.23961  3.23961  0.00000 -0.47922
      15     H     0.42200  0.42200  0.00000  0.15600
      16     H     0.42201  0.42201  0.00000  0.15599
      17     H     0.42133  0.42133  0.00000  0.15735
      18     H     0.41847  0.41847  0.00000  0.16306
      19     H     0.42129  0.42129  0.00000  0.15742
      20     C     3.09275  3.09275  0.00000 -0.18550
      21     H     0.40811  0.40811  0.00000  0.18377
      22     H     0.40857  0.40857  0.00000  0.18286
      23     H     0.40818  0.40818  0.00000  0.18364

   Total alpha = 36.00000, Total beta = 36.00000, Total charge =  0.00000
