                              Psi4 1.0.54 Driver

  ==> Input File <==

--------------------------------------------------------------------------
set {
	reference rhf
	basis cc-pvtz
}

set_num_threads( 4 )
memory 2 gb

molecule MOL {
0 1

H	 1.507624	 -0.835948	 2.258247
O	 0.827822	 -0.283455	 1.919612
C	 1.135873	 0.113391	 0.608264
C	 0.027642	 1.012027	 0.090274
H	 1.220173	 -0.755313	 -0.039821
H	 2.090986	 0.630682	 0.583133
C	 -1.138737	 0.285728	 -0.581921
H	 0.464661	 1.708096	 -0.618252
H	 -0.340737	 1.603071	 0.925246
C	 -1.933983	 -0.631436	 0.343653
H	 -0.763151	 -0.285569	 -1.422081
H	 -1.808359	 1.035291	 -0.992333
H	 -2.789188	 -1.049673	 -0.174718
H	 -1.335629	 -1.461368	 0.700418
H	 -2.305435	 -0.092167	 1.209725

	symmetry c1
}
set optking {
	frozen_dihedral = ("
		2 3 4 8
	")
}

ee,wfn = optimize('scf', return_wfn=True)
oeprop( wfn, 'DIPOLE', 'QUADRUPOLE', 'MULLIKEN_CHARGES')
f=open( 'psi4out.xyz', 'w' )
f.write( "15  " )
f.write( str(ee) + "\n" )
f.write( MOL.save_string_xyz() )
f.close()
--------------------------------------------------------------------------

    Molecular point group: c1
  Charge       = 0
  Multiplicity = 1
  Basis Set: CC-PVTZ
  Basis Set:
  @DF-RHF Final Energy:  -232.23499297067224
    Total Energy =                       -232.2349929706722946
    Molecular point group: c1
  Basis Set: CC-PVTZ
  Basis Set:
  Basis Set: CC-PVTZ
  Basis Set:
  @DF-RHF Final Energy:  -232.23526341864709
    Total Energy =                       -232.2352634186471505
  Basis Set: CC-PVTZ
  Basis Set:
  Basis Set: CC-PVTZ
  Basis Set:
  @DF-RHF Final Energy:  -232.23530113086827
    Total Energy =                       -232.2353011308680948
  Basis Set: CC-PVTZ
  Basis Set:
  Basis Set: CC-PVTZ
  Basis Set:
  @DF-RHF Final Energy:  -232.23530413363645
    Total Energy =                       -232.2353041336363049
  Basis Set: CC-PVTZ
  Basis Set:
  Charge       = 0
  Multiplicity = 1
  Basis Set: CC-PVTZ
  Basis Set:

    Orbital Energies (a.u.)
    -----------------------

    Doubly Occupied:

       1A    -20.546365     2A    -11.266533     3A    -11.211404
       4A    -11.210629     5A    -11.197487     6A     -1.363886
       7A     -1.065140     8A     -0.970423     9A     -0.865535
      10A     -0.780690    11A     -0.705158    12A     -0.648620
      13A     -0.608677    14A     -0.575502    15A     -0.555699
      16A     -0.541042    17A     -0.505225    18A     -0.476805
      19A     -0.468070    20A     -0.455646    21A     -0.429350

  @DF-RHF Final Energy:  -232.23530449260502

   => Energetics <=

    Nuclear Repulsion Energy =            192.1675559039350389
    One-Electron Energy =                -695.9099451576419142
    Two-Electron Energy =                 271.5070847611019076
    DFT Exchange-Correlation Energy =       0.0000000000000000
    Empirical Dispersion Energy =           0.0000000000000000
    PCM Polarization Energy =               0.0000000000000000
    EFP Energy =                            0.0000000000000000
    Total Energy =                       -232.2353044926049392
    Molecular point group: c1
  Basis Set: CC-PVTZ
  Basis Set:

  -Total Gradient:
     Atom            X                  Y                   Z
    ------   -----------------  -----------------  -----------------
       1       -0.000004471169     0.000005803277     0.000006077461
       2        0.000949101034     0.001617455292     0.000708755537
       3       -0.001135914709    -0.001743562858    -0.000562037893
       4       -0.000284154353    -0.001604768386    -0.002192478507
       5       -0.000010276172     0.000010936638     0.000014293387
       6       -0.000001515164    -0.000007457337     0.000023723002
       7        0.000055254421     0.000036060283     0.000017763298
       8        0.000417089603     0.001656944129     0.001922941891
       9       -0.000015515424     0.000012606542     0.000029863292
      10        0.000008695255    -0.000029820874    -0.000008565747
      11        0.000007573265     0.000012937589     0.000012382721
      12        0.000013786280    -0.000003792328     0.000005229828
      13        0.000019564054     0.000015849725     0.000016018512
      14       -0.000004203852     0.000006655837    -0.000010495994
      15       -0.000015013065     0.000014152469     0.000016529210

  **** Optimization is complete! (in 5 steps) ****
    Final optimized geometry and variables:
    Molecular point group: c1

    Geometry (in Angstrom), charge = 0, multiplicity = 1:

    H            1.700502176278    -0.930109012838     1.717919343009
    O            1.025840380432    -0.360270416131     1.397574820985
    C            1.328171381823     0.055569295425     0.089363764405
    C            0.204443870848     0.940634222863    -0.434596947482
    H            1.469392410389    -0.803170634300    -0.563627380352
    H            2.257703863551     0.618393397393     0.092797767149
    C           -0.959067071130     0.208354989317    -1.103019879753
    H            0.630957217188     1.650423264055    -1.136579364925
    H           -0.160075062963     1.530092177390     0.401072300139
    C           -1.756170467793    -0.709798213016    -0.180211780443
    H           -0.579528616983    -0.366299608141    -1.944291842483
    H           -1.629450239132     0.950961253382    -1.525118796733
    H           -2.583581184851    -1.161922017227    -0.715887957140
    H           -1.142194878130    -1.504010859184     0.223403321408
    H           -2.163275996893    -0.157631081901     0.659637912101

  Mulliken Charges: (a.u.)
   Center  Symbol    Alpha    Beta     Spin     Total
       1     H     0.39542  0.39542  0.00000  0.20917
       2     O     4.19920  4.19920  0.00000 -0.39841
       3     C     2.97910  2.97910  0.00000  0.04181
       4     C     3.09530  3.09530  0.00000 -0.19059
       5     H     0.47128  0.47128  0.00000  0.05744
       6     H     0.46130  0.46130  0.00000  0.07739
       7     C     3.09208  3.09208  0.00000 -0.18416
       8     H     0.44794  0.44794  0.00000  0.10413
       9     H     0.45035  0.45035  0.00000  0.09930
      10     C     3.13973  3.13973  0.00000 -0.27947
      11     H     0.45753  0.45753  0.00000  0.08493
      12     H     0.45069  0.45069  0.00000  0.09863
      13     H     0.45224  0.45224  0.00000  0.09552
      14     H     0.45316  0.45316  0.00000  0.09369
      15     H     0.45469  0.45469  0.00000  0.09063

   Total alpha = 21.00000, Total beta = 21.00000, Total charge = -0.00000

*** Psi4 exiting successfully. Buy a developer a beer!
