                              Psi4 1.0.54 Driver

  ==> Input File <==

--------------------------------------------------------------------------
set {
	reference rhf
	basis cc-pvtz
}

set_num_threads( 4 )
memory 2 gb

molecule MOL {
0 1

H	 3.721907	 -0.933076	 -0.066039
O	 2.824271	 -1.154299	 0.131461
C	 2.076458	 -0.067370	 -0.038225
C	 0.626018	 -0.337582	 0.258241
O	 2.538288	 0.965419	 -0.381593
C	 -0.267326	 0.883135	 0.076490
H	 0.325620	 -1.161483	 -0.378003
H	 0.574537	 -0.713685	 1.275261
C	 -1.726822	 0.642622	 0.463839
H	 -0.210803	 1.217591	 -0.953497
H	 0.129920	 1.693110	 0.675679
C	 -2.236626	 1.490871	 1.627718
H	 -1.836600	 -0.405315	 0.726576
H	 -2.363320	 0.803298	 -0.403628
C	 -3.662048	 1.133827	 2.036580
H	 -1.574613	 1.361423	 2.479784
H	 -2.199061	 2.544134	 1.368523
H	 -3.998417	 1.747496	 2.864196
H	 -3.732361	 0.095877	 2.343847
H	 -4.353404	 1.281116	 1.213483

	symmetry c1
}
set optking {
	frozen_dihedral = ("
		12 9 6 10
	")
}

ee,wfn = optimize('scf', return_wfn=True)
oeprop( wfn, 'DIPOLE', 'QUADRUPOLE', 'MULLIKEN_CHARGES')
f=open( 'psi4out.xyz', 'w' )
f.write( "20  " )
f.write( str(ee) + "\n" )
f.write( MOL.save_string_xyz() )
f.close()
--------------------------------------------------------------------------

    Molecular point group: c1
  Charge       = 0
  Multiplicity = 1
  Basis Set: CC-PVTZ
  Basis Set:
  @DF-RHF Final Energy:  -384.09058161981102
    Total Energy =                       -384.0905816198111893
    Molecular point group: c1
  Basis Set: CC-PVTZ
  Basis Set:
  Basis Set: CC-PVTZ
  Basis Set:
  @DF-RHF Final Energy:  -384.09079911944207
    Total Energy =                       -384.0907991194417264
  Basis Set: CC-PVTZ
  Basis Set:
  Basis Set: CC-PVTZ
  Basis Set:
  @DF-RHF Final Energy:  -384.09115087841849
    Total Energy =                       -384.0911508784183184
  Basis Set: CC-PVTZ
  Basis Set:
  Basis Set: CC-PVTZ
  Basis Set:
  @DF-RHF Final Energy:  -384.09019252000815
    Total Energy =                       -384.0901925200083156
  Basis Set: CC-PVTZ
  Basis Set:
  Basis Set: CC-PVTZ
  Basis Set:
  @DF-RHF Final Energy:  -384.09119747497311
    Total Energy =                       -384.0911974749731144
  Basis Set: CC-PVTZ
  Basis Set:
  Basis Set: CC-PVTZ
  Basis Set:
  @DF-RHF Final Energy:  -384.09120156162726
    Total Energy =                       -384.0912015616271447
  Basis Set: CC-PVTZ
  Basis Set:
  Basis Set: CC-PVTZ
  Basis Set:
  @DF-RHF Final Energy:  -384.09120275870373
    Total Energy =                       -384.0912027587039574
  Basis Set: CC-PVTZ
  Basis Set:
  Charge       = 0
  Multiplicity = 1
  Basis Set: CC-PVTZ
  Basis Set:

    Orbital Energies (a.u.)
    -----------------------

    Doubly Occupied:

       1A    -20.603942     2A    -20.540626     3A    -11.373304
       4A    -11.239659     5A    -11.220502     6A    -11.218165
       7A    -11.217468     8A    -11.209465     9A     -1.477497
      10A     -1.369032    11A     -1.095367    12A     -1.043637
      13A     -0.959531    14A     -0.870459    15A     -0.808467
      16A     -0.789473    17A     -0.703733    18A     -0.691691
      19A     -0.666773    20A     -0.636334    21A     -0.603595
      22A     -0.595771    23A     -0.571647    24A     -0.560141
      25A     -0.543629    26A     -0.504113    27A     -0.498348
      28A     -0.484384    29A     -0.473434    30A     -0.468218
      31A     -0.457866    32A     -0.444061

  @DF-RHF Final Energy:  -384.09120276018939

   => Energetics <=

    Nuclear Repulsion Energy =            373.4192018555008872
    One-Electron Energy =               -1263.1401417528982165
    Two-Electron Energy =                 505.6297371372076555
    DFT Exchange-Correlation Energy =       0.0000000000000000
    Empirical Dispersion Energy =           0.0000000000000000
    PCM Polarization Energy =               0.0000000000000000
    EFP Energy =                            0.0000000000000000
    Total Energy =                       -384.0912027601896739
    Molecular point group: c1
  Basis Set: CC-PVTZ
  Basis Set:

  -Total Gradient:
     Atom            X                  Y                   Z
    ------   -----------------  -----------------  -----------------
       1        0.000010856553    -0.000012808741     0.000000934217
       2        0.000011972457     0.000021537728    -0.000003152489
       3       -0.000009664893     0.000009131922    -0.000012837251
       4       -0.000002827859    -0.000008149774     0.000001804695
       5        0.000001409245    -0.000021673524     0.000009578421
       6       -0.000027169129    -0.000332173116    -0.000200549159
       7        0.000001203413    -0.000000895664     0.000004338930
       8       -0.000000777493    -0.000004033827     0.000004765601
       9        0.000105079831    -0.000152015452     0.000231609685
      10       -0.000036199630     0.000312467824     0.000100002999
      11       -0.000017161140     0.000001768420     0.000008556870
      12       -0.000056014532     0.000175677527    -0.000119926797
      13        0.000035474542    -0.000006392208    -0.000002429152
      14       -0.000006780724     0.000001430106    -0.000021479438
      15       -0.000000364299     0.000015053877    -0.000010886842
      16        0.000003368060    -0.000010846010     0.000007188643
      17        0.000001653167     0.000013282786     0.000005526258
      18       -0.000001373681     0.000004677546     0.000001030609
      19        0.000002859697    -0.000008695361     0.000003367366
      20       -0.000015543581     0.000002655942    -0.000007443165

  **** Optimization is complete! (in 8 steps) ****
    Final optimized geometry and variables:
    Molecular point group: c1

    Geometry (in Angstrom), charge = 0, multiplicity = 1:

    H            3.599060896636    -1.490048355274    -0.663973108219
    O            2.692945690863    -1.676229339880    -0.468917820652
    C            1.999580908624    -0.545771837287    -0.571737642673
    C            0.539842315759    -0.757672540330    -0.273846720075
    O            2.509422249659     0.480191530465    -0.864271604993
    C           -0.300331686194     0.507657575647    -0.386033266809
    H            0.184236081952    -1.528573234301    -0.949495049442
    H            0.476144389305    -1.185385827384     0.721711244492
    C           -1.786676222682     0.268819491125    -0.051350349782
    H           -0.196395705054     0.910381858617    -1.385091033772
    H            0.112944062831     1.258842000619     0.275554194680
    C           -2.273571635805     1.062173197816     1.159535610485
    H           -1.962871126639    -0.787896709310     0.129687319283
    H           -2.400628892135     0.527093423517    -0.907939631718
    C           -3.742021934839     0.816151787812     1.486455592188
    H           -1.663411875870     0.808745524774     2.022768338527
    H           -2.115712543866     2.121362485650     0.977617839975
    H           -4.054783792985     1.395383851932     2.347501311996
    H           -3.924397056105    -0.230305275707     1.707929211776
    H           -4.379728498791     1.092003911480     0.653129007015

  Mulliken Charges: (a.u.)
   Center  Symbol    Alpha    Beta     Spin     Total
       1     H     0.38236  0.38236  0.00000  0.23528
       2     O     4.16018  4.16018  0.00000 -0.32037
       3     C     2.80699  2.80699  0.00000  0.38601
       4     C     3.10932  3.10932  0.00000 -0.21865
       5     O     4.19115  4.19115  0.00000 -0.38230
       6     C     3.09371  3.09371  0.00000 -0.18741
       7     H     0.43642  0.43642  0.00000  0.12716
       8     H     0.43742  0.43742  0.00000  0.12515
       9     C     3.09607  3.09607  0.00000 -0.19215
      10     H     0.44053  0.44053  0.00000  0.11895
      11     H     0.44548  0.44548  0.00000  0.10905
      12     C     3.08252  3.08252  0.00000 -0.16504
      13     H     0.45625  0.45625  0.00000  0.08749
      14     H     0.44730  0.44730  0.00000  0.10541
      15     C     3.15059  3.15059  0.00000 -0.30119
      16     H     0.45467  0.45467  0.00000  0.09065
      17     H     0.45138  0.45138  0.00000  0.09723
      18     H     0.44776  0.44776  0.00000  0.10447
      19     H     0.45527  0.45527  0.00000  0.08945
      20     H     0.45460  0.45460  0.00000  0.09080

   Total alpha = 32.00000, Total beta = 32.00000, Total charge =  0.00000

*** Psi4 exiting successfully. Buy a developer a beer!
