                              Psi4 1.0.54 Driver

  ==> Input File <==

--------------------------------------------------------------------------
set {
	reference rhf
	basis cc-pvtz
}

set_num_threads( 4 )
memory 2 gb

molecule MOL {
0 1

H	 1.937851	 -1.342317	 -1.020640
C	 1.117196	 -0.676511	 -1.228146
O	 0.462329	 -0.453336	 -0.000137
H	 0.453255	 -1.143027	 -1.944919
H	 1.504175	 0.248180	 -1.637332
C	 -0.590565	 0.341382	 0.000062
O	 -1.693898	 -0.053880	 0.000252
H	 -0.340426	 1.403822	 0.000200

	symmetry c1
}
set optking {
	frozen_dihedral = ("
		2 3 6 7
	")
}

ee,wfn = optimize('scf', return_wfn=True)
oeprop( wfn, 'DIPOLE', 'QUADRUPOLE', 'MULLIKEN_CHARGES')
f=open( 'psi4out.xyz', 'w' )
f.write( "8  " )
f.write( str(ee) + "\n" )
f.write( MOL.save_string_xyz() )
f.close()
--------------------------------------------------------------------------

    Molecular point group: c1
  Charge       = 0
  Multiplicity = 1
  Basis Set: CC-PVTZ
  Basis Set:
  @DF-RHF Final Energy:  -227.85909153774855
    Total Energy =                       -227.8590915377486112
    Molecular point group: c1
  Basis Set: CC-PVTZ
  Basis Set:
  Basis Set: CC-PVTZ
  Basis Set:
  @DF-RHF Final Energy:  -227.85916985775739
    Total Energy =                       -227.8591698577573652
  Basis Set: CC-PVTZ
  Basis Set:
  Basis Set: CC-PVTZ
  Basis Set:
  @DF-RHF Final Energy:  -227.85924887139709
    Total Energy =                       -227.8592488713970852
  Basis Set: CC-PVTZ
  Basis Set:
  Basis Set: CC-PVTZ
  Basis Set:
  @DF-RHF Final Energy:  -227.85951983363367
    Total Energy =                       -227.8595198336335557
  Basis Set: CC-PVTZ
  Basis Set:
  Basis Set: CC-PVTZ
  Basis Set:
  @DF-RHF Final Energy:  -227.85956630825001
    Total Energy =                       -227.8595663082500096
  Basis Set: CC-PVTZ
  Basis Set:
  Charge       = 0
  Multiplicity = 1
  Basis Set: CC-PVTZ
  Basis Set:

    Orbital Energies (a.u.)
    -----------------------

    Doubly Occupied:

       1A    -20.591145     2A    -20.563119     3A    -11.376508
       4A    -11.298173     5A     -1.473750     6A     -1.386109
       7A     -0.986368     8A     -0.837851     9A     -0.740557
      10A     -0.691149    11A     -0.670415    12A     -0.627748
      13A     -0.565630    14A     -0.515709    15A     -0.476683
      16A     -0.461175

  @DF-RHF Final Energy:  -227.85956701196386

   => Energetics <=

    Nuclear Repulsion Energy =            121.9532685400803729
    One-Electron Energy =                -553.1014906899929429
    Two-Electron Energy =                 203.2886551379485525
    DFT Exchange-Correlation Energy =       0.0000000000000000
    Empirical Dispersion Energy =           0.0000000000000000
    PCM Polarization Energy =               0.0000000000000000
    EFP Energy =                            0.0000000000000000
    Total Energy =                       -227.8595670119640033
    Molecular point group: c1
  Basis Set: CC-PVTZ
  Basis Set:

  -Total Gradient:
     Atom            X                  Y                   Z
    ------   -----------------  -----------------  -----------------
       1       -0.000004565115    -0.000010484599     0.000009981692
       2       -0.000937626625    -0.001270308688    -0.000372488435
       3        0.001411012697     0.001919497487    -0.000595817400
       4       -0.000023417341     0.000002589246     0.000032403175
       5       -0.000016667976     0.000009403893     0.000010486860
       6       -0.000440265670    -0.000650053928     0.003085779771
       7        0.000014873381     0.000014988004    -0.002170361396
       8       -0.000003343343    -0.000015631414     0.000000015735

  **** Optimization is complete! (in 6 steps) ****
    Final optimized geometry and variables:
    Molecular point group: c1

    Geometry (in Angstrom), charge = 0, multiplicity = 1:

    H            2.141246904599    -1.084047143298    -0.696367406182
    C            1.280842827065    -0.466607060329    -0.893296399458
    O            0.625667797684    -0.275286878333     0.343107821551
    H            0.625016534802    -0.966079521320    -1.594128113316
    H            1.608942213234     0.479275345413    -1.311967968055
    C           -0.421754677738     0.556455045352     0.325013505360
    O           -1.537449715073     0.205597380661     0.287537285870
    H           -0.133580378053     1.607069654439     0.360115048802

  Mulliken Charges: (a.u.)
   Center  Symbol    Alpha    Beta     Spin     Total
       1     H     0.44332  0.44332  0.00000  0.11336
       2     C     3.02280  3.02280  0.00000 -0.04560
       3     O     4.15156  4.15156  0.00000 -0.30312
       4     H     0.45511  0.45511  0.00000  0.08978
       5     H     0.46721  0.46721  0.00000  0.06558
       6     C     2.83156  2.83156  0.00000  0.33689
       7     O     4.16106  4.16106  0.00000 -0.32212
       8     H     0.46739  0.46739  0.00000  0.06523

   Total alpha = 16.00000, Total beta = 16.00000, Total charge = -0.00000

*** Psi4 exiting successfully. Buy a developer a beer!
