  ==> Input File <==

--------------------------------------------------------------------------
set {
	reference rhf
	basis 6-31G*
}

set_num_threads( 1 )
memory 2 gb

molecule MOL {
0 1

H	 3.654866	 -0.813532	 1.079875
O	 2.783023	 -1.088900	 0.813757
C	 2.029793	 0.001735	 0.673842
C	 0.624473	 -0.343591	 0.253101
O	 2.456765	 1.093089	 0.867895
C	 -0.265902	 0.883932	 0.072916
H	 0.701083	 -0.929458	 -0.656989
H	 0.219369	 -1.015488	 1.005562
C	 -1.728698	 0.646073	 0.462102
H	 -0.209144	 1.219470	 -0.958188
H	 0.135059	 1.692851	 0.673903
C	 -2.482460	 -0.343073	 -0.431425
H	 -2.245265	 1.602650	 0.432430
H	 -1.779332	 0.308348	 1.496285
C	 -3.960546	 -0.461025	 -0.060175
H	 -2.395034	 -0.026811	 -1.468912
H	 -2.024850	 -1.327147	 -0.371646
H	 -4.472726	 -1.168004	 -0.705284
H	 -4.465146	 0.496508	 -0.151489
H	 -4.081218	 -0.800940	 0.964585

	symmetry c1
}
set optking {
	frozen_dihedral = ("
		16 12 9 6,
		12 9 6 10,
		5 3 4 7,
		1 2 3 5
	")
}

ee = energy('scf')
oeprop('DIPOLE', 'QUADRUPOLE', 'MULLIKEN_CHARGES')
f=open( 'psi4out.xyz', 'w' )
f.write( "20  " )
f.write( str(ee) + "\n" )
f.write( MOL.save_string_xyz() )
f.close()
--------------------------------------------------------------------------

    Molecular point group: c1

    Geometry (in Angstrom), charge = 0, multiplicity = 1:

       Center              X                  Y                   Z               Mass
    ------------   -----------------  -----------------  -----------------  -----------------
           H          3.677997468664    -0.847198238441     0.736219339858     1.007825032070
           O          2.806154468664    -1.122566238441     0.470101339858    15.994914619560
           C          2.052924468664    -0.031931238441     0.330186339858    12.000000000000
           C          0.647604468664    -0.377257238441    -0.090554660142    12.000000000000
           O          2.479896468664     1.059422761559     0.524239339858    15.994914619560
           C         -0.242770531336     0.850265761559    -0.270739660142    12.000000000000
           H          0.724214468664    -0.963124238441    -1.000644660142     1.007825032070
           H          0.242500468664    -1.049154238441     0.661906339858     1.007825032070
           C         -1.705566531336     0.612406761559     0.118446339858    12.000000000000
           H         -0.186012531336     1.185803761559    -1.301843660142     1.007825032070
           H          0.158190468664     1.659184761559     0.330247339858     1.007825032070
           C         -2.459328531336    -0.376739238441    -0.775080660142    12.000000000000
           H         -2.222133531336     1.568983761559     0.088774339858     1.007825032070
           H         -1.756200531336     0.274681761559     1.152629339858     1.007825032070
           C         -3.937414531336    -0.494691238441    -0.403830660142    12.000000000000
           H         -2.371902531336    -0.060477238441    -1.812567660142     1.007825032070
           H         -2.001718531336    -1.360813238441    -0.715301660142     1.007825032070
           H         -4.449594531336    -1.201670238441    -1.048939660142     1.007825032070
           H         -4.442014531336     0.462841761559    -0.495144660142     1.007825032070
           H         -4.058086531336    -0.834606238441     0.620929339858     1.007825032070

  Charge       = 0
  Multiplicity = 1
  Basis Set: 6-31G*
  Basis Set:

    Orbital Energies (a.u.)
    -----------------------

    Doubly Occupied:

       1A    -20.613078     2A    -20.552310     3A    -11.381713
       4A    -11.239679     5A    -11.220369     6A    -11.219951
       7A    -11.219276     8A    -11.211973     9A     -1.475179
      10A     -1.366442    11A     -1.095533    12A     -1.040618
      13A     -0.960524    14A     -0.868746    15A     -0.816008
      16A     -0.776197    17A     -0.700631    18A     -0.691938
      19A     -0.664146    20A     -0.635569    21A     -0.600244
      22A     -0.594243    23A     -0.574367    24A     -0.550219
      25A     -0.546424    26A     -0.509530    27A     -0.496965
      28A     -0.479822    29A     -0.468094    30A     -0.466623
      31A     -0.455561    32A     -0.445793

  @DF-RHF Final Energy:  -383.94636377790749

   => Energetics <=

    Nuclear Repulsion Energy =            376.1169041618013011
    One-Electron Energy =               -1268.2510058783345812
    Two-Electron Energy =                 508.1877379386263556
    DFT Exchange-Correlation Energy =       0.0000000000000000
    Empirical Dispersion Energy =           0.0000000000000000
    PCM Polarization Energy =               0.0000000000000000
    EFP Energy =                            0.0000000000000000
    Total Energy =                       -383.9463637779068677

  Mulliken Charges: (a.u.)
   Center  Symbol    Alpha    Beta     Spin     Total
       1     H     0.26770  0.26770  0.00000  0.46460
       2     O     4.35057  4.35057  0.00000 -0.70113
       3     C     2.62636  2.62636  0.00000  0.74729
       4     C     3.21297  3.21297  0.00000 -0.42595
       5     O     4.27836  4.27836  0.00000 -0.55673
       6     C     3.16051  3.16051  0.00000 -0.32101
       7     H     0.39576  0.39576  0.00000  0.20848
       8     H     0.39770  0.39770  0.00000  0.20460
       9     C     3.15675  3.15675  0.00000 -0.31349
      10     H     0.41671  0.41671  0.00000  0.16658
      11     H     0.39592  0.39592  0.00000  0.20816
      12     C     3.15417  3.15417  0.00000 -0.30834
      13     H     0.41871  0.41871  0.00000  0.16258
      14     H     0.42302  0.42302  0.00000  0.15397
      15     C     3.23934  3.23934  0.00000 -0.47868
      16     H     0.42225  0.42225  0.00000  0.15549
      17     H     0.42263  0.42263  0.00000  0.15474
      18     H     0.41855  0.41855  0.00000  0.16291
      19     H     0.42064  0.42064  0.00000  0.15873
      20     H     0.42139  0.42139  0.00000  0.15721

   Total alpha = 32.00000, Total beta = 32.00000, Total charge =  0.00000
