                              Psi4 1.0.54 Driver

  ==> Input File <==

--------------------------------------------------------------------------
set {
	reference rhf
	basis cc-pvtz
}

set_num_threads( 4 )
memory 2 gb

molecule MOL {
0 1

H	 -0.000342	 -0.223902	 -3.352295
C	 -0.027146	 0.371068	 -2.446756
C	 0.024493	 -0.518541	 -1.216015
H	 -0.932586	 0.964979	 -2.449855
H	 0.819708	 1.049865	 -2.473332
N	 -0.042516	 0.263377	 0.000000
H	 -0.822211	 -1.197105	 -1.225584
H	 0.921114	 -1.142847	 -1.255206
C	 0.024493	 -0.518541	 1.216015
H	 0.682568	 0.950412	 0.000000
C	 -1.361033	 -0.934946	 1.680471
H	 0.618231	 -1.403872	 1.013253
H	 0.533333	 0.016660	 2.022157
H	 -1.864624	 -1.507323	 0.911483
H	 -1.299840	 -1.539606	 2.577884
H	 -1.973073	 -0.067762	 1.908576

	symmetry c1
}
set optking {
	frozen_dihedral = ("
		12 9 6 3
	")
}

ee,wfn = optimize('scf', return_wfn=True)
oeprop( wfn, 'DIPOLE', 'QUADRUPOLE', 'MULLIKEN_CHARGES')
f=open( 'psi4out.xyz', 'w' )
f.write( "16  " )
f.write( str(ee) + "\n" )
f.write( MOL.save_string_xyz() )
f.close()
--------------------------------------------------------------------------

    Molecular point group: c1
  Charge       = 0
  Multiplicity = 1
  Basis Set: CC-PVTZ
  Basis Set:
  @DF-RHF Final Energy:  -212.39088168743800
    Total Energy =                       -212.3908816874379113
    Molecular point group: c1
  Basis Set: CC-PVTZ
  Basis Set:
  Basis Set: CC-PVTZ
  Basis Set:
  @DF-RHF Final Energy:  -212.37978782564176
    Total Energy =                       -212.3797878256418130
  Basis Set: CC-PVTZ
  Basis Set:
  Basis Set: CC-PVTZ
  Basis Set:
  @DF-RHF Final Energy:  -212.39192526917708
    Total Energy =                       -212.3919252691771931
  Basis Set: CC-PVTZ
  Basis Set:
  Basis Set: CC-PVTZ
  Basis Set:
  @DF-RHF Final Energy:  -212.39206350733281
    Total Energy =                       -212.3920635073327503
  Basis Set: CC-PVTZ
  Basis Set:
  Basis Set: CC-PVTZ
  Basis Set:
  @DF-RHF Final Energy:  -212.39206644579539
    Total Energy =                       -212.3920664457951943
  Basis Set: CC-PVTZ
  Basis Set:
  Charge       = 0
  Multiplicity = 1
  Basis Set: CC-PVTZ
  Basis Set:

    Orbital Energies (a.u.)
    -----------------------

    Doubly Occupied:

       1A    -15.528698     2A    -11.239698     3A    -11.239421
       4A    -11.206620     5A    -11.200910     6A     -1.205291
       7A     -1.025597     8A     -0.966202     9A     -0.843079
      10A     -0.805476    11A     -0.665178    12A     -0.628244
      13A     -0.614044    14A     -0.577837    15A     -0.541247
      16A     -0.528866    17A     -0.507139    18A     -0.494031
      19A     -0.482155    20A     -0.467848    21A     -0.361879

  @DF-RHF Final Energy:  -212.39206692169992

   => Energetics <=

    Nuclear Repulsion Energy =            190.7747291708229511
    One-Electron Energy =                -664.0746747918615256
    Two-Electron Energy =                 260.9078786993386530
    DFT Exchange-Correlation Energy =       0.0000000000000000
    Empirical Dispersion Energy =           0.0000000000000000
    PCM Polarization Energy =               0.0000000000000000
    EFP Energy =                            0.0000000000000000
    Total Energy =                       -212.3920669216998931
    Molecular point group: c1
  Basis Set: CC-PVTZ
  Basis Set:

  -Total Gradient:
     Atom            X                  Y                   Z
    ------   -----------------  -----------------  -----------------
       1        0.000002410203    -0.000008870860    -0.000009627173
       2       -0.000001235711     0.000003694091     0.000005762276
       3        0.001580377982     0.000371844752     0.000403605840
       4       -0.000007647431     0.000002297079    -0.000000347168
       5        0.000005326255     0.000003507202     0.000004418835
       6       -0.002613704262    -0.000847246894    -0.000829250010
       7       -0.000014691492    -0.000006534304    -0.000000358555
       8        0.000008483286    -0.000004738316     0.000000443404
       9        0.002475965685     0.001711561535     0.001409272063
      10       -0.000001487759     0.000013721545    -0.000017340756
      11        0.000016722527    -0.000003188484     0.000026937191
      12       -0.001448568735    -0.001230970820    -0.001004521024
      13       -0.000000200936    -0.000002909401     0.000021117402
      14        0.000005173717    -0.000000465900    -0.000004123841
      15       -0.000008616010     0.000000618412    -0.000004808098
      16        0.000001692684    -0.000002319636    -0.000001180383

  **** Optimization is complete! (in 6 steps) ****
    Final optimized geometry and variables:
    Molecular point group: c1

    Geometry (in Angstrom), charge = 0, multiplicity = 1:

    H            0.939051345527     0.303443401997    -3.066658689642
    C            0.625849664651     0.818310675233    -2.165697168145
    C            0.562671655482    -0.142587209314    -0.990478015340
    H           -0.342947442817     1.268235019350    -2.342925982824
    H            1.337085157378     1.616849737884    -1.977964987955
    N            0.130084830200     0.533817829223     0.215672007007
    H           -0.144737932327    -0.933534926644    -1.213796060940
    H            1.534482970452    -0.625141331844    -0.860273426596
    C            0.031261656795    -0.314021384440     1.392863537188
    H            0.745558914780     1.295970896804     0.399402114006
    C           -1.366164887422    -0.895832268666     1.563943645152
    H            0.750050437552    -1.133676859296     1.353131993089
    H            0.274996749261     0.279456822308     2.266173185297
    H           -1.648540743507    -1.497671979362     0.707793368388
    H           -1.413698163523    -1.528694971751     2.444086524464
    H           -2.095801157530    -0.102491074524     1.668250188927

  Mulliken Charges: (a.u.)
   Center  Symbol    Alpha    Beta     Spin     Total
       1     H     0.45431  0.45431  0.00000  0.09139
       2     C     3.14299  3.14299  0.00000 -0.28598
       3     C     3.02405  3.02405  0.00000 -0.04811
       4     H     0.44938  0.44938  0.00000  0.10124
       5     H     0.45940  0.45940  0.00000  0.08121
       6     N     3.63791  3.63791  0.00000 -0.27581
       7     H     0.45779  0.45779  0.00000  0.08442
       8     H     0.47188  0.47188  0.00000  0.05625
       9     C     3.03515  3.03515  0.00000 -0.07030
      10     H     0.44356  0.44356  0.00000  0.11287
      11     C     3.13276  3.13276  0.00000 -0.26553
      12     H     0.47024  0.47024  0.00000  0.05951
      13     H     0.45408  0.45408  0.00000  0.09183
      14     H     0.45705  0.45705  0.00000  0.08591
      15     H     0.45641  0.45641  0.00000  0.08718
      16     H     0.45303  0.45303  0.00000  0.09393

   Total alpha = 21.00000, Total beta = 21.00000, Total charge = -0.00000

*** Psi4 exiting successfully. Buy a developer a beer!
