  ==> Input File <==

--------------------------------------------------------------------------
set {
	reference rhf
	basis cc-pvtz
}

set_num_threads( 4 )
memory 2 gb

molecule MOL {
0 1

H	 -2.816458	 -0.841657	 -0.064679
N	 -1.878861	 -0.711874	 0.250184
C	 -1.341419	 0.551458	 -0.220231
H	 -1.333674	 -1.468530	 -0.105118
C	 0.082190	 0.731516	 0.254705
H	 -1.357065	 0.652078	 -1.304747
H	 -1.939897	 1.357530	 0.189797
O	 0.881195	 -0.248324	 -0.336237
H	 0.440901	 1.722476	 -0.020063
H	 0.119896	 0.643586	 1.338114
C	 0.508759	 -1.552680	 -0.037631
H	 1.193976	 -2.217989	 -0.542832
H	 0.559353	 -1.745768	 1.031879
H	 -0.501839	 -1.765714	 -0.378032

	symmetry c1
}
set optking {
	frozen_dihedral = ("
		11 8 5 3
	")
}

ee = optimize('scf')
oeprop('DIPOLE', 'QUADRUPOLE', 'MULLIKEN_CHARGES')
f=open( 'psi4out.xyz', 'w' )
f.write( "14  " )
f.write( str(ee) + "\n" )
f.write( MOL.save_string_xyz() )
f.close()
--------------------------------------------------------------------------

    Molecular point group: c1
  Charge       = 0
  Multiplicity = 1
  Basis Set: CC-PVTZ
  Basis Set:
  @DF-RHF Final Energy:  -248.14266818877456
    Total Energy =                       -248.1426681887749623
    Molecular point group: c1
  Basis Set: CC-PVTZ
  Basis Set:
  Basis Set: CC-PVTZ
  Basis Set:
  @DF-RHF Final Energy:  -248.19807226110868
    Total Energy =                       -248.1980722611088481
  Basis Set: CC-PVTZ
  Basis Set:
  Basis Set: CC-PVTZ
  Basis Set:
  @DF-RHF Final Energy:  -248.21080176294072
    Total Energy =                       -248.2108017629406618
  Basis Set: CC-PVTZ
  Basis Set:
  Basis Set: CC-PVTZ
  Basis Set:
  @DF-RHF Final Energy:  -248.21374762479749
    Total Energy =                       -248.2137476247972927
  Basis Set: CC-PVTZ
  Basis Set:
  @DF-RHF Final Energy:  -248.21650486182668
    Total Energy =                       -248.2165048618266496
  @DF-RHF Final Energy:  -248.21740222693643
    Total Energy =                       -248.2174022269363149
  @DF-RHF Final Energy:  -248.21769614123272
    Total Energy =                       -248.2176961412328069
  @DF-RHF Final Energy:  -248.21776851039246
    Total Energy =                       -248.2177685103922613
  Basis Set: CC-PVTZ
  Basis Set:
  @DF-RHF Final Energy:  -248.21778261927227
    Total Energy =                       -248.2177826192723842
  Basis Set: CC-PVTZ
  Basis Set:
  Basis Set: CC-PVTZ
  Basis Set:
  @DF-RHF Final Energy:  -248.21778672147818
    Total Energy =                       -248.2177867214781486
  Basis Set: CC-PVTZ
  Basis Set:
  Basis Set: CC-PVTZ
  Basis Set:
  @DF-RHF Final Energy:  -248.21778841914929
    Total Energy =                       -248.2177884191492012
  Basis Set: CC-PVTZ
  Basis Set:
  Charge       = 0
  Multiplicity = 1
  Basis Set: CC-PVTZ
  Basis Set:

    Orbital Energies (a.u.)
    -----------------------

    Doubly Occupied:

       1A    -20.545418     2A    -15.534008     3A    -11.262543
       4A    -11.262114     5A    -11.245249     6A     -1.377316
       7A     -1.182865     8A     -1.001830     9A     -0.916128
      10A     -0.811592    11A     -0.690413    12A     -0.672892
      13A     -0.642865    14A     -0.622072    15A     -0.600763
      16A     -0.548448    17A     -0.538493    18A     -0.509476
      19A     -0.461403    20A     -0.415327    21A     -0.389829

  @DF-RHF Final Energy:  -248.21778870821447

   => Energetics <=

    Nuclear Repulsion Energy =            196.7722373367018918
    One-Electron Energy =                -727.5179615202541754
    Two-Electron Energy =                 282.5279354753378129
    DFT Exchange-Correlation Energy =       0.0000000000000000
    Empirical Dispersion Energy =           0.0000000000000000
    PCM Polarization Energy =               0.0000000000000000
    EFP Energy =                            0.0000000000000000
    Total Energy =                       -248.2177887082144707
    Molecular point group: c1
  Basis Set: CC-PVTZ
  Basis Set:

  -Total Gradient:
     Atom            X                  Y                   Z
    ------   -----------------  -----------------  -----------------
       1        0.000000076569     0.000005151714    -0.000004482741
       2        0.000014602424     0.000002263716    -0.000000394473
       3       -0.000367286333    -0.001330091977     0.001347962133
       4       -0.000005984222     0.000003643931     0.000004435103
       5        0.000037289894     0.001923273261    -0.002839944682
       6       -0.000010945910     0.000002833984    -0.000007636340
       7        0.000009850306     0.000009965959     0.000008432933
       8        0.001414864156    -0.000596560652     0.003323202160
       9       -0.000001412315    -0.000009572387    -0.000011943462
      10        0.000003959537     0.000003200501     0.000006950021
      11       -0.001105299525    -0.000009980825    -0.001816693602
      12        0.000002094904     0.000005076529     0.000000545833
      13       -0.000001988831    -0.000008580032    -0.000002897692
      14        0.000010179350    -0.000000623718    -0.000007535190

  **** Optimization is complete! (in 12 steps) ****
    Final optimized geometry and variables:
    Molecular point group: c1

    Geometry (in Angstrom), charge = 0, multiplicity = 1:

    H           -2.780920372402    -0.127925010707     0.253269984114
    N           -1.806679927046    -0.262768225102     0.418422441253
    C           -1.027368896184     0.772025587909    -0.247045244770
    H           -1.578982167316    -1.175787159468     0.091642232344
    C            0.398183342022     0.905150560465     0.278768148208
    H           -0.991998911096     0.662428449287    -1.330370126065
    H           -1.519558852221     1.716241486694    -0.043686965321
    O            1.348401008075     0.046365704792    -0.281846536418
    H            0.757774850958     1.899780892127     0.052155176230
    H            0.378864267543     0.787861346884     1.359997111767
    C            1.143195736079    -1.320761421167    -0.146838478590
    H            2.070419061700    -1.814303237150    -0.401520595729
    H            0.872630330728    -1.590601296748     0.870774325735
    H            0.374081834846    -1.686328190989    -0.822198605863

  Mulliken Charges: (a.u.)
   Center  Symbol    Alpha    Beta     Spin     Total
       1     H     0.42747  0.42747  0.00000  0.14505
       2     N     3.69026  3.69026  0.00000 -0.38053
       3     C     3.04859  3.04859  0.00000 -0.09719
       4     H     0.42839  0.42839  0.00000  0.14323
       5     C     2.97777  2.97777  0.00000  0.04445
       6     H     0.45724  0.45724  0.00000  0.08553
       7     H     0.45271  0.45271  0.00000  0.09458
       8     O     4.17719  4.17719  0.00000 -0.35438
       9     H     0.45140  0.45140  0.00000  0.09720
      10     H     0.46602  0.46602  0.00000  0.06796
      11     C     3.03628  3.03628  0.00000 -0.07257
      12     H     0.44343  0.44343  0.00000  0.11315
      13     H     0.46622  0.46622  0.00000  0.06757
      14     H     0.47703  0.47703  0.00000  0.04594

   Total alpha = 21.00000, Total beta = 21.00000, Total charge = -0.00000
