  ==> Input File <==

--------------------------------------------------------------------------
set {
	reference rhf
	basis 6-31G*
}

set_num_threads( 4 )
memory 2 gb

molecule MOL {
0 1

O	 -2.924347	 1.101589	 0.635819
C	 -2.668563	 0.129746	 -0.000350
C	 -3.657111	 -0.572066	 -0.895616
O	 -1.481751	 -0.454642	 0.000584
H	 -4.012745	 0.130744	 -1.639554
H	 -3.220614	 -1.432028	 -1.381799
H	 -4.509075	 -0.878339	 -0.300440
C	 -0.334255	 0.388708	 0.000906
C	 0.891947	 -0.504646	 0.000751
H	 -0.365390	 1.025305	 -0.873475
H	 -0.365484	 1.024911	 0.875569
C	 2.191998	 0.301789	 0.000897
H	 0.855148	 -1.151283	 -0.871571
H	 0.855132	 -1.151660	 0.872805
C	 3.441114	 -0.581407	 0.000108
H	 2.215074	 0.954890	 -0.869742
H	 2.215465	 0.953923	 0.872248
C	 4.739576	 0.224112	 -0.001102
H	 3.419457	 -1.233487	 -0.870178
H	 3.420834	 -1.233096	 0.870717
H	 4.804918	 0.861552	 -0.878265
H	 5.606527	 -0.429058	 -0.001824
H	 4.806469	 0.861674	 0.875853

	symmetry c1
}
set optking {
	frozen_dihedral = ("
		1 2 4 8
	")
}

ee = optimize('scf')
oeprop('DIPOLE', 'QUADRUPOLE', 'MULLIKEN_CHARGES')
f=open( 'psi4out.xyz', 'w' )
f.write( "23  " )
f.write( str(ee) + "\n" )
f.write( MOL.save_string_xyz() )
f.close()
--------------------------------------------------------------------------

    Molecular point group: c1
  Charge       = 0
  Multiplicity = 1
  Basis Set: 6-31G*
  Basis Set:
  @DF-RHF Final Energy:  -422.97041524400663
    Total Energy =                       -422.9704152440062899
    Molecular point group: c1
  Basis Set: 6-31G*
  Basis Set:
  Basis Set: 6-31G*
  Basis Set:
  @DF-RHF Final Energy:  -422.96775480666599
    Total Energy =                       -422.9677548066671307
  Basis Set: 6-31G*
  Basis Set:
  Basis Set: 6-31G*
  Basis Set:
  @DF-RHF Final Energy:  -422.97109628867219
    Total Energy =                       -422.9710962886723564
  Basis Set: 6-31G*
  Basis Set:
  Basis Set: 6-31G*
  Basis Set:
  @DF-RHF Final Energy:  -422.97115613945454
    Total Energy =                       -422.9711561394542514
  Basis Set: 6-31G*
  Basis Set:
  @DF-RHF Final Energy:  -422.97118503556658
    Total Energy =                       -422.9711850355665774
  @DF-RHF Final Energy:  -422.97120222981096
    Total Energy =                       -422.9712022298117517
  @DF-RHF Final Energy:  -422.96704657333828
    Total Energy =                       -422.9670465733378251
  @DF-RHF Final Energy:  -422.97059345805917
    Total Energy =                       -422.9705934580605344
  @DF-RHF Final Energy:  -422.97137952098643
    Total Energy =                       -422.9713795209872842
  @DF-RHF Final Energy:  -422.97159712608760
    Total Energy =                       -422.9715971260875449
  @DF-RHF Final Energy:  -422.97179954490525
    Total Energy =                       -422.9717995449047976
  @DF-RHF Final Energy:  -422.95801656843247
    Total Energy =                       -422.9580165684326403
  @DF-RHF Final Energy:  -422.97086006415725
    Total Energy =                       -422.9708600641570229
  @DF-RHF Final Energy:  -422.97212810376436
    Total Energy =                       -422.9721281037644758
  @DF-RHF Final Energy:  -422.97230882267422
    Total Energy =                       -422.9723088226734262
  @DF-RHF Final Energy:  -422.97249262669266
    Total Energy =                       -422.9724926266929970
  Basis Set: 6-31G*
  Basis Set:
  @DF-RHF Final Energy:  -422.97261525752646
    Total Energy =                       -422.9726152575267406
  Basis Set: 6-31G*
  Basis Set:
  Basis Set: 6-31G*
  Basis Set:
  @DF-RHF Final Energy:  -422.97263903023236
    Total Energy =                       -422.9726390302323580
  Basis Set: 6-31G*
  Basis Set:
  Basis Set: 6-31G*
  Basis Set:
  @DF-RHF Final Energy:  -422.97264118345100
    Total Energy =                       -422.9726411834508326
  Basis Set: 6-31G*
  Basis Set:
  Charge       = 0
  Multiplicity = 1
  Basis Set: 6-31G*
  Basis Set:

    Orbital Energies (a.u.)
    -----------------------

    Doubly Occupied:

       1A    -20.593197     2A    -20.547507     3A    -11.374839
       4A    -11.284866     5A    -11.233258     6A    -11.225201
       7A    -11.224609     8A    -11.222299     9A    -11.213506
      10A     -1.462216    11A     -1.362693    12A     -1.094507
      13A     -1.041368    14A     -1.004767    15A     -0.931109
      16A     -0.841376    17A     -0.803329    18A     -0.773618
      19A     -0.694576    20A     -0.683797    21A     -0.662896
      22A     -0.647319    23A     -0.609716    24A     -0.589085
      25A     -0.583823    26A     -0.567849    27A     -0.558139
      28A     -0.543642    29A     -0.518187    30A     -0.504328
      31A     -0.493989    32A     -0.478653    33A     -0.472053
      34A     -0.468486    35A     -0.449240    36A     -0.434302

  @DF-RHF Final Energy:  -422.97264147544712

   => Energetics <=

    Nuclear Repulsion Energy =            449.0494582381598434
    One-Electron Energy =               -1465.6555080218849980
    Two-Electron Energy =                 593.6334083082779216
    DFT Exchange-Correlation Energy =       0.0000000000000000
    Empirical Dispersion Energy =           0.0000000000000000
    PCM Polarization Energy =               0.0000000000000000
    EFP Energy =                            0.0000000000000000
    Total Energy =                       -422.9726414754472898
    Molecular point group: c1
  Basis Set: 6-31G*
  Basis Set:

  -Total Gradient:
     Atom            X                  Y                   Z
    ------   -----------------  -----------------  -----------------
       1       -0.002846990233    -0.006067867886     0.007023817235
       2        0.004331622181     0.009289879144    -0.014198396109
       3        0.000023897437    -0.000041338798    -0.000008865753
       4       -0.001648971725    -0.003713740052     0.014800897035
       5       -0.000023724205     0.000005246424    -0.000021076232
       6       -0.000007213415     0.000012422980     0.000011681979
       7        0.000000574074     0.000000181626    -0.000003774086
       8        0.000183089454     0.000520088101    -0.007612797706
       9        0.000008417473    -0.000003991059     0.000016206476
      10        0.000006668220     0.000012926561    -0.000002625644
      11       -0.000004709686    -0.000014443290    -0.000003723313
      12        0.000000372146     0.000007452861    -0.000009453142
      13       -0.000005024305     0.000006792581     0.000000423762
      14        0.000005016762    -0.000009073578     0.000002420131
      15       -0.000004561359    -0.000010649145     0.000004388481
      16       -0.000005101698     0.000003225649    -0.000003948038
      17        0.000002651065    -0.000000654334    -0.000000952958
      18       -0.000010343307     0.000006992519     0.000005079942
      19       -0.000001840676     0.000003841432    -0.000000545802
      20        0.000000911282    -0.000006669358     0.000000586849
      21        0.000000876788     0.000000332113    -0.000001489241
      22       -0.000006922614    -0.000003264569     0.000001226553
      23        0.000001306348     0.000002310078     0.000000919577

  **** Optimization is complete! (in 20 steps) ****
    Final optimized geometry and variables:
    Molecular point group: c1

    Geometry (in Angstrom), charge = 0, multiplicity = 1:

    O           -2.950240424670     1.045767111757     0.722744314961
    C           -2.682656728959     0.122519926729     0.027775982117
    C           -3.663161793935    -0.599477000047    -0.855409223625
    O           -1.482631779534    -0.462667717920     0.014114194868
    H           -3.349968586749    -0.515469524228    -1.890512246632
    H           -3.672695842264    -1.653376350657    -0.602800230646
    H           -4.649389244691    -0.176993041550    -0.732986655630
    C           -0.336536579853     0.379028399767     0.095589532759
    C            0.893224808477    -0.501886847743    -0.015442791406
    H           -0.376721505314     1.100331225442    -0.713437804345
    H           -0.353413505288     0.920919903492     1.031121580095
    C            2.190897004263     0.305306248218     0.053328984866
    H            0.845949839366    -1.054443863359    -0.949591670805
    H            0.867189311680    -1.235502947887     0.785299139880
    C            3.442011145929    -0.568494048374    -0.053971889787
    H            2.202558723452     1.045598281305    -0.745022577978
    H            2.223081133072     0.863103825413     0.987484864099
    C            4.738349269159     0.237403787665     0.015715675801
    H            3.412234092774    -1.125543138328    -0.987735232849
    H            3.432710838786    -1.308066821365     0.743439570390
    H            4.792869377403     0.963521724792    -0.790435992187
    H            5.606739318323    -0.409083761611    -0.062525220718
    H            4.813152101023     0.779700436907     0.953948001358

  Mulliken Charges: (a.u.)
   Center  Symbol    Alpha    Beta     Spin     Total
       1     O     4.27308  4.27308  0.00000 -0.54615
       2     C     2.61885  2.61885  0.00000  0.76230
       3     C     3.28323  3.28323  0.00000 -0.56646
       4     O     4.31664  4.31664  0.00000 -0.63328
       5     H     0.40386  0.40386  0.00000  0.19228
       6     H     0.39868  0.39868  0.00000  0.20264
       7     H     0.39768  0.39768  0.00000  0.20463
       8     C     2.99535  2.99535  0.00000  0.00930
       9     C     3.16440  3.16440  0.00000 -0.32880
      10     H     0.41986  0.41986  0.00000  0.16029
      11     H     0.40587  0.40587  0.00000  0.18825
      12     C     3.16036  3.16036  0.00000 -0.32072
      13     H     0.41497  0.41497  0.00000  0.17007
      14     H     0.41197  0.41197  0.00000  0.17606
      15     C     3.15147  3.15147  0.00000 -0.30295
      16     H     0.42189  0.42189  0.00000  0.15622
      17     H     0.42004  0.42004  0.00000  0.15992
      18     C     3.23990  3.23990  0.00000 -0.47980
      19     H     0.42155  0.42155  0.00000  0.15690
      20     H     0.42079  0.42079  0.00000  0.15842
      21     H     0.42116  0.42116  0.00000  0.15768
      22     H     0.41783  0.41783  0.00000  0.16434
      23     H     0.42058  0.42058  0.00000  0.15884

   Total alpha = 36.00000, Total beta = 36.00000, Total charge = -0.00000
