  ==> Input File <==

--------------------------------------------------------------------------
set {
	reference rhf
	basis cc-pvtz
}

set_num_threads( 4 )
memory 2 gb

molecule MOL {
0 1

H	 2.342730	 0.877684	 -1.045694
C	 2.360424	 0.000000	 -0.411793
C	 1.173749	 0.000000	 0.526870
H	 3.286567	 0.000000	 0.151574
H	 2.342730	 -0.877684	 -1.045694
O	 -0.000000	 0.000000	 -0.223739
H	 1.203779	 0.876757	 1.172538
H	 1.203779	 -0.876757	 1.172538
C	 -1.173749	 0.000000	 0.526870
C	 -0.929837	 0.737553	 1.825256
H	 -1.488118	 -1.023351	 0.727908
H	 -1.975334	 0.478974	 -0.033966
H	 -0.143599	 0.256100	 2.393151
H	 -1.831626	 0.750109	 2.426707
H	 -0.631330	 1.760014	 1.630472

	symmetry c1
}
set optking {
	frozen_dihedral = ("
		11 9 6 3
	")
}

ee = optimize('scf')
oeprop('DIPOLE', 'QUADRUPOLE', 'MULLIKEN_CHARGES')
f=open( 'psi4out.xyz', 'w' )
f.write( "15  " )
f.write( str(ee) + "\n" )
f.write( MOL.save_string_xyz() )
f.close()
--------------------------------------------------------------------------

    Molecular point group: c1
  Charge       = 0
  Multiplicity = 1
  Basis Set: CC-PVTZ
  Basis Set:
  @DF-RHF Final Energy:  -232.21555052428457
    Total Energy =                       -232.2155505242848221
    Molecular point group: c1
  Basis Set: CC-PVTZ
  Basis Set:
  Basis Set: CC-PVTZ
  Basis Set:
  @DF-RHF Final Energy:  -232.21562344030809
    Total Energy =                       -232.2156234403080930
  Basis Set: CC-PVTZ
  Basis Set:
  Basis Set: CC-PVTZ
  Basis Set:
  @DF-RHF Final Energy:  -232.22286765436141
    Total Energy =                       -232.2228676543613801
  Basis Set: CC-PVTZ
  Basis Set:
  Basis Set: CC-PVTZ
  Basis Set:
  @DF-RHF Final Energy:  -232.22583357936364
    Total Energy =                       -232.2258335793634387
  Basis Set: CC-PVTZ
  Basis Set:
  Basis Set: CC-PVTZ
  Basis Set:
  @DF-RHF Final Energy:  -232.22632216741818
    Total Energy =                       -232.2263221674183455
  Basis Set: CC-PVTZ
  Basis Set:
  Basis Set: CC-PVTZ
  Basis Set:
  @DF-RHF Final Energy:  -232.22656389002756
    Total Energy =                       -232.2265638900277054
  Basis Set: CC-PVTZ
  Basis Set:
  Basis Set: CC-PVTZ
  Basis Set:
  @DF-RHF Final Energy:  -232.22659519767774
    Total Energy =                       -232.2265951976776250
  Basis Set: CC-PVTZ
  Basis Set:
  Charge       = 0
  Multiplicity = 1
  Basis Set: CC-PVTZ
  Basis Set:

    Orbital Energies (a.u.)
    -----------------------

    Doubly Occupied:

       1A    -20.541498     2A    -11.266304     3A    -11.264808
       4A    -11.214021     5A    -11.205526     6A     -1.373975
       7A     -1.040886     8A     -0.991040     9A     -0.871537
      10A     -0.799295    11A     -0.675669    12A     -0.660493
      13A     -0.624380    14A     -0.595201    15A     -0.548221
      16A     -0.537155    17A     -0.524138    18A     -0.504238
      19A     -0.494466    20A     -0.452373    21A     -0.406648

  @DF-RHF Final Energy:  -232.22659706113649

   => Energetics <=

    Nuclear Repulsion Energy =            193.4046293074846972
    One-Electron Energy =                -698.0787016669526110
    Two-Electron Energy =                 272.4474752983315398
    DFT Exchange-Correlation Energy =       0.0000000000000000
    Empirical Dispersion Energy =           0.0000000000000000
    PCM Polarization Energy =               0.0000000000000000
    EFP Energy =                            0.0000000000000000
    Total Energy =                       -232.2265970611363741
    Molecular point group: c1
  Basis Set: CC-PVTZ
  Basis Set:

  -Total Gradient:
     Atom            X                  Y                   Z
    ------   -----------------  -----------------  -----------------
       1       -0.000005663497    -0.000006338717     0.000009690262
       2        0.000057288397     0.000002507077     0.000025124846
       3        0.000063162324     0.004357547189     0.000210558461
       4        0.000032757300    -0.000007274585    -0.000017969009
       5       -0.000000938487     0.000006449558     0.000005845421
       6       -0.000654028428    -0.006286582290    -0.001463482580
       7       -0.000009125977    -0.000021657595    -0.000011462347
       8       -0.000027803948    -0.000011408241     0.000018546841
       9        0.003370795217     0.001677824311     0.005471511594
      10       -0.000027761141    -0.000036235581    -0.000029416367
      11       -0.002752148195     0.000317564101    -0.004258219621
      12       -0.000076603981     0.000015399581     0.000078004317
      13        0.000002908951    -0.000013615190    -0.000022696761
      14        0.000011345759    -0.000002725939    -0.000004989842
      15        0.000015815705     0.000008546323    -0.000011045215

  **** Optimization is complete! (in 8 steps) ****
    Final optimized geometry and variables:
    Molecular point group: c1

    Geometry (in Angstrom), charge = 0, multiplicity = 1:

    H            2.057495773581     0.649171262252    -1.636107129366
    C            2.088292323908    -0.218560281309    -0.988877308316
    C            0.982088769599    -0.147380028854     0.042135637572
    H            3.056539755286    -0.251588644159    -0.501817201216
    H            1.979973674714    -1.103735002621    -1.602980890669
    O           -0.238432398886    -0.094621253521    -0.630744961036
    H            1.117801782415     0.729274350456     0.667758001562
    H            1.024380349846    -1.021207563652     0.691671713944
    C           -1.424385717904    -0.136132689780     0.112946866101
    C           -1.414940274356     0.588516771697     1.448415980811
    H           -1.736592980727    -1.171914330571     0.236414657646
    H           -2.171998773966     0.322839680726    -0.522462248231
    H           -0.747403171368     0.131588228485     2.167632415980
    H           -2.415571548317     0.560377404772     1.864198708857
    H           -1.131663172062     1.627631391594     1.327883173481

  Mulliken Charges: (a.u.)
   Center  Symbol    Alpha    Beta     Spin     Total
       1     H     0.45164  0.45164  0.00000  0.09673
       2     C     3.13632  3.13632  0.00000 -0.27263
       3     C     2.96658  2.96658  0.00000  0.06683
       4     H     0.45951  0.45951  0.00000  0.08098
       5     H     0.45154  0.45154  0.00000  0.09692
       6     O     4.18160  4.18160  0.00000 -0.36319
       7     H     0.46984  0.46984  0.00000  0.06032
       8     H     0.47391  0.47391  0.00000  0.05218
       9     C     2.97670  2.97670  0.00000  0.04660
      10     C     3.16180  3.16180  0.00000 -0.32360
      11     H     0.46693  0.46693  0.00000  0.06614
      12     H     0.45661  0.45661  0.00000  0.08677
      13     H     0.45120  0.45120  0.00000  0.09760
      14     H     0.44594  0.44594  0.00000  0.10812
      15     H     0.44988  0.44988  0.00000  0.10023

   Total alpha = 21.00000, Total beta = 21.00000, Total charge = -0.00000
