  ==> Input File <==

--------------------------------------------------------------------------
set {
	reference rhf
	basis 6-31G*
}

set_num_threads( 4 )
memory 2 gb

molecule MOL {
0 1

H	 2.801816	 -0.298814	 -0.528033
O	 1.961075	 -0.745149	 -0.554993
C	 1.050492	 0.053836	 0.000068
C	 -0.318135	 -0.576402	 0.000164
O	 1.327904	 1.125755	 0.430215
C	 -1.454360	 0.441875	 -0.000474
H	 -0.374042	 -1.230163	 -0.866135
H	 -0.374274	 -1.229227	 0.867154
C	 -2.826123	 -0.230780	 0.000056
H	 -1.357605	 1.085198	 -0.868380
H	 -1.357504	 1.086451	 0.866496
H	 -2.959731	 -0.858053	 -0.876869
H	 -3.619374	 0.509403	 -0.000080
H	 -2.959371	 -0.857318	 0.877556

	symmetry c1
}
set optking {
	frozen_dihedral = ("
		2 3 4 7
	")
}

ee = optimize('scf')
oeprop('DIPOLE', 'QUADRUPOLE', 'MULLIKEN_CHARGES')
f=open( 'psi4out.xyz', 'w' )
f.write( "14  " )
f.write( str(ee) + "\n" )
f.write( MOL.save_string_xyz() )
f.close()
--------------------------------------------------------------------------

    Molecular point group: c1
  Charge       = 0
  Multiplicity = 1
  Basis Set: 6-31G*
  Basis Set:
  @DF-RHF Final Energy:  -305.88012012592446
    Total Energy =                       -305.8801201259243498
    Molecular point group: c1
  Basis Set: 6-31G*
  Basis Set:
  Basis Set: 6-31G*
  Basis Set:
  @DF-RHF Final Energy:  -305.88022878256186
    Total Energy =                       -305.8802287825618578
  Basis Set: 6-31G*
  Basis Set:
  Basis Set: 6-31G*
  Basis Set:
  @DF-RHF Final Energy:  -305.87988586785855
    Total Energy =                       -305.8798858678582064
  Basis Set: 6-31G*
  Basis Set:
  Basis Set: 6-31G*
  Basis Set:
  @DF-RHF Final Energy:  -305.88030794749449
    Total Energy =                       -305.8803079474942024
  Basis Set: 6-31G*
  Basis Set:
  Basis Set: 6-31G*
  Basis Set:
  @DF-RHF Final Energy:  -305.88030942612448
    Total Energy =                       -305.8803094261243700
  Basis Set: 6-31G*
  Basis Set:
  Charge       = 0
  Multiplicity = 1
  Basis Set: 6-31G*
  Basis Set:

    Orbital Energies (a.u.)
    -----------------------

    Doubly Occupied:

       1A    -20.614175     2A    -20.551056     3A    -11.381809
       4A    -11.241020     5A    -11.227165     6A    -11.217652
       7A     -1.475525     8A     -1.365943     9A     -1.083371
      10A     -0.979577    11A     -0.857122    12A     -0.793896
      13A     -0.701131    14A     -0.688772    15A     -0.662623
      16A     -0.618543    17A     -0.593836    18A     -0.572801
      19A     -0.546462    20A     -0.506800    21A     -0.492238
      22A     -0.483577    23A     -0.477009    24A     -0.443569

  @DF-RHF Final Energy:  -305.88030967620523

   => Energetics <=

    Nuclear Repulsion Energy =            239.9227103987163048
    One-Electron Energy =                -892.4546983060777166
    Two-Electron Energy =                 346.6516782311560974
    DFT Exchange-Correlation Energy =       0.0000000000000000
    Empirical Dispersion Energy =           0.0000000000000000
    PCM Polarization Energy =               0.0000000000000000
    EFP Energy =                            0.0000000000000000
    Total Energy =                       -305.8803096762053428
    Molecular point group: c1
  Basis Set: 6-31G*
  Basis Set:

  -Total Gradient:
     Atom            X                  Y                   Z
    ------   -----------------  -----------------  -----------------
       1       -0.000001217046     0.000006617110    -0.000008171207
       2       -0.000150376458     0.000345903661    -0.000836227875
       3        0.000275841071    -0.000660429421     0.001289535373
       4       -0.000512497769     0.001186084200    -0.001028512027
       5       -0.000015134366    -0.000027642331    -0.000016090219
       6        0.000009200403    -0.000002303310    -0.000056642454
       7        0.000380663219    -0.000828085403     0.000613332280
       8        0.000010780039    -0.000019692075     0.000016579301
       9        0.000001735724    -0.000004418504     0.000022520261
      10        0.000000247227     0.000007547763     0.000003916522
      11       -0.000002137838    -0.000004689739    -0.000003667969
      12        0.000005530001     0.000009369886    -0.000000171139
      13        0.000003500877     0.000001326487     0.000003690109
      14       -0.000006135084    -0.000009588323    -0.000000090956

  **** Optimization is complete! (in 6 steps) ****
    Final optimized geometry and variables:
    Molecular point group: c1

    Geometry (in Angstrom), charge = 0, multiplicity = 1:

    H            2.822793034194    -0.300654171981    -0.437744626369
    O            1.982300785011    -0.742051764468    -0.514365470480
    C            1.052040166302     0.045830065347     0.021281836209
    C           -0.315752845461    -0.587303375132    -0.007023034469
    O            1.312387019483     1.112977599557     0.474606926975
    C           -1.450563863234     0.434740748320     0.015012693761
    H           -0.377082838100    -1.244314503445    -0.867016235061
    H           -0.371964421088    -1.232337903167     0.868155953906
    C           -2.823830964416    -0.233649072911     0.045300293473
    H           -1.373738481834     1.074861101997    -0.859009069702
    H           -1.329528441503     1.079263135419     0.877512716784
    H           -2.977062276115    -0.864643150881    -0.825566868260
    H           -3.614613058133     0.509072676215     0.058086651231
    H           -2.940249922700    -0.855243553666     0.928664899010

  Mulliken Charges: (a.u.)
   Center  Symbol    Alpha    Beta     Spin     Total
       1     H     0.26801  0.26801  0.00000  0.46398
       2     O     4.35051  4.35051  0.00000 -0.70102
       3     C     2.62204  2.62204  0.00000  0.75592
       4     C     3.21053  3.21053  0.00000 -0.42105
       5     O     4.27968  4.27968  0.00000 -0.55936
       6     C     3.15512  3.15512  0.00000 -0.31024
       7     H     0.39895  0.39895  0.00000  0.20210
       8     H     0.39848  0.39848  0.00000  0.20304
       9     C     3.24260  3.24260  0.00000 -0.48520
      10     H     0.41458  0.41458  0.00000  0.17084
      11     H     0.40418  0.40418  0.00000  0.19165
      12     H     0.42055  0.42055  0.00000  0.15891
      13     H     0.41444  0.41444  0.00000  0.17111
      14     H     0.42034  0.42034  0.00000  0.15933

   Total alpha = 24.00000, Total beta = 24.00000, Total charge = -0.00000
