  ==> Input File <==

--------------------------------------------------------------------------
set {
	reference rhf
	basis 6-31G*
}

set_num_threads( 4 )
memory 2 gb

molecule MOL {
0 1

H	 -3.489920	 -2.291572	 0.986574
O	 -3.070195	 -1.719082	 0.360483
C	 -1.821101	 -1.311413	 0.856630
C	 -1.177863	 -0.397191	 -0.171080
H	 -1.938051	 -0.784849	 1.802865
H	 -1.181781	 -2.173889	 1.040331
C	 0.198102	 0.111031	 0.262842
H	 -1.846917	 0.440089	 -0.350128
H	 -1.098702	 -0.939585	 -1.109173
C	 1.331804	 -0.827780	 -0.158768
H	 0.361943	 1.100838	 -0.156218
H	 0.217265	 0.229072	 1.345532
C	 2.723619	 -0.410569	 0.329459
H	 1.342964	 -0.912588	 -1.244120
H	 1.116806	 -1.824343	 0.220779
C	 3.243875	 0.895854	 -0.272975
H	 3.424222	 -1.207124	 0.091250
H	 2.714788	 -0.329854	 1.414619
H	 3.251977	 0.848779	 -1.358681
H	 2.637085	 1.747371	 0.016682
H	 4.259473	 1.094070	 0.055697

	symmetry c1
}
set optking {
	frozen_dihedral = ("
		8 4 7 10
	")
}

ee = optimize('scf')
oeprop('DIPOLE', 'QUADRUPOLE', 'MULLIKEN_CHARGES')
f=open( 'psi4out.xyz', 'w' )
f.write( "21  " )
f.write( str(ee) + "\n" )
f.write( MOL.save_string_xyz() )
f.close()
--------------------------------------------------------------------------

    Molecular point group: c1
  Charge       = 0
  Multiplicity = 1
  Basis Set: 6-31G*
  Basis Set:
  @DF-RHF Final Energy:  -310.20975583627205
    Total Energy =                       -310.2097558362722793
    Molecular point group: c1
  Basis Set: 6-31G*
  Basis Set:
  Basis Set: 6-31G*
  Basis Set:
  @DF-RHF Final Energy:  -310.20997427062809
    Total Energy =                       -310.2099742706282655
  Basis Set: 6-31G*
  Basis Set:
  Basis Set: 6-31G*
  Basis Set:
  @DF-RHF Final Energy:  -310.21001062968389
    Total Energy =                       -310.2100106296840067
  Basis Set: 6-31G*
  Basis Set:
  Basis Set: 6-31G*
  Basis Set:
  @DF-RHF Final Energy:  -310.21000689967281
    Total Energy =                       -310.2100068996726918
  Basis Set: 6-31G*
  Basis Set:
  Basis Set: 6-31G*
  Basis Set:
  @DF-RHF Final Energy:  -310.21002011238863
    Total Energy =                       -310.2100201123885199
  Basis Set: 6-31G*
  Basis Set:
  Charge       = 0
  Multiplicity = 1
  Basis Set: 6-31G*
  Basis Set:

    Orbital Energies (a.u.)
    -----------------------

    Doubly Occupied:

       1A    -20.551897     2A    -11.267154     3A    -11.215789
       4A    -11.215678     5A    -11.214241     6A    -11.210585
       7A    -11.208307     8A     -1.358804     9A     -1.085934
      10A     -1.031987    11A     -0.952244    12A     -0.880342
      13A     -0.809657    14A     -0.776147    15A     -0.694297
      16A     -0.649224    17A     -0.630658    18A     -0.608777
      19A     -0.587486    20A     -0.562885    21A     -0.542922
      22A     -0.518404    23A     -0.511261    24A     -0.493370
      25A     -0.475775    26A     -0.460475    27A     -0.451675
      28A     -0.447551    29A     -0.430244

  @DF-RHF Final Energy:  -310.21002027174353

   => Energetics <=

    Nuclear Repulsion Energy =            314.8784813462410170
    One-Electron Energy =               -1044.4894682098006342
    Two-Electron Energy =                 419.4009665918156315
    DFT Exchange-Correlation Energy =       0.0000000000000000
    Empirical Dispersion Energy =           0.0000000000000000
    PCM Polarization Energy =               0.0000000000000000
    EFP Energy =                            0.0000000000000000
    Total Energy =                       -310.2100202717440425
    Molecular point group: c1
  Basis Set: 6-31G*
  Basis Set:

  -Total Gradient:
     Atom            X                  Y                   Z
    ------   -----------------  -----------------  -----------------
       1        0.000012536250     0.000002986593     0.000002446451
       2        0.000011986757     0.000009539954    -0.000009315817
       3       -0.000008132444     0.000001692661     0.000011381290
       4       -0.000775732505     0.000296879294     0.002247319874
       5       -0.000001289033     0.000001045436    -0.000000402602
       6       -0.000003613177    -0.000003223989    -0.000003512831
       7       -0.000026213547    -0.001147214701     0.001540232682
       8        0.000643702608     0.000015716331    -0.002285845306
       9       -0.000002148555    -0.000000131200    -0.000001234311
      10        0.000146451316     0.000830866336    -0.001484354442
      11        0.000000871491     0.000000216898     0.000000922727
      12        0.000004967855     0.000001480065    -0.000000218376
      13        0.000002669880    -0.000013681902    -0.000014970991
      14        0.000006211394     0.000009135484     0.000003212498
      15        0.000007671291    -0.000003478723     0.000000630710
      16       -0.000005581759     0.000004049072    -0.000003384365
      17       -0.000003820671    -0.000009565119     0.000001665992
      18       -0.000007732367     0.000003336021    -0.000004368185
      19        0.000004341486     0.000000323028    -0.000001715705
      20       -0.000004723766     0.000002113050    -0.000001867315
      21       -0.000002422502    -0.000002084586     0.000003378021

  **** Optimization is complete! (in 6 steps) ****
    Final optimized geometry and variables:
    Molecular point group: c1

    Geometry (in Angstrom), charge = 0, multiplicity = 1:

    H           -3.621405628424    -1.764622986786     0.816839428714
    O           -3.202398332444    -1.200709797742     0.182519794406
    C           -1.972549922748    -0.750944116822     0.689535753558
    C           -1.337294403361     0.158386686909    -0.348215533872
    H           -2.118434768731    -0.203182879614     1.619523697529
    H           -1.318275144038    -1.593522564111     0.907290233789
    C            0.057792759447     0.663961402657     0.053600311416
    H           -2.006673837753     0.992850176549    -0.532213237240
    H           -1.278327562648    -0.386872023367    -1.286298138322
    C            1.191403734184    -0.280471677249    -0.362323061406
    H            0.220723300709     1.635126463232    -0.402550959969
    H            0.095674795422     0.829879024636     1.129705759046
    C            2.580514210674     0.128526090010     0.140241475241
    H            1.208965969244    -0.352034556472    -1.448266648693
    H            0.976884680665    -1.282875242652     0.002183068113
    C            3.099785987370     1.449143875862    -0.431483849058
    H            3.283948373211    -0.661202602337    -0.112145192037
    H            2.567148283813     0.186171131050     1.226894504422
    H            3.109657266281     1.426858975928    -1.517961484149
    H            2.491317403061     2.292846716401    -0.123340551419
    H            4.114601716963     1.641003529133    -0.096741505078

  Mulliken Charges: (a.u.)
   Center  Symbol    Alpha    Beta     Spin     Total
       1     H     0.28122  0.28122  0.00000  0.43756
       2     O     4.37151  4.37151  0.00000 -0.74301
       3     C     2.99141  2.99141  0.00000  0.01718
       4     C     3.16175  3.16175  0.00000 -0.32350
       5     H     0.43253  0.43253  0.00000  0.13495
       6     H     0.43222  0.43222  0.00000  0.13557
       7     C     3.16524  3.16524  0.00000 -0.33047
       8     H     0.41278  0.41278  0.00000  0.17444
       9     H     0.41345  0.41345  0.00000  0.17311
      10     C     3.15316  3.15316  0.00000 -0.30631
      11     H     0.41610  0.41610  0.00000  0.16780
      12     H     0.42444  0.42444  0.00000  0.15112
      13     C     3.15237  3.15237  0.00000 -0.30474
      14     H     0.42202  0.42202  0.00000  0.15597
      15     H     0.42263  0.42263  0.00000  0.15474
      16     C     3.24148  3.24148  0.00000 -0.48296
      17     H     0.42087  0.42087  0.00000  0.15826
      18     H     0.42392  0.42392  0.00000  0.15215
      19     H     0.42183  0.42183  0.00000  0.15634
      20     H     0.41990  0.41990  0.00000  0.16021
      21     H     0.41920  0.41920  0.00000  0.16160

   Total alpha = 29.00000, Total beta = 29.00000, Total charge = -0.00000
