  ==> Input File <==

--------------------------------------------------------------------------
set {
	reference rhf
	basis 6-31G*
}

set_num_threads( 4 )
memory 2 gb

molecule MOL {
0 1

H	 2.591676	 2.013956	 0.335017
O	 3.341076	 1.666752	 -0.126416
C	 3.569581	 0.339145	 0.272707
C	 2.539767	 -0.640285	 -0.279495
H	 4.553106	 0.084646	 -0.100901
H	 3.608576	 0.269204	 1.359154
C	 3.129198	 -1.706362	 -1.206275
H	 2.037743	 -1.120522	 0.556394
H	 1.784555	 -0.070319	 -0.818159
C	 2.063352	 -2.640198	 -1.786569
H	 3.863220	 -2.290055	 -0.657751
H	 3.662044	 -1.220774	 -2.023967
C	 2.589668	 -3.673907	 -2.788954
H	 1.556209	 -3.154440	 -0.972192
H	 1.305870	 -2.035783	 -2.281142
C	 3.525865	 -4.729597	 -2.194368
H	 1.737188	 -4.179776	 -3.237496
H	 3.097423	 -3.158933	 -3.603095
C	 3.939680	 -5.798292	 -3.208314
H	 3.035129	 -5.209120	 -1.348586
H	 4.420990	 -4.255792	 -1.798690
C	 4.879329	 -6.849725	 -2.619067
H	 3.050007	 -6.287978	 -3.598415
H	 4.421522	 -5.320108	 -4.058639
H	 4.413627	 -7.369003	 -1.786183
H	 5.152670	 -7.593609	 -3.361063
H	 5.796036	 -6.395827	 -2.253023

	symmetry c1
}
set optking {
	frozen_dihedral = ("
		8 4 3 2
	")
}

ee = optimize('scf')
oeprop('DIPOLE', 'QUADRUPOLE', 'MULLIKEN_CHARGES')
f=open( 'psi4out.xyz', 'w' )
f.write( "27  " )
f.write( str(ee) + "\n" )
f.write( MOL.save_string_xyz() )
f.close()
--------------------------------------------------------------------------

    Molecular point group: c1
  Charge       = 0
  Multiplicity = 1
  Basis Set: 6-31G*
  Basis Set:
  @DF-RHF Final Energy:  -388.27548595361975
    Total Energy =                       -388.2754859536197500
    Molecular point group: c1
  Basis Set: 6-31G*
  Basis Set:
  Basis Set: 6-31G*
  Basis Set:
  @DF-RHF Final Energy:  -388.27589737705591
    Total Energy =                       -388.2758973770562534
  Basis Set: 6-31G*
  Basis Set:
  Basis Set: 6-31G*
  Basis Set:
  @DF-RHF Final Energy:  -388.27598325381950
    Total Energy =                       -388.2759832538193905
  Basis Set: 6-31G*
  Basis Set:
  Basis Set: 6-31G*
  Basis Set:
  @DF-RHF Final Energy:  -388.27598749955507
    Total Energy =                       -388.2759874995551854
  Basis Set: 6-31G*
  Basis Set:
  Charge       = 0
  Multiplicity = 1
  Basis Set: 6-31G*
  Basis Set:

    Orbital Energies (a.u.)
    -----------------------

    Doubly Occupied:

       1A    -20.551281     2A    -11.266791     3A    -11.216398
       4A    -11.215633     5A    -11.214720     6A    -11.214408
       7A    -11.213451     8A    -11.212326     9A    -11.208085
      10A     -1.357639    11A     -1.093142    12A     -1.059791
      13A     -1.008956    14A     -0.943574    15A     -0.882875
      16A     -0.823808    17A     -0.803745    18A     -0.776857
      19A     -0.686300    20A     -0.648060    21A     -0.633497
      22A     -0.610484    23A     -0.608681    24A     -0.580020
      25A     -0.577290    26A     -0.555727    27A     -0.537320
      28A     -0.522776    29A     -0.510116    30A     -0.486274
      31A     -0.482962    32A     -0.475340    33A     -0.464211
      34A     -0.459445    35A     -0.454954    36A     -0.441965
      37A     -0.417138

  @DF-RHF Final Energy:  -388.27598736897596

   => Energetics <=

    Nuclear Repulsion Energy =            453.8925086462892295
    One-Electron Energy =               -1425.9049078589105193
    Two-Electron Energy =                 583.7364118436451008
    DFT Exchange-Correlation Energy =       0.0000000000000000
    Empirical Dispersion Energy =           0.0000000000000000
    PCM Polarization Energy =               0.0000000000000000
    EFP Energy =                            0.0000000000000000
    Total Energy =                       -388.2759873689761889
    Molecular point group: c1
  Basis Set: 6-31G*
  Basis Set:

  -Total Gradient:
     Atom            X                  Y                   Z
    ------   -----------------  -----------------  -----------------
       1       -0.000008484639     0.000017060808    -0.000006255302
       2       -0.000014164828     0.000044345442    -0.000005322275
       3        0.000045268082    -0.000006760377    -0.000006233566
       4       -0.000052533919    -0.000007785224    -0.000022369022
       5        0.000003974744    -0.000023743492     0.000007505987
       6       -0.000008812633    -0.000008136637    -0.000011790815
       7        0.000006965659    -0.000009697152     0.000024958241
       8        0.000013865251    -0.000033313999    -0.000000117144
       9        0.000010385363     0.000010630703     0.000017837256
      10       -0.000005368683    -0.000004345827    -0.000006194767
      11        0.000003593905    -0.000002586839    -0.000003954840
      12       -0.000003639506     0.000017672574     0.000014142358
      13        0.000020668830     0.000003573090     0.000009668553
      14        0.000015016918     0.000019975372     0.000016125438
      15       -0.000016878467    -0.000023929916    -0.000021497384
      16        0.000000878881    -0.000003108645    -0.000008695515
      17       -0.000003779319     0.000011159319    -0.000009473224
      18        0.000014735041     0.000009735384     0.000013774232
      19       -0.000014280979    -0.000005533488     0.000002696048
      20       -0.000000792729     0.000005199154     0.000013162513
      21       -0.000004824314    -0.000008839455    -0.000018465810
      22       -0.000000680555     0.000000264447     0.000000670199
      23       -0.000000757521    -0.000003171342    -0.000002742912
      24       -0.000000767800     0.000000729464     0.000003111220
      25        0.000000000111    -0.000000210537    -0.000000674991
      26        0.000000280581     0.000000291767    -0.000000382070
      27        0.000000132525     0.000000525410     0.000000517592

  **** Optimization is complete! (in 5 steps) ****
    Final optimized geometry and variables:
    Molecular point group: c1

    Geometry (in Angstrom), charge = 0, multiplicity = 1:

    H           -0.712245001671     4.599418591031     1.775594286378
    O            0.096116248952     4.272945001073     1.405936809853
    C            0.284697678932     2.938340794523     1.805285890881
    C           -0.771616399609     1.973547152877     1.231915517172
    H            1.271030038463     2.672394306494     1.447899566024
    H            0.313203969734     2.874003038573     2.890717672527
    C           -0.183023179541     0.903127685023     0.308771600303
    H           -1.314891954075     1.487878799883     2.039555906600
    H           -1.498877867641     2.560672494586     0.677716054987
    C           -1.245688077890    -0.037156143018    -0.264410326398
    H            0.561636603815     0.333096961352     0.859060235738
    H            0.345513628727     1.393108911193    -0.506950221039
    C           -0.717928765865    -1.067617378171    -1.269540859602
    H           -1.746753670866    -0.555526466129     0.551806524670
    H           -2.009457800097     0.562201396703    -0.755788546343
    C            0.225527520037    -2.118838991374    -0.678677450123
    H           -1.569215171886    -1.577277933760    -1.716195119008
    H           -0.214980356937    -0.548973304727    -2.084061885210
    C            0.639887261931    -3.185864815049    -1.694157321700
    H           -0.259637216378    -2.600781615390     0.169207853504
    H            1.119887384456    -1.640452110477    -0.287180175173
    C            1.586211866783    -4.233310752288    -1.108495431270
    H           -0.249136768240    -3.679337264988    -2.081089135480
    H            1.116683669812    -2.705575262637    -2.546052551188
    H            1.125705178041    -4.754880648518    -0.274065043473
    H            1.860195597399    -4.975913739397    -1.851568502891
    H            2.502139406515    -3.775334664653    -0.745675446530

  Mulliken Charges: (a.u.)
   Center  Symbol    Alpha    Beta     Spin     Total
       1     H     0.28365  0.28365  0.00000  0.43271
       2     O     4.36986  4.36986  0.00000 -0.73972
       3     C     2.99688  2.99688  0.00000  0.00624
       4     C     3.17191  3.17191  0.00000 -0.34382
       5     H     0.41329  0.41329  0.00000  0.17341
       6     H     0.42927  0.42927  0.00000  0.14145
       7     C     3.15998  3.15998  0.00000 -0.31996
       8     H     0.42208  0.42208  0.00000  0.15583
       9     H     0.41612  0.41612  0.00000  0.16775
      10     C     3.15381  3.15381  0.00000 -0.30762
      11     H     0.42116  0.42116  0.00000  0.15768
      12     H     0.41816  0.41816  0.00000  0.16368
      13     C     3.15336  3.15336  0.00000 -0.30672
      14     H     0.42443  0.42443  0.00000  0.15115
      15     H     0.42131  0.42131  0.00000  0.15738
      16     C     3.15263  3.15263  0.00000 -0.30526
      17     H     0.42193  0.42193  0.00000  0.15614
      18     H     0.42304  0.42304  0.00000  0.15391
      19     C     3.15118  3.15118  0.00000 -0.30236
      20     H     0.42505  0.42505  0.00000  0.14991
      21     H     0.42222  0.42222  0.00000  0.15556
      22     C     3.23915  3.23915  0.00000 -0.47830
      23     H     0.42325  0.42325  0.00000  0.15350
      24     H     0.42280  0.42280  0.00000  0.15440
      25     H     0.42212  0.42212  0.00000  0.15577
      26     H     0.41940  0.41940  0.00000  0.16119
      27     H     0.42196  0.42196  0.00000  0.15608

   Total alpha = 37.00000, Total beta = 37.00000, Total charge =  0.00000
