  ==> Input File <==

--------------------------------------------------------------------------
set {
	reference rhf
	basis 6-31G*
}

set_num_threads( 1 )
memory 2 gb

molecule MOL {
0 1

H	 1.631100	 -2.037133	 2.744345
O	 1.568969	 -1.821975	 1.818817
C	 0.780268	 -0.754768	 1.694579
C	 0.624473	 -0.343591	 0.253101
O	 0.282292	 -0.224924	 2.633888
C	 -0.265902	 0.883932	 0.072916
H	 1.622972	 -0.185014	 -0.140886
H	 0.225736	 -1.200224	 -0.284431
C	 -1.728698	 0.646073	 0.462102
H	 -0.209144	 1.219470	 -0.958188
H	 0.135059	 1.692851	 0.673903
C	 -2.482460	 -0.343073	 -0.431425
H	 -2.245265	 1.602650	 0.432430
H	 -1.779332	 0.308348	 1.496285
C	 -3.960546	 -0.461025	 -0.060175
H	 -2.395034	 -0.026811	 -1.468912
H	 -2.024850	 -1.327147	 -0.371646
H	 -4.472726	 -1.168004	 -0.705284
H	 -4.465146	 0.496508	 -0.151489
H	 -4.081218	 -0.800940	 0.964585

	symmetry c1
}
set optking {
	frozen_dihedral = ("
		16 12 9 6,
		12 9 6 10,
		5 3 4 7,
		1 2 3 5
	")
}

ee = energy('scf')
oeprop('DIPOLE', 'QUADRUPOLE', 'MULLIKEN_CHARGES')
f=open( 'psi4out.xyz', 'w' )
f.write( "20  " )
f.write( str(ee) + "\n" )
f.write( MOL.save_string_xyz() )
f.close()
--------------------------------------------------------------------------

    Molecular point group: c1

    Geometry (in Angstrom), charge = 0, multiplicity = 1:

       Center              X                  Y                   Z               Mass
    ------------   -----------------  -----------------  -----------------  -----------------
           H          2.259808001049    -1.704218137377     1.905622984353     1.007825032070
           O          2.197677001049    -1.489060137377     0.980094984353    15.994914619560
           C          1.408976001049    -0.421853137377     0.855856984353    12.000000000000
           C          1.253181001049    -0.010676137377    -0.585621015647    12.000000000000
           O          0.911000001049     0.107990862623     1.795165984353    15.994914619560
           C          0.362806001049     1.216846862623    -0.765806015647    12.000000000000
           H          2.251680001049     0.147900862623    -0.979608015647     1.007825032070
           H          0.854444001049    -0.867309137377    -1.123153015647     1.007825032070
           C         -1.099989998951     0.978987862623    -0.376620015647    12.000000000000
           H          0.419564001049     1.552384862623    -1.796910015647     1.007825032070
           H          0.763767001049     2.025765862623    -0.164819015647     1.007825032070
           C         -1.853751998951    -0.010158137377    -1.270147015647    12.000000000000
           H         -1.616556998951     1.935564862623    -0.406292015647     1.007825032070
           H         -1.150623998951     0.641262862623     0.657562984353     1.007825032070
           C         -3.331837998951    -0.128110137377    -0.898897015647    12.000000000000
           H         -1.766325998951     0.306103862623    -2.307634015647     1.007825032070
           H         -1.396141998951    -0.994232137377    -1.210368015647     1.007825032070
           H         -3.844017998951    -0.835089137377    -1.544006015647     1.007825032070
           H         -3.836437998951     0.829422862623    -0.990211015647     1.007825032070
           H         -3.452509998951    -0.468025137377     0.125862984353     1.007825032070

  Charge       = 0
  Multiplicity = 1
  Basis Set: 6-31G*
  Basis Set:

    Orbital Energies (a.u.)
    -----------------------

    Doubly Occupied:

       1A    -20.613913     2A    -20.553169     3A    -11.382587
       4A    -11.240220     5A    -11.223023     6A    -11.215603
       7A    -11.209497     8A    -11.208126     9A     -1.476285
      10A     -1.367757    11A     -1.093521    12A     -1.037537
      13A     -0.956823    14A     -0.869351    15A     -0.814361
      16A     -0.773357    17A     -0.702822    18A     -0.688107
      19A     -0.662769    20A     -0.632236    21A     -0.601736
      22A     -0.592532    23A     -0.573806    24A     -0.553431
      25A     -0.530900    26A     -0.512354    27A     -0.502007
      28A     -0.483412    29A     -0.467463    30A     -0.460786
      31A     -0.452201    32A     -0.437219

  @DF-RHF Final Energy:  -383.94697354230397

   => Energetics <=

    Nuclear Repulsion Energy =            387.7830626306162571
    One-Electron Energy =               -1291.6822350327122422
    Two-Electron Energy =                 519.9521988597919062
    DFT Exchange-Correlation Energy =       0.0000000000000000
    Empirical Dispersion Energy =           0.0000000000000000
    PCM Polarization Energy =               0.0000000000000000
    EFP Energy =                            0.0000000000000000
    Total Energy =                       -383.9469735423040220

  Mulliken Charges: (a.u.)
   Center  Symbol    Alpha    Beta     Spin     Total
       1     H     0.26787  0.26787  0.00000  0.46427
       2     O     4.35100  4.35100  0.00000 -0.70199
       3     C     2.62333  2.62333  0.00000  0.75334
       4     C     3.21405  3.21405  0.00000 -0.42810
       5     O     4.27923  4.27923  0.00000 -0.55847
       6     C     3.15639  3.15639  0.00000 -0.31277
       7     H     0.39556  0.39556  0.00000  0.20887
       8     H     0.39662  0.39662  0.00000  0.20676
       9     C     3.16289  3.16289  0.00000 -0.32578
      10     H     0.41772  0.41772  0.00000  0.16456
      11     H     0.40901  0.40901  0.00000  0.18198
      12     C     3.15389  3.15389  0.00000 -0.30778
      13     H     0.42146  0.42146  0.00000  0.15708
      14     H     0.40081  0.40081  0.00000  0.19838
      15     C     3.23873  3.23873  0.00000 -0.47745
      16     H     0.42475  0.42475  0.00000  0.15049
      17     H     0.42583  0.42583  0.00000  0.14833
      18     H     0.41983  0.41983  0.00000  0.16034
      19     H     0.42115  0.42115  0.00000  0.15770
      20     H     0.41989  0.41989  0.00000  0.16023

   Total alpha = 32.00000, Total beta = 32.00000, Total charge =  0.00000
