                              Psi4 1.0.54 Driver

  ==> Input File <==

--------------------------------------------------------------------------
set {
	reference rhf
	basis cc-pvtz
}

set_num_threads( 4 )
memory 2 gb

molecule MOL {
0 1

H	 -4.198709	 -0.277122	 0.876436
O	 -3.495922	 -0.510661	 0.298729
C	 -2.282118	 -0.001605	 0.784486
C	 -1.175688	 -0.398187	 -0.171891
H	 -2.329702	 1.082224	 0.867088
H	 -2.073415	 -0.396706	 1.776538
C	 0.196029	 0.106276	 0.266738
H	 -1.417467	 -0.010960	 -1.156684
H	 -1.165859	 -1.480158	 -0.256501
C	 1.330220	 -0.826136	 -0.155230
H	 0.359542	 1.097229	 -0.145561
H	 0.212134	 0.218135	 1.348778
C	 2.719700	 -0.407669	 0.328325
H	 1.339388	 -0.911200	 -1.239363
H	 1.119001	 -1.821953	 0.224128
C	 3.241564	 0.893452	 -0.276737
H	 3.418299	 -1.204729	 0.093035
H	 2.711776	 -0.323368	 1.411960
H	 3.254204	 0.841071	 -1.360784
H	 2.634460	 1.745075	 0.005842
H	 4.254264	 1.092401	 0.054971

	symmetry c1
}
set optking {
	frozen_dihedral = ("
		8 4 7 10
	")
}

ee,wfn = optimize('scf', return_wfn=True)
oeprop( wfn, 'DIPOLE', 'QUADRUPOLE', 'MULLIKEN_CHARGES')
f=open( 'psi4out.xyz', 'w' )
f.write( "21  " )
f.write( str(ee) + "\n" )
f.write( MOL.save_string_xyz() )
f.close()
--------------------------------------------------------------------------

    Molecular point group: c1
  Charge       = 0
  Multiplicity = 1
  Basis Set: CC-PVTZ
  Basis Set:
  @DF-RHF Final Energy:  -310.33034316217140
    Total Energy =                       -310.3303431621712321
    Molecular point group: c1
  Basis Set: CC-PVTZ
  Basis Set:
  Basis Set: CC-PVTZ
  Basis Set:
  @DF-RHF Final Energy:  -310.33053980632167
    Total Energy =                       -310.3305398063218945
  Basis Set: CC-PVTZ
  Basis Set:
  Basis Set: CC-PVTZ
  Basis Set:
  @DF-RHF Final Energy:  -310.33063904495026
    Total Energy =                       -310.3306390449499759
  Basis Set: CC-PVTZ
  Basis Set:
  Basis Set: CC-PVTZ
  Basis Set:
  @DF-RHF Final Energy:  -310.33063502568200
    Total Energy =                       -310.3306350256817723
  Basis Set: CC-PVTZ
  Basis Set:
  Basis Set: CC-PVTZ
  Basis Set:
  @DF-RHF Final Energy:  -310.33064990752291
    Total Energy =                       -310.3306499075230249
  Basis Set: CC-PVTZ
  Basis Set:
  Charge       = 0
  Multiplicity = 1
  Basis Set: CC-PVTZ
  Basis Set:

    Orbital Energies (a.u.)
    -----------------------

    Doubly Occupied:

       1A    -20.545410     2A    -11.265100     3A    -11.213242
       4A    -11.213086     5A    -11.211572     6A    -11.208861
       7A    -11.206005     8A     -1.363415     9A     -1.086763
      10A     -1.034060    11A     -0.955453    12A     -0.876152
      13A     -0.807769    14A     -0.779803    15A     -0.696921
      16A     -0.660868    17A     -0.621769    18A     -0.610391
      19A     -0.591444    20A     -0.561747    21A     -0.547643
      22A     -0.518708    23A     -0.506559    24A     -0.495096
      25A     -0.476594    26A     -0.458047    27A     -0.456434
      28A     -0.445134    29A     -0.436635

  @DF-RHF Final Energy:  -310.33065018200568

   => Energetics <=

    Nuclear Repulsion Energy =            312.7912509898141025
    One-Electron Energy =               -1040.5424402375515456
    Two-Electron Energy =                 417.4205390657320436
    DFT Exchange-Correlation Energy =       0.0000000000000000
    Empirical Dispersion Energy =           0.0000000000000000
    PCM Polarization Energy =               0.0000000000000000
    EFP Energy =                            0.0000000000000000
    Total Energy =                       -310.3306501820053995
    Molecular point group: c1
  Basis Set: CC-PVTZ
  Basis Set:

  -Total Gradient:
     Atom            X                  Y                   Z
    ------   -----------------  -----------------  -----------------
       1        0.000006001536     0.000005726052     0.000000002847
       2       -0.000010392891    -0.000019305333    -0.000021744597
       3        0.000020095967     0.000023865000     0.000053963761
       4        0.001951916716    -0.004172569340    -0.001238562530
       5       -0.000002124680    -0.000000976149    -0.000008402539
       6       -0.000001315657    -0.000004683689     0.000011447045
       7       -0.000076383442     0.002700829690    -0.002727176364
       8       -0.001634560810     0.002913694627     0.001676291292
       9        0.000013646070     0.000003641283    -0.000005475377
      10       -0.000244524563    -0.001458691286     0.002261920503
      11        0.000001839914     0.000009036774    -0.000019075008
      12       -0.000015365448    -0.000003236258     0.000015770165
      13       -0.000004812106     0.000013943423    -0.000000371730
      14        0.000001406445    -0.000008419099    -0.000000479159
      15        0.000004704356     0.000005292287     0.000005425709
      16       -0.000000375232    -0.000008622276     0.000000818889
      17       -0.000003422759     0.000010759264     0.000000912314
      18       -0.000001615372    -0.000003222337    -0.000005194890
      19       -0.000005923593     0.000002416837    -0.000001967368
      20       -0.000000530845    -0.000008275063     0.000002482151
      21        0.000001736390    -0.000001204408    -0.000000585111

  **** Optimization is complete! (in 6 steps) ****
    Final optimized geometry and variables:
    Molecular point group: c1

    Geometry (in Angstrom), charge = 0, multiplicity = 1:

    H           -4.219156861996    -0.076246133900     0.674183519718
    O           -3.514812488819    -0.305029937426     0.096504930434
    C           -2.290708920574     0.116265552548     0.636069400630
    C           -1.179048727826    -0.278191524108    -0.317538302922
    H           -2.288172057480     1.195143863345     0.780075119338
    H           -2.123812654066    -0.343647086366     1.607827175065
    C            0.191740042750     0.223378654397     0.150398665884
    H           -1.423877291123     0.144239655935    -1.285863301326
    H           -1.181622768147    -1.357220626598    -0.421939213504
    C            1.344150406843    -0.673640277660    -0.299190823998
    H            0.339912147510     1.239567214549    -0.196237874589
    H            0.207761499296     0.269777958545     1.237718125977
    C            2.730412695452    -0.215410759432     0.156013199950
    H            1.334585940361    -0.760612217470    -1.383682371617
    H            1.166081965413    -1.673689263659     0.085012020944
    C            3.214472281863     1.084856581597    -0.481355678338
    H            3.443582393043    -1.000800626711    -0.074655735193
    H            2.736131301676    -0.110762591504     1.238002773245
    H            3.215960393807     1.010066196223    -1.564066395830
    H            2.590840526342     1.927843741867    -0.209372505662
    H            4.225908763559     1.314256737025    -0.165859935461

  Mulliken Charges: (a.u.)
   Center  Symbol    Alpha    Beta     Spin     Total
       1     H     0.39735  0.39735  0.00000  0.20531
       2     O     4.19493  4.19493  0.00000 -0.38986
       3     C     2.96230  2.96230  0.00000  0.07540
       4     C     3.08451  3.08451  0.00000 -0.16903
       5     H     0.47461  0.47461  0.00000  0.05077
       6     H     0.47504  0.47504  0.00000  0.04993
       7     C     3.10580  3.10580  0.00000 -0.21160
       8     H     0.44963  0.44963  0.00000  0.10075
       9     H     0.45146  0.45146  0.00000  0.09708
      10     C     3.09427  3.09427  0.00000 -0.18854
      11     H     0.44926  0.44926  0.00000  0.10147
      12     H     0.45824  0.45824  0.00000  0.08353
      13     C     3.08997  3.08997  0.00000 -0.17995
      14     H     0.45256  0.45256  0.00000  0.09488
      15     H     0.44893  0.44893  0.00000  0.10215
      16     C     3.15171  3.15171  0.00000 -0.30341
      17     H     0.44842  0.44842  0.00000  0.10316
      18     H     0.45537  0.45537  0.00000  0.08926
      19     H     0.45455  0.45455  0.00000  0.09091
      20     H     0.45433  0.45433  0.00000  0.09133
      21     H     0.44677  0.44677  0.00000  0.10646

   Total alpha = 29.00000, Total beta = 29.00000, Total charge = -0.00000

*** Psi4 exiting successfully. Buy a developer a beer!
