  ==> Input File <==

--------------------------------------------------------------------------
set {
	reference rhf
	basis 6-31G*
}

set_num_threads( 4 )
memory 2 gb

molecule MOL {
0 1

H	 0.918550	 1.385733	 -1.798767
O	 1.200923	 1.601879	 -0.920474
C	 0.709265	 0.639550	 -0.033818
C	 -0.793441	 0.596080	 0.058728
H	 1.127029	 0.881241	 0.936884
H	 1.079861	 -0.351456	 -0.293799
C	 -1.530462	 -0.493172	 -0.025500
H	 -1.268471	 1.554324	 0.202247
H	 -1.092586	 -1.461565	 -0.186463
H	 -2.602122	 -0.450675	 0.050101

	symmetry c1
}
set optking {
	frozen_dihedral = ("
		5 3 4 7
	")
}

ee = optimize('scf')
oeprop('DIPOLE', 'QUADRUPOLE', 'MULLIKEN_CHARGES')
f=open( 'psi4out.xyz', 'w' )
f.write( "10  " )
f.write( str(ee) + "\n" )
f.write( MOL.save_string_xyz() )
f.close()
--------------------------------------------------------------------------

    Molecular point group: c1
  Charge       = 0
  Multiplicity = 1
  Basis Set: 6-31G*
  Basis Set:
  @DF-RHF Final Energy:  -191.91712873143058
    Total Energy =                       -191.9171287314306369
    Molecular point group: c1
  Basis Set: 6-31G*
  Basis Set:
  Basis Set: 6-31G*
  Basis Set:
  @DF-RHF Final Energy:  -191.91739518345213
    Total Energy =                       -191.9173951834521290
  Basis Set: 6-31G*
  Basis Set:
  Basis Set: 6-31G*
  Basis Set:
  @DF-RHF Final Energy:  -191.91746166629287
    Total Energy =                       -191.9174616662928656
  Basis Set: 6-31G*
  Basis Set:
  Basis Set: 6-31G*
  Basis Set:
  @DF-RHF Final Energy:  -191.91746595021692
    Total Energy =                       -191.9174659502169220
  Basis Set: 6-31G*
  Basis Set:
  Charge       = 0
  Multiplicity = 1
  Basis Set: 6-31G*
  Basis Set:

    Orbital Energies (a.u.)
    -----------------------

    Doubly Occupied:

       1A    -20.557857     2A    -11.276291     3A    -11.231666
       4A    -11.227293     5A     -1.365098     6A     -1.063989
       7A     -0.921225     8A     -0.776044     9A     -0.703349
      10A     -0.622683    11A     -0.613140    12A     -0.607506
      13A     -0.527533    14A     -0.490458    15A     -0.445223
      16A     -0.372654

  @DF-RHF Final Energy:  -191.91746633981191

   => Energetics <=

    Nuclear Repulsion Energy =            117.3838912664609495
    One-Electron Energy =                -492.9986979165439607
    Two-Electron Energy =                 183.6973403102711018
    DFT Exchange-Correlation Energy =       0.0000000000000000
    Empirical Dispersion Energy =           0.0000000000000000
    PCM Polarization Energy =               0.0000000000000000
    EFP Energy =                            0.0000000000000000
    Total Energy =                       -191.9174663398118810
    Molecular point group: c1
  Basis Set: 6-31G*
  Basis Set:

  -Total Gradient:
     Atom            X                  Y                   Z
    ------   -----------------  -----------------  -----------------
       1       -0.000007407227    -0.000013970655     0.000016670653
       2        0.000024068010     0.000023152530     0.000028696153
       3       -0.000010177686     0.001127606784     0.000087915974
       4       -0.000089748912    -0.000134019532    -0.001290780349
       5        0.000022289367    -0.000935533075     0.000221926415
       6       -0.000000792747    -0.000010909521     0.000017712226
       7        0.000068818018    -0.000057599135     0.000914295702
       8       -0.000003637434    -0.000000750937     0.000004174510
       9       -0.000004249635     0.000006959018     0.000005662908
      10        0.000000838244    -0.000004935477    -0.000006274193

  **** Optimization is complete! (in 5 steps) ****
    Final optimized geometry and variables:
    Molecular point group: c1

    Geometry (in Angstrom), charge = 0, multiplicity = 1:

    H            0.909969992498     0.784842523840    -1.511845112314
    O            1.227850710153     0.977272930502    -0.640213178958
    C            0.748218866484     0.001696620245     0.247642642965
    C           -0.753765831314    -0.017323899334     0.316317083486
    H            1.161113156497     0.257206757471     1.216017430058
    H            1.124121348077    -0.985305516997    -0.012930770210
    C           -1.492909006831    -1.106474090899     0.241649803158
    H           -1.219602609258     0.945452326258     0.454477497575
    H           -1.055915939539    -2.081009173466     0.101307519789
    H           -2.564709203076    -1.070548735494     0.321366521410

  Mulliken Charges: (a.u.)
   Center  Symbol    Alpha    Beta     Spin     Total
       1     H     0.28158  0.28158  0.00000  0.43684
       2     O     4.36859  4.36859  0.00000 -0.73717
       3     C     3.00861  3.00861  0.00000 -0.01722
       4     C     3.08522  3.08522  0.00000 -0.17043
       5     H     0.40968  0.40968  0.00000  0.18064
       6     H     0.42469  0.42469  0.00000  0.15062
       7     C     3.19791  3.19791  0.00000 -0.39582
       8     H     0.40281  0.40281  0.00000  0.19438
       9     H     0.41236  0.41236  0.00000  0.17529
      10     H     0.40857  0.40857  0.00000  0.18286

   Total alpha = 16.00000, Total beta = 16.00000, Total charge =  0.00000
