  ==> Input File <==

--------------------------------------------------------------------------
set {
	reference rhf
	basis 6-31G*
}

set_num_threads( 4 )
memory 2 gb

molecule MOL {
0 1

H	 2.176868	 -0.646004	 -0.217325
O	 1.337496	 -0.537251	 0.205931
C	 0.702312	 0.627605	 -0.264544
C	 -0.714990	 0.596302	 0.266387
H	 0.682322	 0.642550	 -1.350929
H	 1.215941	 1.520383	 0.085680
O	 -1.405996	 -0.526611	 -0.195820
H	 -1.257453	 1.468809	 -0.075599
H	 -0.688972	 0.618407	 1.353696
H	 -1.034634	 -1.289257	 0.229005

	symmetry c1
}
set optking {
	frozen_dihedral = ("
		10 7 4 3
	")
}

ee = optimize('scf')
oeprop('DIPOLE', 'QUADRUPOLE', 'MULLIKEN_CHARGES')
f=open( 'psi4out.xyz', 'w' )
f.write( "10  " )
f.write( str(ee) + "\n" )
f.write( MOL.save_string_xyz() )
f.close()
--------------------------------------------------------------------------

    Molecular point group: c1
  Charge       = 0
  Multiplicity = 1
  Basis Set: 6-31G*
  Basis Set:
  @DF-RHF Final Energy:  -228.92482211694542
    Total Energy =                       -228.9248221169453643
    Molecular point group: c1
  Basis Set: 6-31G*
  Basis Set:
  Basis Set: 6-31G*
  Basis Set:
  @DF-RHF Final Energy:  -228.92485728650288
    Total Energy =                       -228.9248572865028848
  Basis Set: 6-31G*
  Basis Set:
  Basis Set: 6-31G*
  Basis Set:
  @DF-RHF Final Energy:  -228.92493274923362
    Total Energy =                       -228.9249327492335055
  Basis Set: 6-31G*
  Basis Set:
  Charge       = 0
  Multiplicity = 1
  Basis Set: 6-31G*
  Basis Set:

    Orbital Energies (a.u.)
    -----------------------

    Doubly Occupied:

       1A    -20.565093     2A    -20.549873     3A    -11.273006
       4A    -11.268316     5A     -1.378581     6A     -1.351027
       7A     -1.001373     8A     -0.840706     9A     -0.726426
      10A     -0.683920    11A     -0.640725    12A     -0.602908
      13A     -0.575218    14A     -0.525000    15A     -0.492149
      16A     -0.450792    17A     -0.432642

  @DF-RHF Final Energy:  -228.92493418961269

   => Energetics <=

    Nuclear Repulsion Energy =            134.2645041257618743
    One-Electron Energy =                -579.6633697321633463
    Two-Electron Energy =                 216.4739314167887301
    DFT Exchange-Correlation Energy =       0.0000000000000000
    Empirical Dispersion Energy =           0.0000000000000000
    PCM Polarization Energy =               0.0000000000000000
    EFP Energy =                            0.0000000000000000
    Total Energy =                       -228.9249341896127703
    Molecular point group: c1
  Basis Set: 6-31G*
  Basis Set:

  -Total Gradient:
     Atom            X                  Y                   Z
    ------   -----------------  -----------------  -----------------
       1       -0.000006531057     0.000036982437    -0.000016622601
       2       -0.000038791196    -0.000010016543     0.000047132777
       3       -0.000499456289     0.000856882566    -0.001331901830
       4        0.000384823474    -0.001256619605     0.002208434895
       5        0.000017498689    -0.000006394732    -0.000016972924
       6       -0.000025518568    -0.000024138641     0.000019591672
       7        0.001798621762     0.000180591334    -0.002777444630
       8       -0.000013214162    -0.000049725512    -0.000031034973
       9       -0.000012640417    -0.000006929961     0.000012787484
      10       -0.001604792237     0.000279368659     0.001886030130

  **** Optimization is complete! (in 4 steps) ****
    Final optimized geometry and variables:
    Molecular point group: c1

    Geometry (in Angstrom), charge = 0, multiplicity = 1:

    H            2.191328432119    -0.637948553553    -0.210179903735
    O            1.358221366276    -0.525044223428     0.224244713934
    C            0.701660168534     0.614472472598    -0.275741254628
    C           -0.709949570182     0.586066019014     0.267467764020
    H            0.667893452556     0.597529709105    -1.361459918126
    H            1.206905289227     1.524816427624     0.041868154488
    O           -1.420242009481    -0.517288711069    -0.214852841142
    H           -1.243630963124     1.470591650894    -0.057905840555
    H           -0.679147811294     0.591513958434     1.354299944595
    H           -1.060335299243    -1.298529267468     0.182832761890

  Mulliken Charges: (a.u.)
   Center  Symbol    Alpha    Beta     Spin     Total
       1     H     0.27730  0.27730  0.00000  0.44540
       2     O     4.37680  4.37680  0.00000 -0.75361
       3     C     3.00639  3.00639  0.00000 -0.01279
       4     C     3.00210  3.00210  0.00000 -0.00420
       5     H     0.42274  0.42274  0.00000  0.15452
       6     H     0.43055  0.43055  0.00000  0.13890
       7     O     4.36995  4.36995  0.00000 -0.73990
       8     H     0.41671  0.41671  0.00000  0.16659
       9     H     0.42299  0.42299  0.00000  0.15402
      10     H     0.27447  0.27447  0.00000  0.45105

   Total alpha = 17.00000, Total beta = 17.00000, Total charge = -0.00000
