                              Psi4 1.0.54 Driver

  ==> Input File <==

--------------------------------------------------------------------------
set {
	reference rhf
	basis cc-pvtz
}

set_num_threads( 4 )
memory 2 gb

molecule MOL {
0 1

H	 2.685705	 -0.240584	 0.813346
N	 1.710434	 -0.036657	 0.826390
C	 0.946212	 -1.212819	 1.190325
C	 1.283016	 0.502775	 -0.448824
H	 1.278779	 -1.565554	 2.158999
H	 1.073416	 -2.027275	 0.474714
C	 -0.527130	 -0.854445	 1.260382
H	 1.859639	 1.393199	 -0.667915
H	 1.431499	 -0.203289	 -1.267998
C	 -0.190767	 0.858901	 -0.376619
H	 -0.683301	 -0.151883	 2.084159
H	 -1.106036	 -1.745047	 1.474426
N	 -0.976577	 -0.298712	 -0.000000
H	 -0.526462	 1.207155	 -1.346231
H	 -0.323766	 1.679498	 0.334382
C	 -2.391156	 -0.021003	 -0.000000
H	 -2.853954	 -0.458728	 -0.875714
H	 -2.853954	 -0.458728	 0.875714
H	 -2.614037	 1.049773	 -0.000000

	symmetry c1
}
set optking {
	frozen_dihedral = ("
		7 13 16 19
	")
}

ee,wfn = optimize('scf', return_wfn=True)
oeprop( wfn, 'DIPOLE', 'QUADRUPOLE', 'MULLIKEN_CHARGES')
f=open( 'psi4out.xyz', 'w' )
f.write( "19  " )
f.write( str(ee) + "\n" )
f.write( MOL.save_string_xyz() )
f.close()
--------------------------------------------------------------------------

    Molecular point group: c1
  Charge       = 0
  Multiplicity = 1
  Basis Set: CC-PVTZ
  Basis Set:
  @DF-RHF Final Energy:  -305.30313682266268
    Total Energy =                       -305.3031368226626228
    Molecular point group: c1
  Basis Set: CC-PVTZ
  Basis Set:
  Basis Set: CC-PVTZ
  Basis Set:
  @DF-RHF Final Energy:  -305.30371222188683
    Total Energy =                       -305.3037122218867125
  Basis Set: CC-PVTZ
  Basis Set:
  Basis Set: CC-PVTZ
  Basis Set:
  @DF-RHF Final Energy:  -305.30384080318117
    Total Energy =                       -305.3038408031810036
  Basis Set: CC-PVTZ
  Basis Set:
  Basis Set: CC-PVTZ
  Basis Set:
  @DF-RHF Final Energy:  -305.30384947158058
    Total Energy =                       -305.3038494715804063
  Basis Set: CC-PVTZ
  Basis Set:
  Charge       = 0
  Multiplicity = 1
  Basis Set: CC-PVTZ
  Basis Set:

    Orbital Energies (a.u.)
    -----------------------

    Doubly Occupied:

       1A    -15.532410     2A    -15.530763     3A    -11.236629
       4A    -11.236565     5A    -11.235776     6A    -11.235727
       7A    -11.233034     8A     -1.246411     9A     -1.185269
      10A     -1.023895    11A     -0.965180    12A     -0.861687
      13A     -0.858871    14A     -0.756045    15A     -0.691905
      16A     -0.632753    17A     -0.625247    18A     -0.606622
      19A     -0.604733    20A     -0.582277    21A     -0.544860
      22A     -0.533066    23A     -0.513280    24A     -0.488655
      25A     -0.468630    26A     -0.457654    27A     -0.365570
      28A     -0.339350

  @DF-RHF Final Energy:  -305.30385006836832

   => Energetics <=

    Nuclear Repulsion Energy =            339.7440613799064977
    One-Electron Energy =               -1086.9100997920877489
    Two-Electron Energy =                 441.8621883438131590
    DFT Exchange-Correlation Energy =       0.0000000000000000
    Empirical Dispersion Energy =           0.0000000000000000
    PCM Polarization Energy =               0.0000000000000000
    EFP Energy =                            0.0000000000000000
    Total Energy =                       -305.3038500683680923
    Molecular point group: c1
  Basis Set: CC-PVTZ
  Basis Set:

  -Total Gradient:
     Atom            X                  Y                   Z
    ------   -----------------  -----------------  -----------------
       1        0.000010916610    -0.000001160113     0.000005657380
       2       -0.000000559830     0.000001180299     0.000007536131
       3        0.000002618021    -0.000006253416     0.000014450144
       4       -0.000004057430     0.000006928934    -0.000008453072
       5        0.000009398286    -0.000000500307    -0.000001245657
       6       -0.000007961636    -0.000001309479     0.000001571333
       7       -0.000453054535    -0.002446728822    -0.000995854407
       8        0.000001691356    -0.000002802979     0.000002113013
       9       -0.000003842023     0.000003083890    -0.000005796239
      10       -0.000026684927     0.000013185070    -0.000023836823
      11        0.000004936254    -0.000004314006    -0.000004491059
      12        0.000005000661    -0.000002835340     0.000011056049
      13        0.000700522417     0.003457182095     0.000427429358
      14        0.000003625408     0.000012398509    -0.000005202809
      15        0.000000745525    -0.000005050988    -0.000000335233
      16       -0.000424099799    -0.001112239569     0.004066936136
      17        0.000006515852     0.000003758935     0.000006450149
      18        0.000015436644    -0.000008115403    -0.000010490800
      19        0.000158853143     0.000093592689    -0.003487493596

  **** Optimization is complete! (in 5 steps) ****
    Final optimized geometry and variables:
    Molecular point group: c1

    Geometry (in Angstrom), charge = 0, multiplicity = 1:

    H            2.720920526743    -0.147377678540     0.422659027332
    N            1.750274262076     0.076614410420     0.449655353093
    C            0.967976956499    -1.083385887774     0.826530849447
    C            1.315433966386     0.622113918789    -0.820298022776
    H            1.315829279546    -1.449577245035     1.784925830024
    H            1.059398545253    -1.895955300269     0.103000423607
    C           -0.495582861895    -0.693732851117     0.934061513647
    H            1.911955913383     1.495654948507    -1.054180302786
    H            1.430487101031    -0.091941805728    -1.638151411441
    C           -0.146813423845     1.018067562216    -0.723497163262
    H           -0.616858612914    -0.008334396747     1.778503053548
    H           -1.085843009865    -1.577922459406     1.140880700648
    N           -0.953226801966    -0.107280875202    -0.307240193155
    H           -0.492596110383     1.355498432244    -1.693859914366
    H           -0.242731127306     1.858067393057    -0.029008370011
    C           -2.378061778226     0.155082075798    -0.356460191389
    H           -2.810701690131    -0.237508444031    -1.271535399455
    H           -2.888886816741    -0.310874152968     0.475953331236
    H           -2.599536549206     1.220314073726    -0.335009498913

  Mulliken Charges: (a.u.)
   Center  Symbol    Alpha    Beta     Spin     Total
       1     H     0.43992  0.43992  0.00000  0.12015
       2     N     3.64275  3.64275  0.00000 -0.28550
       3     C     3.04183  3.04183  0.00000 -0.08366
       4     C     3.04189  3.04189  0.00000 -0.08379
       5     H     0.45272  0.45272  0.00000  0.09457
       6     H     0.46629  0.46629  0.00000  0.06741
       7     C     3.03340  3.03340  0.00000 -0.06681
       8     H     0.45271  0.45271  0.00000  0.09457
       9     H     0.46620  0.46620  0.00000  0.06761
      10     C     3.03403  3.03403  0.00000 -0.06807
      11     H     0.46953  0.46953  0.00000  0.06094
      12     H     0.45421  0.45421  0.00000  0.09158
      13     N     3.61616  3.61616  0.00000 -0.23232
      14     H     0.45402  0.45402  0.00000  0.09197
      15     H     0.46899  0.46899  0.00000  0.06203
      16     C     3.09270  3.09270  0.00000 -0.18541
      17     H     0.45088  0.45088  0.00000  0.09824
      18     H     0.45738  0.45738  0.00000  0.08524
      19     H     0.46438  0.46438  0.00000  0.07124

   Total alpha = 28.00000, Total beta = 28.00000, Total charge =  0.00000

*** Psi4 exiting successfully. Buy a developer a beer!
