  ==> Input File <==

--------------------------------------------------------------------------
set {
	reference rhf
	basis 6-31G*
}

set_num_threads( 1 )
memory 2 gb

molecule MOL {
0 1

O	 -2.705600	 -0.542507	 0.609111
C	 -1.921153	 0.064240	 -0.045697
C	 -2.248527	 0.816048	 -1.307425
O	 -0.632575	 0.154573	 0.251549
H	 -1.666126	 0.419929	 -2.131347
H	 -3.302782	 0.723444	 -1.521451
H	 -1.983546	 1.860491	 -1.190462
C	 0.160891	 -1.019931	 0.106212
C	 1.589627	 -0.672828	 0.480843
H	 0.089836	 -1.367806	 -0.916050
H	 -0.238459	 -1.792301	 0.749618
C	 2.246377	 0.346236	 -0.452210
H	 2.163194	 -1.597435	 0.473358
H	 1.604769	 -0.303424	 1.502885
C	 3.691736	 0.652107	 -0.061850
H	 2.219579	 -0.032311	 -1.472055
H	 1.666466	 1.263317	 -0.447249
H	 4.134505	 1.377213	 -0.737283
H	 4.305508	 -0.243868	 -0.089969
H	 3.748266	 1.059562	 0.943567

	symmetry c1
}
set optking {
	frozen_dihedral = ("
		16 12 9 8,
		2 4 8 10,
		12 9 8 10
	")
}

ee = energy('scf')
oeprop('DIPOLE', 'QUADRUPOLE', 'MULLIKEN_CHARGES')
f=open( 'psi4out.xyz', 'w' )
f.write( "20  " )
f.write( str(ee) + "\n" )
f.write( MOL.save_string_xyz() )
f.close()
--------------------------------------------------------------------------

    Molecular point group: c1

    Geometry (in Angstrom), charge = 0, multiplicity = 1:

       Center              X                  Y                   Z               Mass
    ------------   -----------------  -----------------  -----------------  -----------------
           O         -2.720024917877    -0.520135209599     0.664843393221    15.994914619560
           C         -1.935577917877     0.086611790401     0.010035393221    12.000000000000
           C         -2.262951917877     0.838419790401    -1.251692606779    12.000000000000
           O         -0.646999917877     0.176944790401     0.307281393221    15.994914619560
           H         -1.680550917877     0.442300790401    -2.075614606779     1.007825032070
           H         -3.317206917877     0.745815790401    -1.465718606779     1.007825032070
           H         -1.997970917877     1.882862790401    -1.134729606779     1.007825032070
           C          0.146466082123    -0.997559209599     0.161944393221    12.000000000000
           C          1.575202082123    -0.650456209599     0.536575393221    12.000000000000
           H          0.075411082123    -1.345434209599    -0.860317606779     1.007825032070
           H         -0.252883917877    -1.769929209599     0.805350393221     1.007825032070
           C          2.231952082123     0.368607790401    -0.396477606779    12.000000000000
           H          2.148769082123    -1.575063209599     0.529090393221     1.007825032070
           H          1.590344082123    -0.281052209599     1.558617393221     1.007825032070
           C          3.677311082123     0.674478790401    -0.006117606779    12.000000000000
           H          2.205154082123    -0.009939209599    -1.416322606779     1.007825032070
           H          1.652041082123     1.285688790401    -0.391516606779     1.007825032070
           H          4.120080082123     1.399584790401    -0.681550606779     1.007825032070
           H          4.291083082123    -0.221496209599    -0.034236606779     1.007825032070
           H          3.733841082123     1.081933790401     0.999299393221     1.007825032070

  Charge       = 0
  Multiplicity = 1
  Basis Set: 6-31G*
  Basis Set:

    Orbital Energies (a.u.)
    -----------------------

    Doubly Occupied:

       1A    -20.585873     2A    -20.552089     3A    -11.375331
       4A    -11.293341     5A    -11.233558     6A    -11.229180
       7A    -11.223256     8A    -11.215260     9A     -1.463160
      10A     -1.364953    11A     -1.087543    12A     -1.024715
      13A     -0.987605    14A     -0.884741    15A     -0.812982
      16A     -0.779574    17A     -0.693835    18A     -0.685484
      19A     -0.653951    20A     -0.635810    21A     -0.612731
      22A     -0.593867    23A     -0.573809    24A     -0.561601
      25A     -0.547351    26A     -0.530580    27A     -0.499870
      28A     -0.486656    29A     -0.479323    30A     -0.475502
      31A     -0.448027    32A     -0.436684

  @DF-RHF Final Energy:  -383.92828550366585

   => Energetics <=

    Nuclear Repulsion Energy =            385.5303514938154876
    One-Electron Energy =               -1286.8610913026973321
    Two-Electron Energy =                 517.4024543052164518
    DFT Exchange-Correlation Energy =       0.0000000000000000
    Empirical Dispersion Energy =           0.0000000000000000
    PCM Polarization Energy =               0.0000000000000000
    EFP Energy =                            0.0000000000000000
    Total Energy =                       -383.9282855036653928

  Mulliken Charges: (a.u.)
   Center  Symbol    Alpha    Beta     Spin     Total
       1     O     4.26207  4.26207  0.00000 -0.52415
       2     C     2.62464  2.62464  0.00000  0.75071
       3     C     3.28396  3.28396  0.00000 -0.56793
       4     O     4.31296  4.31296  0.00000 -0.62592
       5     H     0.40639  0.40639  0.00000  0.18721
       6     H     0.39904  0.39904  0.00000  0.20191
       7     H     0.39945  0.39945  0.00000  0.20111
       8     C     3.00391  3.00391  0.00000 -0.00782
       9     C     3.16414  3.16414  0.00000 -0.32828
      10     H     0.42247  0.42247  0.00000  0.15505
      11     H     0.40386  0.40386  0.00000  0.19229
      12     C     3.15520  3.15520  0.00000 -0.31039
      13     H     0.41857  0.41857  0.00000  0.16286
      14     H     0.40924  0.40924  0.00000  0.18152
      15     C     3.24067  3.24067  0.00000 -0.48134
      16     H     0.42507  0.42507  0.00000  0.14985
      17     H     0.41008  0.41008  0.00000  0.17985
      18     H     0.41731  0.41731  0.00000  0.16539
      19     H     0.42172  0.42172  0.00000  0.15657
      20     H     0.41925  0.41925  0.00000  0.16151

   Total alpha = 32.00000, Total beta = 32.00000, Total charge =  0.00000
