                              Psi4 1.0.54 Driver

  ==> Input File <==

--------------------------------------------------------------------------
set {
	reference rhf
	basis cc-pvtz
}

set_num_threads( 4 )
memory 2 gb

molecule MOL {
0 1

H	 -3.144994	 -1.202467	 -0.018751
O	 -2.321472	 -0.864941	 -0.318626
C	 -2.021813	 0.336996	 0.342658
C	 -0.669613	 0.837286	 -0.127252
H	 -2.780861	 1.084746	 0.127159
H	 -2.006390	 0.184138	 1.420053
C	 0.490865	 -0.082543	 0.241244
H	 -0.708709	 0.967192	 -1.204587
H	 -0.507562	 1.822272	 0.303070
C	 1.546818	 -0.180648	 -0.856001
H	 0.105375	 -1.071049	 0.463299
H	 0.957260	 0.279288	 1.155398
C	 2.710805	 -1.093663	 -0.485430
H	 1.081880	 -0.543804	 -1.768499
H	 1.926750	 0.812286	 -1.082768
H	 2.366988	 -2.103307	 -0.287122
H	 3.441601	 -1.143874	 -1.284630
H	 3.218869	 -0.738396	 0.405132

	symmetry c1
}
set optking {
	frozen_dihedral = ("
		10 7 4 8
	")
}

ee,wfn = optimize('scf', return_wfn=True)
oeprop( wfn, 'DIPOLE', 'QUADRUPOLE', 'MULLIKEN_CHARGES')
f=open( 'psi4out.xyz', 'w' )
f.write( "18  " )
f.write( str(ee) + "\n" )
f.write( MOL.save_string_xyz() )
f.close()
--------------------------------------------------------------------------

    Molecular point group: c1
  Charge       = 0
  Multiplicity = 1
  Basis Set: CC-PVTZ
  Basis Set:
  @DF-RHF Final Energy:  -271.28340048380187
    Total Energy =                       -271.2834004838019268
    Molecular point group: c1
  Basis Set: CC-PVTZ
  Basis Set:
  Basis Set: CC-PVTZ
  Basis Set:
  @DF-RHF Final Energy:  -271.28362551526737
    Total Energy =                       -271.2836255152674312
  Basis Set: CC-PVTZ
  Basis Set:
  Basis Set: CC-PVTZ
  Basis Set:
  @DF-RHF Final Energy:  -271.28367174909897
    Total Energy =                       -271.2836717490988576
  Basis Set: CC-PVTZ
  Basis Set:
  Charge       = 0
  Multiplicity = 1
  Basis Set: CC-PVTZ
  Basis Set:

    Orbital Energies (a.u.)
    -----------------------

    Doubly Occupied:

       1A    -20.546742     2A    -11.266382     3A    -11.210113
       4A    -11.207790     5A    -11.204924     6A    -11.201677
       7A     -1.364633     8A     -1.074602     9A     -1.009529
      10A     -0.913956    11A     -0.818872    12A     -0.784645
      13A     -0.708901    14A     -0.639551    15A     -0.627639
      16A     -0.584164    17A     -0.570126    18A     -0.559961
      19A     -0.523201    20A     -0.498291    21A     -0.491676
      22A     -0.468303    23A     -0.456169    24A     -0.448515
      25A     -0.431507

  @DF-RHF Final Energy:  -271.28367253935733

   => Energetics <=

    Nuclear Repulsion Energy =            250.2834860496998317
    One-Electron Energy =                -863.9105820438253431
    Two-Electron Energy =                 342.3434234547681285
    DFT Exchange-Correlation Energy =       0.0000000000000000
    Empirical Dispersion Energy =           0.0000000000000000
    PCM Polarization Energy =               0.0000000000000000
    EFP Energy =                            0.0000000000000000
    Total Energy =                       -271.2836725393573829
    Molecular point group: c1
  Basis Set: CC-PVTZ
  Basis Set:

  -Total Gradient:
     Atom            X                  Y                   Z
    ------   -----------------  -----------------  -----------------
       1       -0.000011532851     0.000013574424    -0.000002287453
       2        0.000030170155    -0.000011136663     0.000016564070
       3        0.000020837737    -0.000022390860     0.000035587567
       4       -0.003179455105    -0.004202428694    -0.000735201746
       5        0.000044316391    -0.000011632402    -0.000008862354
       6        0.000002398609    -0.000010692120    -0.000029943767
       7        0.002277561390     0.003373018358     0.001576610798
       8        0.002187446451     0.002768652404     0.000349525430
       9        0.000020287152     0.000037842338    -0.000006244335
      10       -0.001307447069    -0.002017486039    -0.001134441854
      11       -0.000052892152     0.000008070334    -0.000027761308
      12       -0.000090403736     0.000006528848    -0.000049838998
      13        0.000026423147     0.000070956573     0.000067555692
      14        0.000000724837    -0.000031321085     0.000017292361
      15        0.000035126326     0.000009639021    -0.000057220133
      16       -0.000026907270     0.000012240375    -0.000024912992
      17        0.000009616568     0.000024006557    -0.000002638639
      18        0.000013729422    -0.000017441370     0.000016217662

  **** Optimization is complete! (in 4 steps) ****
    Final optimized geometry and variables:
    Molecular point group: c1

    Geometry (in Angstrom), charge = 0, multiplicity = 1:

    H           -3.067179018069    -0.985967425066     0.202582001213
    O           -2.256443776041    -0.641928633968    -0.123421727960
    C           -1.928548061375     0.545592491858     0.550285482608
    C           -0.576539272534     1.028551870469     0.066317927738
    H           -2.679101864344     1.307752382733     0.357617905142
    H           -1.898301178428     0.376628480847     1.625048335776
    C            0.589526112109     0.096640938974     0.428702862238
    H           -0.617273879418     1.177608272288    -1.007493946768
    H           -0.403998667806     2.013885214387     0.490652728836
    C            1.654802444148     0.006829001844    -0.660843027083
    H            0.203581673379    -0.901002373699     0.606519081030
    H            1.043200407800     0.423225206780     1.359962797478
    C            2.831970726629    -0.881552487522    -0.274275002185
    H            1.194837323492    -0.374710770221    -1.567318402679
    H            2.019515104359     1.003317693989    -0.899047331889
    H            2.503018201890    -1.893222046589    -0.060931968594
    H            3.564386063601    -0.933304139412    -1.071903909461
    H            3.333735834274    -0.504908899083     0.611112561456

  Mulliken Charges: (a.u.)
   Center  Symbol    Alpha    Beta     Spin     Total
       1     H     0.39536  0.39536  0.00000  0.20928
       2     O     4.19903  4.19903  0.00000 -0.39805
       3     C     2.97476  2.97476  0.00000  0.05048
       4     C     3.09348  3.09348  0.00000 -0.18697
       5     H     0.46388  0.46388  0.00000  0.07224
       6     H     0.47256  0.47256  0.00000  0.05488
       7     C     3.08686  3.08686  0.00000 -0.17373
       8     H     0.45261  0.45261  0.00000  0.09478
       9     H     0.45241  0.45241  0.00000  0.09517
      10     C     3.08357  3.08357  0.00000 -0.16714
      11     H     0.45087  0.45087  0.00000  0.09826
      12     H     0.45580  0.45580  0.00000  0.08840
      13     C     3.15050  3.15050  0.00000 -0.30101
      14     H     0.45149  0.45149  0.00000  0.09702
      15     H     0.45636  0.45636  0.00000  0.08727
      16     H     0.45450  0.45450  0.00000  0.09100
      17     H     0.44938  0.44938  0.00000  0.10124
      18     H     0.45657  0.45657  0.00000  0.08686

   Total alpha = 25.00000, Total beta = 25.00000, Total charge =  0.00000

*** Psi4 exiting successfully. Buy a developer a beer!
