  ==> Input File <==

--------------------------------------------------------------------------
set {
	reference rhf
	basis 6-31G*
}

set_num_threads( 1 )
memory 2 gb

molecule MOL {
0 1

H	 -3.918559	 0.220437	 -1.318510
C	 -3.247892	 -0.443262	 -0.808245
C	 -2.076860	 -0.007332	 -0.404944
H	 -3.558167	 -1.457369	 -0.640240
O	 -1.180634	 -0.819263	 0.215062
H	 -1.750197	 1.006255	 -0.557021
C	 0.051604	 -1.018856	 -0.387932
C	 1.043764	 0.054862	 -0.001873
H	 -0.017620	 -1.041351	 -1.469781
H	 0.437898	 -1.966374	 -0.042284
F	 2.212596	 -0.199467	 -0.571921
F	 0.652529	 1.252447	 -0.405055
F	 1.230877	 0.110694	 1.300533

	symmetry c1
}
set optking {
	frozen_dihedral = ("
		11 8 7 9,
		3 5 7 9,
		6 3 2 1
	")
}

ee = energy('scf')
oeprop('DIPOLE', 'QUADRUPOLE', 'MULLIKEN_CHARGES')
f=open( 'psi4out.xyz', 'w' )
f.write( "13  " )
f.write( str(ee) + "\n" )
f.write( MOL.save_string_xyz() )
f.close()
--------------------------------------------------------------------------

    Molecular point group: c1

    Geometry (in Angstrom), charge = 0, multiplicity = 1:

       Center              X                  Y                   Z               Mass
    ------------   -----------------  -----------------  -----------------  -----------------
           H         -3.913045932936     0.309582119177    -1.209739081141     1.007825032070
           C         -3.242378932936    -0.354116880823    -0.699474081141    12.000000000000
           C         -2.071346932936     0.081813119177    -0.296173081141    12.000000000000
           H         -3.552653932936    -1.368223880823    -0.531469081141     1.007825032070
           O         -1.175120932936    -0.730117880823     0.323832918859    15.994914619560
           H         -1.744683932936     1.095400119177    -0.448250081141     1.007825032070
           C          0.057117067064    -0.929710880823    -0.279161081141    12.000000000000
           C          1.049277067064     0.144007119177     0.106897918859    12.000000000000
           H         -0.012106932936    -0.952205880823    -1.361010081141     1.007825032070
           H          0.443411067064    -1.877228880823     0.066486918859     1.007825032070
           F          2.218109067064    -0.110321880823    -0.463150081141    18.998403224000
           F          0.658042067064     1.341592119177    -0.296284081141    18.998403224000
           F          1.236390067064     0.199839119177     1.409303918859    18.998403224000

  Charge       = 0
  Multiplicity = 1
  Basis Set: 6-31G*
  Basis Set:

    Orbital Energies (a.u.)
    -----------------------

    Doubly Occupied:

       1A    -26.345949     2A    -26.343816     3A    -26.340490
       4A    -20.599156     5A    -11.502400     6A    -11.314914
       7A    -11.294128     8A    -11.225119     9A     -1.742249
      10A     -1.640890    11A     -1.638415    12A     -1.432131
      13A     -1.081843    14A     -1.017297    15A     -0.926222
      16A     -0.835909    17A     -0.831302    18A     -0.828271
      19A     -0.772513    20A     -0.723528    21A     -0.712734
      22A     -0.702593    23A     -0.675667    24A     -0.658319
      25A     -0.653802    26A     -0.643788    27A     -0.636331
      28A     -0.594945    29A     -0.567552    30A     -0.527745
      31A     -0.470550    32A     -0.369188

  @DF-RHF Final Energy:  -527.53364877833087

   => Energetics <=

    Nuclear Repulsion Energy =            413.0111877581959448
    One-Electron Energy =               -1549.7902271328423467
    Two-Electron Energy =                 609.2453905963153602
    DFT Exchange-Correlation Energy =       0.0000000000000000
    Empirical Dispersion Energy =           0.0000000000000000
    PCM Polarization Energy =               0.0000000000000000
    EFP Energy =                            0.0000000000000000
    Total Energy =                       -527.5336487783309849

  Mulliken Charges: (a.u.)
   Center  Symbol    Alpha    Beta     Spin     Total
       1     H     0.40616  0.40616  0.00000  0.18768
       2     C     3.21759  3.21759  0.00000 -0.43517
       3     C     2.91789  2.91789  0.00000  0.16422
       4     H     0.40210  0.40210  0.00000  0.19580
       5     O     4.30779  4.30779  0.00000 -0.61558
       6     H     0.39927  0.39927  0.00000  0.20146
       7     C     3.05581  3.05581  0.00000 -0.11162
       8     C     2.45962  2.45962  0.00000  1.08077
       9     H     0.40439  0.40439  0.00000  0.19122
      10     H     0.39170  0.39170  0.00000  0.21659
      11     F     4.68276  4.68276  0.00000 -0.36552
      12     F     4.68025  4.68025  0.00000 -0.36049
      13     F     4.67468  4.67468  0.00000 -0.34935

   Total alpha = 32.00000, Total beta = 32.00000, Total charge = -0.00000
