  ==> Input File <==

--------------------------------------------------------------------------
set {
	reference rhf
	basis 6-31G*
}

set_num_threads( 4 )
memory 2 gb

molecule MOL {
0 1

H	 3.089270	 -1.380733	 0.000000
O	 2.178328	 -1.639175	 0.000000
C	 1.368216	 -0.558384	 0.000000
C	 1.525107	 0.489238	 0.898431
C	 0.352736	 -0.517947	 -0.939466
H	 2.316024	 0.455798	 1.628752
C	 0.667302	 1.575569	 0.856911
H	 0.230446	 -1.326484	 -1.634008
C	 -0.501701	 0.573282	 -0.974273
H	 0.798596	 2.380291	 1.557313
C	 -0.350299	 1.624320	 -0.078634
C	 -1.594789	 0.623124	 -1.981023
H	 -1.017741	 2.467153	 -0.112671
O	 -1.806837	 -0.223844	 -2.788629
H	 -2.220924	 1.519397	 -1.937471

	symmetry c1
}
set optking {
	frozen_dihedral = ("
		4 3 2 1
	")
}

ee = optimize('scf')
oeprop('DIPOLE', 'QUADRUPOLE', 'MULLIKEN_CHARGES')
f=open( 'psi4out.xyz', 'w' )
f.write( "15  " )
f.write( str(ee) + "\n" )
f.write( MOL.save_string_xyz() )
f.close()
--------------------------------------------------------------------------

    Molecular point group: c1
  Charge       = 0
  Multiplicity = 1
  Basis Set: 6-31G*
  Basis Set:
  @DF-RHF Final Energy:  -418.28358979579184
    Total Energy =                       -418.2835897957918405
    Molecular point group: c1
  Basis Set: 6-31G*
  Basis Set:
  Basis Set: 6-31G*
  Basis Set:
  @DF-RHF Final Energy:  -418.28386497311504
    Total Energy =                       -418.2838649731154419
  Basis Set: 6-31G*
  Basis Set:
  Basis Set: 6-31G*
  Basis Set:
  @DF-RHF Final Energy:  -418.28377905226205
    Total Energy =                       -418.2837790522615933
  Basis Set: 6-31G*
  Basis Set:
  Basis Set: 6-31G*
  Basis Set:
  @DF-RHF Final Energy:  -418.28397536119417
    Total Energy =                       -418.2839753611948481
  Basis Set: 6-31G*
  Basis Set:
  Basis Set: 6-31G*
  Basis Set:
  @DF-RHF Final Energy:  -418.28398443677708
    Total Energy =                       -418.2839844367765636
  Basis Set: 6-31G*
  Basis Set:
  Charge       = 0
  Multiplicity = 1
  Basis Set: 6-31G*
  Basis Set:

    Orbital Energies (a.u.)
    -----------------------

    Doubly Occupied:

       1A    -20.593253     2A    -20.564448     3A    -11.332887
       4A    -11.307238     5A    -11.252505     6A    -11.251642
       7A    -11.250202     8A    -11.249881     9A    -11.241595
      10A     -1.410831    11A     -1.405042    12A     -1.169984
      13A     -1.048776    14A     -1.026732    15A     -0.898279
      16A     -0.844989    17A     -0.807982    18A     -0.737253
      19A     -0.699813    20A     -0.684474    21A     -0.642871
      22A     -0.636113    23A     -0.616519    24A     -0.606243
      25A     -0.556817    26A     -0.547507    27A     -0.538176
      28A     -0.505974    29A     -0.486293    30A     -0.423600
      31A     -0.352678    32A     -0.334478

  @DF-RHF Final Energy:  -418.28398606160829

   => Energetics <=

    Nuclear Repulsion Energy =            402.8071608264408496
    One-Electron Energy =               -1368.1321485645971734
    Two-Electron Energy =                 547.0410016765476939
    DFT Exchange-Correlation Energy =       0.0000000000000000
    Empirical Dispersion Energy =           0.0000000000000000
    PCM Polarization Energy =               0.0000000000000000
    EFP Energy =                            0.0000000000000000
    Total Energy =                       -418.2839860616086298
    Molecular point group: c1
  Basis Set: 6-31G*
  Basis Set:

  -Total Gradient:
     Atom            X                  Y                   Z
    ------   -----------------  -----------------  -----------------
       1        0.000091590704    -0.000008929884    -0.002028181280
       2       -0.000627409678    -0.000405047400     0.003026709305
       3        0.001618059915     0.001206800179    -0.001825773783
       4       -0.000938483297    -0.000864643236     0.000898715338
       5       -0.000116613138     0.000054766157    -0.000067283787
       6       -0.000002330619     0.000002815216     0.000013388429
       7       -0.000113696843     0.000100593243    -0.000116672584
       8        0.000001513184    -0.000006186943     0.000014407718
       9        0.000041824435    -0.000121780092    -0.000063037877
      10        0.000005882307    -0.000012003690     0.000002148969
      11        0.000061229561     0.000041572605     0.000153184842
      12       -0.000015132840     0.000009936609     0.000026164490
      13       -0.000011830479    -0.000004519128    -0.000013195361
      14        0.000004203213     0.000002899945    -0.000008068493
      15        0.000001193578     0.000003726424    -0.000012505928

  **** Optimization is complete! (in 6 steps) ****
    Final optimized geometry and variables:
    Molecular point group: c1

    Geometry (in Angstrom), charge = 0, multiplicity = 1:

    H            2.874994252870    -1.559555523276     0.645522923252
    O            1.962613296921    -1.811894714614     0.607800428961
    C            1.159350189897    -0.713692576875     0.566854449506
    C            1.310138585751     0.324922024272     1.478158306538
    C            0.139360781496    -0.677518144756    -0.362506628315
    H            2.093332468565     0.273296034681     2.214203301014
    C            0.454426666076     1.411248950373     1.441299233414
    H            0.016963515828    -1.484433775306    -1.058906774051
    C           -0.727094082668     0.408975468854    -0.386766919204
    H            0.581013450872     2.213075124259     2.145704760352
    C           -0.569834119389     1.455973102175     0.509564616573
    C           -1.826199269442     0.457693695492    -1.385157076123
    H           -1.241191837203     2.296304411355     0.482947896421
    O           -2.035194486025    -0.383907428707    -2.199597726053
    H           -2.460557149218     1.347601000846    -1.330412279572

  Mulliken Charges: (a.u.)
   Center  Symbol    Alpha    Beta     Spin     Total
       1     H     0.27104  0.27104  0.00000  0.45792
       2     O     4.38133  4.38133  0.00000 -0.76267
       3     C     2.80947  2.80947  0.00000  0.38105
       4     C     3.12055  3.12055  0.00000 -0.24109
       5     C     3.10911  3.10911  0.00000 -0.21822
       6     H     0.39409  0.39409  0.00000  0.21182
       7     C     3.09873  3.09873  0.00000 -0.19747
       8     H     0.37061  0.37061  0.00000  0.25879
       9     C     3.04907  3.04907  0.00000 -0.09815
      10     H     0.39283  0.39283  0.00000  0.21434
      11     C     3.11077  3.11077  0.00000 -0.22154
      12     C     2.83230  2.83230  0.00000  0.33540
      13     H     0.39251  0.39251  0.00000  0.21499
      14     O     4.24561  4.24561  0.00000 -0.49122
      15     H     0.42197  0.42197  0.00000  0.15605

   Total alpha = 32.00000, Total beta = 32.00000, Total charge = -0.00000
