                              Psi4 1.0.54 Driver

  ==> Input File <==

--------------------------------------------------------------------------
set {
	reference rhf
	basis cc-pvtz
}

set_num_threads( 4 )
memory 2 gb

molecule MOL {
0 1

H	 3.273419	 0.176595	 -0.102789
N	 2.433987	 -0.362316	 -0.080024
C	 1.263552	 0.494993	 0.021953
H	 2.497638	 -0.973615	 0.707122
C	 -0.016533	 -0.325589	 -0.026925
H	 1.280915	 1.180773	 -0.818522
H	 1.263064	 1.106893	 0.925038
C	 -1.280353	 0.525521	 0.047747
H	 -0.016686	 -0.912532	 -0.939714
H	 -0.014099	 -1.037598	 0.796369
C	 -1.437348	 1.466268	 -1.142353
H	 -1.267361	 1.107456	 0.965434
H	 -2.150828	 -0.121934	 0.110581
H	 -0.598181	 2.150010	 -1.213234
H	 -2.341013	 2.058958	 -1.058334
H	 -1.490308	 0.912840	 -2.074069

	symmetry c1
}
set optking {
	frozen_dihedral = ("
		12 8 5 9
	")
}

ee,wfn = optimize('scf', return_wfn=True)
oeprop( wfn, 'DIPOLE', 'QUADRUPOLE', 'MULLIKEN_CHARGES')
f=open( 'psi4out.xyz', 'w' )
f.write( "16  " )
f.write( str(ee) + "\n" )
f.write( MOL.save_string_xyz() )
f.close()
--------------------------------------------------------------------------

    Molecular point group: c1
  Charge       = 0
  Multiplicity = 1
  Basis Set: CC-PVTZ
  Basis Set:
  @DF-RHF Final Energy:  -212.39802777067021
    Total Energy =                       -212.3980277706701827
    Molecular point group: c1
  Basis Set: CC-PVTZ
  Basis Set:
  Basis Set: CC-PVTZ
  Basis Set:
  @DF-RHF Final Energy:  -212.39840924047664
    Total Energy =                       -212.3984092404764397
  Basis Set: CC-PVTZ
  Basis Set:
  Basis Set: CC-PVTZ
  Basis Set:
  @DF-RHF Final Energy:  -212.39867694162135
    Total Energy =                       -212.3986769416213178
  Basis Set: CC-PVTZ
  Basis Set:
  Basis Set: CC-PVTZ
  Basis Set:
  @DF-RHF Final Energy:  -212.39868878935039
    Total Energy =                       -212.3986887893506150
  Basis Set: CC-PVTZ
  Basis Set:
  Charge       = 0
  Multiplicity = 1
  Basis Set: CC-PVTZ
  Basis Set:

    Orbital Energies (a.u.)
    -----------------------

    Doubly Occupied:

       1A    -15.526459     2A    -11.237651     3A    -11.213223
       4A    -11.208199     5A    -11.205671     6A     -1.178297
       7A     -1.059689     8A     -0.955929     9A     -0.858601
      10A     -0.780315    11A     -0.665873    12A     -0.630239
      13A     -0.607421    14A     -0.596927    15A     -0.548827
      16A     -0.522223    17A     -0.516762    18A     -0.467260
      19A     -0.466525    20A     -0.455414    21A     -0.384009

  @DF-RHF Final Energy:  -212.39868932296835

   => Energetics <=

    Nuclear Repulsion Energy =            188.8961086112031751
    One-Electron Energy =                -660.4185664363990327
    Two-Electron Energy =                 259.1237685022276196
    DFT Exchange-Correlation Energy =       0.0000000000000000
    Empirical Dispersion Energy =           0.0000000000000000
    PCM Polarization Energy =               0.0000000000000000
    EFP Energy =                            0.0000000000000000
    Total Energy =                       -212.3986893229682096
    Molecular point group: c1
  Basis Set: CC-PVTZ
  Basis Set:

  -Total Gradient:
     Atom            X                  Y                   Z
    ------   -----------------  -----------------  -----------------
       1       -0.000012023503     0.000004032940     0.000003565960
       2       -0.000018074825    -0.000006374678     0.000020770158
       3       -0.000015221978     0.000018240817    -0.000031731411
       4        0.000008438168    -0.000009434137     0.000003254953
       5       -0.000002970743    -0.000016541508    -0.000012625092
       6       -0.000014473070     0.000020388202    -0.000007954093
       7        0.000014826730    -0.000009580684     0.000003485579
       8        0.000018435867     0.000013517806     0.000031871547
       9        0.000013505900    -0.000002684966    -0.000009407698
      10       -0.000009137950     0.000001224154     0.000000713440
      11        0.000003805825    -0.000025081807    -0.000002639994
      12       -0.000005060338     0.000011686707     0.000011913128
      13        0.000009221215     0.000000838187    -0.000005318264
      14        0.000008647858    -0.000004626132     0.000003831096
      15       -0.000001096627    -0.000001779031     0.000002707371
      16        0.000001177468     0.000006174132    -0.000012436681

  **** Optimization is complete! (in 5 steps) ****
    Final optimized geometry and variables:
    Molecular point group: c1

    Geometry (in Angstrom), charge = 0, multiplicity = 1:

    H            3.060881511418    -0.264376025642     0.267530652673
    N            2.204677124657    -0.776036325869     0.242627920566
    C            1.057848936968     0.117768539782     0.276033397441
    H            2.203497986395    -1.388396691492     1.031449532595
    C           -0.237921126643    -0.672503605080     0.149714873443
    H            1.155560373994     0.804445079916    -0.555961840903
    H            1.018450208565     0.724825494532     1.182152241826
    C           -1.509373442259     0.172540311398     0.231612099904
    H           -0.217637863266    -1.224874013536    -0.784410962602
    H           -0.264365656404    -1.415287560186     0.943632269734
    C           -1.699608128367     1.148673780915    -0.927247150417
    H           -1.519675010717     0.721092901401     1.169945988544
    H           -2.362678659235    -0.497318661127     0.265548528286
    H           -0.925443087073     1.906372446042    -0.951178210117
    H           -2.651879443398     1.660318439243    -0.846447983417
    H           -1.683212718806     0.629384659107    -1.879921880792

  Mulliken Charges: (a.u.)
   Center  Symbol    Alpha    Beta     Spin     Total
       1     H     0.43003  0.43003  0.00000  0.13994
       2     N     3.68947  3.68947  0.00000 -0.37894
       3     C     3.02664  3.02664  0.00000 -0.05328
       4     H     0.43090  0.43090  0.00000  0.13819
       5     C     3.08689  3.08689  0.00000 -0.17378
       6     H     0.45544  0.45544  0.00000  0.08912
       7     H     0.46864  0.46864  0.00000  0.06271
       8     C     3.09493  3.09493  0.00000 -0.18986
       9     H     0.44950  0.44950  0.00000  0.10099
      10     H     0.45563  0.45563  0.00000  0.08875
      11     C     3.15184  3.15184  0.00000 -0.30368
      12     H     0.45616  0.45616  0.00000  0.08769
      13     H     0.44854  0.44854  0.00000  0.10293
      14     H     0.45480  0.45480  0.00000  0.09040
      15     H     0.44699  0.44699  0.00000  0.10602
      16     H     0.45360  0.45360  0.00000  0.09279

   Total alpha = 21.00000, Total beta = 21.00000, Total charge = -0.00000

*** Psi4 exiting successfully. Buy a developer a beer!
