                              Psi4 1.0.54 Driver

  ==> Input File <==

--------------------------------------------------------------------------
set {
	reference rhf
	basis cc-pvtz
}

set_num_threads( 4 )
memory 2 gb

molecule MOL {
0 1

O	 -0.988175	 -1.402891	 0.050086
C	 -0.675048	 -0.248293	 -0.009686
C	 -1.742492	 0.826599	 -0.011538
N	 0.622280	 0.144970	 -0.099307
H	 -1.692153	 1.431066	 -0.908439
H	 -2.698310	 0.331559	 0.031353
H	 -1.642148	 1.483784	 0.843455
C	 0.936587	 1.552358	 0.028828
C	 1.678392	 -0.676291	 -0.641444
H	 1.858978	 1.667279	 0.584895
H	 0.141407	 2.054232	 0.549398
H	 1.064814	 2.018635	 -0.944709
H	 2.605853	 -0.443872	 -0.134066
H	 1.482179	 -1.724789	 -0.496360
H	 1.826595	 -0.497846	 -1.704099

	symmetry c1
}
set optking {
	frozen_dihedral = ("
		8 4 2 3
	")
}

ee,wfn = optimize('scf', return_wfn=True)
oeprop( wfn, 'DIPOLE', 'QUADRUPOLE', 'MULLIKEN_CHARGES')
f=open( 'psi4out.xyz', 'w' )
f.write( "15  " )
f.write( str(ee) + "\n" )
f.write( MOL.save_string_xyz() )
f.close()
--------------------------------------------------------------------------

    Molecular point group: c1
  Charge       = 0
  Multiplicity = 1
  Basis Set: CC-PVTZ
  Basis Set:
  @DF-RHF Final Energy:  -286.12823844157572
    Total Energy =                       -286.1282384415758315
    Molecular point group: c1
  Basis Set: CC-PVTZ
  Basis Set:
  Basis Set: CC-PVTZ
  Basis Set:
  @DF-RHF Final Energy:  -286.12996937230150
    Total Energy =                       -286.1299693723018436
  Basis Set: CC-PVTZ
  Basis Set:
  Basis Set: CC-PVTZ
  Basis Set:
  @DF-RHF Final Energy:  -286.13275933977008
    Total Energy =                       -286.1327593397704163
  Basis Set: CC-PVTZ
  Basis Set:
  Basis Set: CC-PVTZ
  Basis Set:
  @DF-RHF Final Energy:  -286.13362278312616
    Total Energy =                       -286.1336227831261567
  Basis Set: CC-PVTZ
  Basis Set:
  @DF-RHF Final Energy:  -286.13399995159932
    Total Energy =                       -286.1339999515993213
  @DF-RHF Final Energy:  -286.13425436158889
    Total Energy =                       -286.1342543615886598
  @DF-RHF Final Energy:  -286.13458586354716
    Total Energy =                       -286.1345858635469313
  @DF-RHF Final Energy:  -286.13479579831761
    Total Energy =                       -286.1347957983172137
  @DF-RHF Final Energy:  -286.13501217107716
    Total Energy =                       -286.1350121710771646
  @DF-RHF Final Energy:  -286.13532190023079
    Total Energy =                       -286.1353219002307924
  @DF-RHF Final Energy:  -286.13543180354327
    Total Energy =                       -286.1354318035430992
  @DF-RHF Final Energy:  -286.13550457949822
    Total Energy =                       -286.1355045794982743
  @DF-RHF Final Energy:  -286.13552241270497
    Total Energy =                       -286.1355224127050860
  @DF-RHF Final Energy:  -286.13559143430183
    Total Energy =                       -286.1355914343017730
  @DF-RHF Final Energy:  -286.13560520720068
    Total Energy =                       -286.1356052072008538
  @DF-RHF Final Energy:  -286.13561419249470
    Total Energy =                       -286.1356141924946428
  Basis Set: CC-PVTZ
  Basis Set:
  @DF-RHF Final Energy:  -286.13562600177715
    Total Energy =                       -286.1356260017771547
  Basis Set: CC-PVTZ
  Basis Set:
  Basis Set: CC-PVTZ
  Basis Set:
  @DF-RHF Final Energy:  -286.13563471257510
    Total Energy =                       -286.1356347125749267
  Basis Set: CC-PVTZ
  Basis Set:
  Basis Set: CC-PVTZ
  Basis Set:
  @DF-RHF Final Energy:  -286.13563993583819
    Total Energy =                       -286.1356399358384124
  Basis Set: CC-PVTZ
  Basis Set:
  Charge       = 0
  Multiplicity = 1
  Basis Set: CC-PVTZ
  Basis Set:

    Orbital Energies (a.u.)
    -----------------------

    Doubly Occupied:

       1A    -20.503342     2A    -15.578572     3A    -11.335191
       4A    -11.263999     5A    -11.246429     6A    -11.226479
       7A     -1.387179     8A     -1.246405     9A     -1.015101
      10A     -0.973293    11A     -0.921021    12A     -0.739166
      13A     -0.683334    14A     -0.662002    15A     -0.653868
      16A     -0.590434    17A     -0.578159    18A     -0.567329
      19A     -0.561602    20A     -0.548501    21A     -0.530432
      22A     -0.507357    23A     -0.413557    24A     -0.370326

  @DF-RHF Final Energy:  -286.13564032810564

   => Energetics <=

    Nuclear Repulsion Energy =            252.8772096968424137
    One-Electron Energy =                -889.8195512323093226
    Two-Electron Energy =                 350.8067012073611295
    DFT Exchange-Correlation Energy =       0.0000000000000000
    Empirical Dispersion Energy =           0.0000000000000000
    PCM Polarization Energy =               0.0000000000000000
    EFP Energy =                            0.0000000000000000
    Total Energy =                       -286.1356403281057510
    Molecular point group: c1
  Basis Set: CC-PVTZ
  Basis Set:

  -Total Gradient:
     Atom            X                  Y                   Z
    ------   -----------------  -----------------  -----------------
       1        0.000000796121     0.000014494095    -0.000001219304
       2       -0.000041154088    -0.000025119323    -0.000063481478
       3        0.000003047101    -0.000000039927    -0.000015469956
       4        0.000082335706     0.000000860128     0.000073967884
       5        0.000000632797     0.000003275285     0.000015249326
       6        0.000004502261    -0.000006073619     0.000006122663
       7        0.000016775058    -0.000001233308     0.000007010946
       8       -0.000021036303     0.000029019771    -0.000041080740
       9       -0.000030723636    -0.000018910505     0.000006339176
      10       -0.000017938369     0.000004745889    -0.000018110281
      11        0.000010983834    -0.000002589524     0.000004292374
      12       -0.000002910203     0.000007919728     0.000018691834
      13        0.000001439611    -0.000002686852    -0.000003258743
      14        0.000002530565    -0.000006178108     0.000001373564
      15       -0.000009280456     0.000002516268     0.000009572734

  **** Optimization is complete! (in 20 steps) ****
    Final optimized geometry and variables:
    Molecular point group: c1

    Geometry (in Angstrom), charge = 0, multiplicity = 1:

    O           -0.951790925166    -1.429838816582     0.021875001678
    C           -0.639998336572    -0.282776303071     0.170353678199
    C           -1.596854394403     0.679273269319     0.844217157920
    N            0.550925716998     0.204159305857    -0.263925074689
    H           -1.859157082443     1.499822151369     0.188313414722
    H           -2.486307751997     0.125531270035     1.094637856028
    H           -1.168178577903     1.094068167179     1.748132485750
    C            1.055708396588     1.518728632313     0.051547315518
    C            1.521175110044    -0.710123873722    -0.827552009278
    H            1.731689330606     1.497260004366     0.903121706700
    H            0.260241772703     2.210892088354     0.266703643299
    H            1.605328013487     1.904671382565    -0.797835434802
    H            2.300557299274    -0.947831491137    -0.108256841588
    H            1.031456817285    -1.620669854098    -1.120863944240
    H            1.986539782298    -0.256764781219    -1.694623791259

  Mulliken Charges: (a.u.)
   Center  Symbol    Alpha    Beta     Spin     Total
       1     O     4.22111  4.22111  0.00000 -0.44222
       2     C     2.84577  2.84577  0.00000  0.30846
       3     C     3.16070  3.16070  0.00000 -0.32140
       4     N     3.56104  3.56104  0.00000 -0.12209
       5     H     0.44906  0.44906  0.00000  0.10188
       6     H     0.42858  0.42858  0.00000  0.14285
       7     H     0.44928  0.44928  0.00000  0.10143
       8     C     3.09523  3.09523  0.00000 -0.19047
       9     C     3.09918  3.09918  0.00000 -0.19836
      10     H     0.45457  0.45457  0.00000  0.09086
      11     H     0.44501  0.44501  0.00000  0.10997
      12     H     0.44986  0.44986  0.00000  0.10028
      13     H     0.45778  0.45778  0.00000  0.08445
      14     H     0.42606  0.42606  0.00000  0.14789
      15     H     0.45676  0.45676  0.00000  0.08647

   Total alpha = 24.00000, Total beta = 24.00000, Total charge =  0.00000

*** Psi4 exiting successfully. Buy a developer a beer!
