  ==> Input File <==

--------------------------------------------------------------------------
set {
	reference rhf
	basis 6-31G*
}

set_num_threads( 1 )
memory 2 gb

molecule MOL {
0 1

H	 -3.161837	 0.500524	 -0.000234
C	 -2.367097	 -0.232926	 -0.000000
O	 -1.158440	 0.455814	 -0.000122
H	 -2.468853	 -0.861886	 -0.882833
H	 -2.468942	 -0.861421	 0.883154
C	 -0.029776	 -0.365156	 0.000148
C	 0.091938	 -1.031618	 -1.359145
H	 -0.113492	 -1.118164	 0.784922
H	 0.862928	 0.224038	 0.214247
C	 1.306332	 -1.954500	 -1.450890
H	 -0.818881	 -1.590288	 -1.551390
H	 0.150768	 -0.257530	 -2.118109
H	 1.254856	 -2.751815	 -0.714641
H	 1.368840	 -2.415938	 -2.430693
H	 2.231504	 -1.409679	 -1.284666

	symmetry c1
}
set optking {
	frozen_dihedral = ("
		6 3 2 4,
		11 7 6 8
	")
}

ee = energy('scf')
oeprop('DIPOLE', 'QUADRUPOLE', 'MULLIKEN_CHARGES')
f=open( 'psi4out.xyz', 'w' )
f.write( "15  " )
f.write( str(ee) + "\n" )
f.write( MOL.save_string_xyz() )
f.close()
--------------------------------------------------------------------------

    Molecular point group: c1

    Geometry (in Angstrom), charge = 0, multiplicity = 1:

       Center              X                  Y                   Z               Mass
    ------------   -----------------  -----------------  -----------------  -----------------
           H         -2.706878104313     1.126180346090     0.551604145997     1.007825032070
           C         -1.912138104313     0.392730346090     0.551838145997    12.000000000000
           O         -0.703481104313     1.081470346090     0.551716145997    15.994914619560
           H         -2.013894104313    -0.236229653910    -0.330994854003     1.007825032070
           H         -2.013983104313    -0.235764653910     1.434992145997     1.007825032070
           C          0.425182895687     0.260500346090     0.551986145997    12.000000000000
           C          0.546896895687    -0.405961653910    -0.807306854003    12.000000000000
           H          0.341466895687    -0.492507653910     1.336760145997     1.007825032070
           H          1.317886895687     0.849694346090     0.766085145997     1.007825032070
           C          1.761290895687    -1.328843653910    -0.899051854003    12.000000000000
           H         -0.363922104313    -0.964631653910    -0.999551854003     1.007825032070
           H          0.605726895687     0.368126346090    -1.566270854003     1.007825032070
           H          1.709814895687    -2.126158653910    -0.162802854003     1.007825032070
           H          1.823798895687    -1.790281653910    -1.878854854003     1.007825032070
           H          2.686462895687    -0.784022653910    -0.732827854003     1.007825032070

  Charge       = 0
  Multiplicity = 1
  Basis Set: 6-31G*
  Basis Set:

    Orbital Energies (a.u.)
    -----------------------

    Doubly Occupied:

       1A    -20.552444     2A    -11.266944     3A    -11.263517
       4A    -11.214307     5A    -11.213658     6A     -1.379104
       7A     -1.055853     8A     -0.958556     9A     -0.885733
      10A     -0.805063    11A     -0.672787    12A     -0.658945
      13A     -0.634258    14A     -0.600490    15A     -0.567796
      16A     -0.530876    17A     -0.523315    18A     -0.499745
      19A     -0.483550    20A     -0.454912    21A     -0.405069

  @DF-RHF Final Energy:  -232.13281444806955

   => Energetics <=

    Nuclear Repulsion Energy =            193.3836003047027248
    One-Electron Energy =                -697.7789918368870303
    Two-Electron Energy =                 272.2625770841148665
    DFT Exchange-Correlation Energy =       0.0000000000000000
    Empirical Dispersion Energy =           0.0000000000000000
    PCM Polarization Energy =               0.0000000000000000
    EFP Energy =                            0.0000000000000000
    Total Energy =                       -232.1328144480694391

  Mulliken Charges: (a.u.)
   Center  Symbol    Alpha    Beta     Spin     Total
       1     H     0.41110  0.41110  0.00000  0.17780
       2     C     3.08332  3.08332  0.00000 -0.16665
       3     O     4.30354  4.30354  0.00000 -0.60707
       4     H     0.42927  0.42927  0.00000  0.14147
       5     H     0.43015  0.43015  0.00000  0.13971
       6     C     2.99015  2.99015  0.00000  0.01970
       7     C     3.16625  3.16625  0.00000 -0.33250
       8     H     0.43253  0.43253  0.00000  0.13494
       9     H     0.41497  0.41497  0.00000  0.17007
      10     C     3.24677  3.24677  0.00000 -0.49354
      11     H     0.42013  0.42013  0.00000  0.15974
      12     H     0.41371  0.41371  0.00000  0.17258
      13     H     0.42135  0.42135  0.00000  0.15729
      14     H     0.41645  0.41645  0.00000  0.16709
      15     H     0.42031  0.42031  0.00000  0.15937

   Total alpha = 21.00000, Total beta = 21.00000, Total charge =  0.00000
