                              Psi4 1.0.54 Driver

  ==> Input File <==

--------------------------------------------------------------------------
set {
	reference rhf
	basis cc-pvtz
}

set_num_threads( 4 )
memory 2 gb

molecule MOL {
0 1

H	 -2.362939	 -1.309000	 -0.383250
C	 -1.359344	 -1.272457	 0.020748
C	 -0.684082	 0.000127	 -0.464918
H	 -0.825835	 -2.151141	 -0.318537
H	 -1.416276	 -1.292399	 1.099455
C	 -1.359089	 1.272668	 0.021259
N	 0.742439	 -0.000109	 0.007333
H	 -0.596914	 0.000345	 -1.538146
H	 -2.362696	 1.309620	 -0.382686
H	 -0.825392	 2.151374	 -0.317674
H	 -1.415983	 1.292181	 1.099973
O	 1.201818	 1.036116	 0.352085
O	 1.318715	 -1.036542	 0.005609

	symmetry c1
}
set optking {
	frozen_dihedral = ("
		12 7 3 8
	")
}

ee,wfn = optimize('scf', return_wfn=True)
oeprop( wfn, 'DIPOLE', 'QUADRUPOLE', 'MULLIKEN_CHARGES')
f=open( 'psi4out.xyz', 'w' )
f.write( "13  " )
f.write( str(ee) + "\n" )
f.write( MOL.save_string_xyz() )
f.close()
--------------------------------------------------------------------------

    Molecular point group: c1
  Charge       = 0
  Multiplicity = 1
  Basis Set: CC-PVTZ
  Basis Set:
  @DF-RHF Final Energy:  -321.86123144601532
    Total Energy =                       -321.8612314460153812
    Molecular point group: c1
  Basis Set: CC-PVTZ
  Basis Set:
  Basis Set: CC-PVTZ
  Basis Set:
  @DF-RHF Final Energy:  -321.85473568085433
    Total Energy =                       -321.8547356808543896
  Basis Set: CC-PVTZ
  Basis Set:
  Basis Set: CC-PVTZ
  Basis Set:
  @DF-RHF Final Energy:  -321.86183704002190
    Total Energy =                       -321.8618370400216691
  Basis Set: CC-PVTZ
  Basis Set:
  Basis Set: CC-PVTZ
  Basis Set:
  @DF-RHF Final Energy:  -321.85605450013236
    Total Energy =                       -321.8560545001324158
  Basis Set: CC-PVTZ
  Basis Set:
  @DF-RHF Final Energy:  -321.86055253388247
    Total Energy =                       -321.8605525338823554
  Basis Set: CC-PVTZ
  Basis Set:
  @DF-RHF Final Energy:  -321.86224613719787
    Total Energy =                       -321.8622461371979853
  Basis Set: CC-PVTZ
  Basis Set:
  Basis Set: CC-PVTZ
  Basis Set:
  @DF-RHF Final Energy:  -321.86225494926470
    Total Energy =                       -321.8622549492647522
  Basis Set: CC-PVTZ
  Basis Set:
  Basis Set: CC-PVTZ
  Basis Set:
  @DF-RHF Final Energy:  -321.86225647361175
    Total Energy =                       -321.8622564736115237
  Basis Set: CC-PVTZ
  Basis Set:
  Charge       = 0
  Multiplicity = 1
  Basis Set: CC-PVTZ
  Basis Set:

    Orbital Energies (a.u.)
    -----------------------

    Doubly Occupied:

       1A    -20.590056     2A    -20.586850     3A    -15.833958
       4A    -11.306988     5A    -11.239499     6A    -11.237533
       7A     -1.634508     8A     -1.418132     9A     -1.139741
      10A     -0.967717    11A     -0.958333    12A     -0.815047
      13A     -0.764941    14A     -0.730071    15A     -0.722890
      16A     -0.639983    17A     -0.595907    18A     -0.586457
      19A     -0.570341    20A     -0.522327    21A     -0.521382
      22A     -0.483362    23A     -0.472417    24A     -0.452166

  @DF-RHF Final Energy:  -321.86225653545171

   => Energetics <=

    Nuclear Repulsion Energy =            257.2154930701349258
    One-Electron Energy =                -948.5742882149685329
    Two-Electron Energy =                 369.4965386093817870
    DFT Exchange-Correlation Energy =       0.0000000000000000
    Empirical Dispersion Energy =           0.0000000000000000
    PCM Polarization Energy =               0.0000000000000000
    EFP Energy =                            0.0000000000000000
    Total Energy =                       -321.8622565354518201
    Molecular point group: c1
  Basis Set: CC-PVTZ
  Basis Set:

  -Total Gradient:
     Atom            X                  Y                   Z
    ------   -----------------  -----------------  -----------------
       1       -0.000008641433    -0.000001120559     0.000002787699
       2       -0.000019129583     0.000000246736    -0.000004253111
       3       -0.000151199011    -0.000847691274    -0.000312821954
       4       -0.000005244186     0.000003373827    -0.000002570845
       5       -0.000000514629     0.000001455882     0.000000851891
       6        0.000010905924    -0.000008229332    -0.000000673100
       7       -0.000387204844     0.000030586422     0.001012767626
       8        0.000232282664     0.000755009785     0.000034822319
       9        0.000002943109    -0.000004023550     0.000000488476
      10        0.000003494509     0.000004172932    -0.000002490023
      11       -0.000000932557    -0.000001684769     0.000002806532
      12        0.000294408751     0.000067852653    -0.000737972110
      13        0.000028831284     0.000000051252     0.000006256602

  **** Optimization is complete! (in 9 steps) ****
    Final optimized geometry and variables:
    Molecular point group: c1

    Geometry (in Angstrom), charge = 0, multiplicity = 1:

    H           -2.640843400296    -0.482874022956    -0.492054178415
    C           -1.691117768954    -0.801524424891    -0.082376617526
    C           -0.634760587101     0.224291877608    -0.459853508302
    H           -1.453731307219    -1.778130905968    -0.470995540576
    H           -1.792674711286    -0.870432469318     0.993878221934
    C           -0.953950476235     1.626894890337     0.023373500790
    N            0.717883436734    -0.224579780974     0.046914520597
    H           -0.488510758126     0.228191417679    -1.532452329331
    H           -1.906962372872     1.920820600691    -0.398187793522
    H           -0.204503790486     2.337504004316    -0.286046997437
    H           -1.032918232613     1.659255375538     1.102123359632
    O            1.465471534169     0.600099910858     0.450309877393
    O            0.966552145282    -1.380914462291    -0.033830785386

  Mulliken Charges: (a.u.)
   Center  Symbol    Alpha    Beta     Spin     Total
       1     H     0.45047  0.45047  0.00000  0.09906
       2     C     3.14394  3.14394  0.00000 -0.28787
       3     C     3.00660  3.00660  0.00000 -0.01319
       4     H     0.43067  0.43067  0.00000  0.13866
       5     H     0.44662  0.44662  0.00000  0.10676
       6     C     3.14262  3.14262  0.00000 -0.28524
       7     N     3.27540  3.27540  0.00000  0.44920
       8     H     0.43042  0.43042  0.00000  0.13917
       9     H     0.45059  0.45059  0.00000  0.09882
      10     H     0.43350  0.43350  0.00000  0.13301
      11     H     0.44499  0.44499  0.00000  0.11001
      12     O     4.17033  4.17033  0.00000 -0.34065
      13     O     4.17386  4.17386  0.00000 -0.34771

   Total alpha = 24.00000, Total beta = 24.00000, Total charge =  0.00000

*** Psi4 exiting successfully. Buy a developer a beer!
