  ==> Input File <==

--------------------------------------------------------------------------
set {
	reference rhf
	basis cc-pvtz
}

set_num_threads( 4 )
memory 2 gb

molecule MOL {
0 1

H	 -1.088256	 -1.364742	 0.152233
O	 -1.432053	 -0.565244	 -0.200812
C	 -0.727158	 0.534527	 0.310686
C	 0.680222	 0.664433	 -0.252229
H	 -1.306802	 1.408001	 0.044211
H	 -0.690821	 0.490158	 1.397609
C	 0.985841	 -0.311260	 -1.384778
H	 0.822382	 1.683123	 -0.597615
H	 1.382481	 0.504743	 0.561393
H	 0.342216	 -0.141793	 -2.241021
H	 2.007802	 -0.201053	 -1.726836
H	 0.855319	 -1.340244	 -1.063665

	symmetry c1
}
set optking {
	frozen_dihedral = ("
		8 4 3 2
	")
}

ee = optimize('scf')
oeprop('DIPOLE', 'QUADRUPOLE', 'MULLIKEN_CHARGES')
f=open( 'psi4out.xyz', 'w' )
f.write( "12  " )
f.write( str(ee) + "\n" )
f.write( MOL.save_string_xyz() )
f.close()
--------------------------------------------------------------------------

    Molecular point group: c1
  Charge       = 0
  Multiplicity = 1
  Basis Set: CC-PVTZ
  Basis Set:
  @DF-RHF Final Energy:  -193.18164788921877
    Total Energy =                       -193.1816478892187661
    Molecular point group: c1
  Basis Set: CC-PVTZ
  Basis Set:
  Basis Set: CC-PVTZ
  Basis Set:
  @DF-RHF Final Energy:  -193.18239010768499
    Total Energy =                       -193.1823901076850234
  Basis Set: CC-PVTZ
  Basis Set:
  Basis Set: CC-PVTZ
  Basis Set:
  @DF-RHF Final Energy:  -193.18298920924994
    Total Energy =                       -193.1829892092500245
  Basis Set: CC-PVTZ
  Basis Set:
  Basis Set: CC-PVTZ
  Basis Set:
  @DF-RHF Final Energy:  -193.18300641516305
    Total Energy =                       -193.1830064151631063
  Basis Set: CC-PVTZ
  Basis Set:
  Basis Set: CC-PVTZ
  Basis Set:
  @DF-RHF Final Energy:  -193.18300994058137
    Total Energy =                       -193.1830099405813144
  Basis Set: CC-PVTZ
  Basis Set:
  Charge       = 0
  Multiplicity = 1
  Basis Set: CC-PVTZ
  Basis Set:

    Orbital Energies (a.u.)
    -----------------------

    Doubly Occupied:

       1A    -20.546773     2A    -11.266399     3A    -11.216636
       4A    -11.207891     5A     -1.364437     6A     -1.044180
       7A     -0.925861     8A     -0.808223     9A     -0.690237
      10A     -0.631460    11A     -0.625589    12A     -0.575892
      13A     -0.527598    14A     -0.511705    15A     -0.493070
      16A     -0.457593    17A     -0.433451

  @DF-RHF Final Energy:  -193.18301008334691

   => Energetics <=

    Nuclear Repulsion Energy =            133.4342139370373275
    One-Electron Energy =                -526.5804553350699280
    Two-Electron Energy =                 199.9632313146855438
    DFT Exchange-Correlation Energy =       0.0000000000000000
    Empirical Dispersion Energy =           0.0000000000000000
    PCM Polarization Energy =               0.0000000000000000
    EFP Energy =                            0.0000000000000000
    Total Energy =                       -193.1830100833470567
    Molecular point group: c1
  Basis Set: CC-PVTZ
  Basis Set:

  -Total Gradient:
     Atom            X                  Y                   Z
    ------   -----------------  -----------------  -----------------
       1       -0.000004782132     0.000003564970     0.000001992065
       2       -0.000908524465     0.001521624251    -0.002091318771
       3        0.001015451824    -0.002324820251     0.002207502685
       4        0.001006012919     0.001691105317     0.002936391779
       5        0.000001945115     0.000002798490     0.000004723626
       6        0.000008997478     0.000004062397    -0.000006137944
       7       -0.000001085479     0.000003027484     0.000010090050
       8       -0.001109428225    -0.000909498734    -0.003063494788
       9        0.000002840630     0.000003030889     0.000003474244
      10       -0.000002651082    -0.000001871125    -0.000005044498
      11       -0.000001877429     0.000002161083    -0.000001295579
      12       -0.000006899154     0.000004815228     0.000003117133

  **** Optimization is complete! (in 6 steps) ****
    Final optimized geometry and variables:
    Molecular point group: c1

    Geometry (in Angstrom), charge = 0, multiplicity = 1:

    H           -1.000911916089    -1.403313082031     0.562354061549
    O           -1.321487202976    -0.598921809203     0.198205831399
    C           -0.579528627734     0.488437811888     0.682589547972
    C            0.859897116923     0.597198873831     0.129468779102
    H           -1.144689845645     1.361391432066     0.387768090805
    H           -0.560346907195     0.477294314657     1.768073049103
    C            1.173384566645    -0.347640019746    -1.029387063737
    H            1.011152619152     1.610832414397    -0.224998902177
    H            1.577384857471     0.432218625168     0.926167775597
    H            0.484664207914    -0.206753230660    -1.852165375734
    H            2.178236322062    -0.165334001295    -1.392688301186
    H            1.117882968978    -1.388212604285    -0.732484741191

  Mulliken Charges: (a.u.)
   Center  Symbol    Alpha    Beta     Spin     Total
       1     H     0.39484  0.39484  0.00000  0.21032
       2     O     4.19952  4.19952  0.00000 -0.39904
       3     C     2.97492  2.97492  0.00000  0.05016
       4     C     3.10692  3.10692  0.00000 -0.21384
       5     H     0.45592  0.45592  0.00000  0.08817
       6     H     0.46385  0.46385  0.00000  0.07231
       7     C     3.13978  3.13978  0.00000 -0.27957
       8     H     0.45284  0.45284  0.00000  0.09432
       9     H     0.45241  0.45241  0.00000  0.09519
      10     H     0.44705  0.44705  0.00000  0.10589
      11     H     0.45016  0.45016  0.00000  0.09969
      12     H     0.46180  0.46180  0.00000  0.07641

   Total alpha = 17.00000, Total beta = 17.00000, Total charge = -0.00000
