                              Psi4 1.0.54 Driver

  ==> Input File <==

--------------------------------------------------------------------------
set {
	reference rhf
	basis cc-pvtz
}

set_num_threads( 4 )
memory 2 gb

molecule MOL {
0 1

H	 -1.088256	 -1.364742	 0.152233
O	 -1.432053	 -0.565244	 -0.200812
C	 -0.727158	 0.534527	 0.310686
C	 0.680222	 0.664433	 -0.252229
H	 -1.306802	 1.408001	 0.044211
H	 -0.690821	 0.490158	 1.397609
C	 1.158466	 -0.568896	 -1.012642
H	 0.714298	 1.532182	 -0.902676
H	 1.355265	 0.862401	 0.575886
H	 0.542482	 -0.763377	 -1.883770
H	 2.175169	 -0.438664	 -1.363225
H	 1.138390	 -1.452428	 -0.381829

	symmetry c1
}
set optking {
	frozen_dihedral = ("
		8 4 3 2
	")
}

ee,wfn = optimize('scf', return_wfn=True)
oeprop( wfn, 'DIPOLE', 'QUADRUPOLE', 'MULLIKEN_CHARGES')
f=open( 'psi4out.xyz', 'w' )
f.write( "12  " )
f.write( str(ee) + "\n" )
f.write( MOL.save_string_xyz() )
f.close()
--------------------------------------------------------------------------

    Molecular point group: c1
  Charge       = 0
  Multiplicity = 1
  Basis Set: CC-PVTZ
  Basis Set:
  @DF-RHF Final Energy:  -193.18193865861295
    Total Energy =                       -193.1819386586132055
    Molecular point group: c1
  Basis Set: CC-PVTZ
  Basis Set:
  Basis Set: CC-PVTZ
  Basis Set:
  @DF-RHF Final Energy:  -193.18254376117585
    Total Energy =                       -193.1825437611757366
  Basis Set: CC-PVTZ
  Basis Set:
  Basis Set: CC-PVTZ
  Basis Set:
  @DF-RHF Final Energy:  -193.18306938661752
    Total Energy =                       -193.1830693866176034
  Basis Set: CC-PVTZ
  Basis Set:
  Basis Set: CC-PVTZ
  Basis Set:
  @DF-RHF Final Energy:  -193.18308221867107
    Total Energy =                       -193.1830822186710179
  Basis Set: CC-PVTZ
  Basis Set:
  Basis Set: CC-PVTZ
  Basis Set:
  @DF-RHF Final Energy:  -193.18308537313516
    Total Energy =                       -193.1830853731351567
  Basis Set: CC-PVTZ
  Basis Set:
  Charge       = 0
  Multiplicity = 1
  Basis Set: CC-PVTZ
  Basis Set:

    Orbital Energies (a.u.)
    -----------------------

    Doubly Occupied:

       1A    -20.545829     2A    -11.266521     3A    -11.217158
       4A    -11.211625     5A     -1.364075     6A     -1.045512
       7A     -0.928470     8A     -0.808095     9A     -0.693506
      10A     -0.631269    11A     -0.620633    12A     -0.581117
      13A     -0.528963    14A     -0.512640    15A     -0.500018
      16A     -0.457103    17A     -0.431434

  @DF-RHF Final Energy:  -193.18308563717937

   => Energetics <=

    Nuclear Repulsion Energy =            133.4297328119712347
    One-Electron Energy =                -526.5377001218266741
    Two-Electron Energy =                 199.9248816726760367
    DFT Exchange-Correlation Energy =       0.0000000000000000
    Empirical Dispersion Energy =           0.0000000000000000
    PCM Polarization Energy =               0.0000000000000000
    EFP Energy =                            0.0000000000000000
    Total Energy =                       -193.1830856371794027
    Molecular point group: c1
  Basis Set: CC-PVTZ
  Basis Set:

  -Total Gradient:
     Atom            X                  Y                   Z
    ------   -----------------  -----------------  -----------------
       1       -0.000028397368    -0.000008279569    -0.000019165634
       2        0.001023182725    -0.001790125176     0.002138610746
       3       -0.001140484877     0.002888072662    -0.002312447032
       4       -0.000874848118    -0.003139510358    -0.002632935179
       5        0.000027647020     0.000032084641     0.000013871513
       6        0.000014103063    -0.000001384124    -0.000010897312
       7       -0.000004720441    -0.000005555743    -0.000022145038
       8        0.000981989920     0.002013413181     0.002817728727
       9        0.000011616040     0.000009207303     0.000010495033
      10        0.000017294057     0.000005387889     0.000013518753
      11       -0.000020874425    -0.000011602260     0.000007631129
      12       -0.000006507599     0.000008291553    -0.000004265705

  **** Optimization is complete! (in 6 steps) ****
    Final optimized geometry and variables:
    Molecular point group: c1

    Geometry (in Angstrom), charge = 0, multiplicity = 1:

    H           -1.039358294511    -1.326252475498     0.417197699543
    O           -1.377861995723    -0.509961713812     0.100301769327
    C           -0.614355519783     0.557026263298     0.596432467819
    C            0.814488723228     0.662172523052     0.015662377928
    H           -1.173891608918     1.451234205449     0.363603222846
    H           -0.561526460895     0.489938583776     1.679450225582
    C            1.306746564072    -0.569949759904    -0.736323592811
    H            0.878633740131     1.532478286147    -0.628159884613
    H            1.497699553322     0.866504754345     0.834467133600
    H            0.676982013811    -0.794862324132    -1.586156514964
    H            2.316047956712    -0.408403382032    -1.095609133775
    H            1.330923623531    -1.447672110713    -0.097484205747

  Mulliken Charges: (a.u.)
   Center  Symbol    Alpha    Beta     Spin     Total
       1     H     0.39151  0.39151  0.00000  0.21698
       2     O     4.20233  4.20233  0.00000 -0.40466
       3     C     2.97487  2.97487  0.00000  0.05026
       4     C     3.09654  3.09654  0.00000 -0.19309
       5     H     0.45391  0.45391  0.00000  0.09218
       6     H     0.46811  0.46811  0.00000  0.06377
       7     C     3.15203  3.15203  0.00000 -0.30406
       8     H     0.45225  0.45225  0.00000  0.09551
       9     H     0.45502  0.45502  0.00000  0.08995
      10     H     0.44284  0.44284  0.00000  0.11431
      11     H     0.44792  0.44792  0.00000  0.10416
      12     H     0.46267  0.46267  0.00000  0.07467

   Total alpha = 17.00000, Total beta = 17.00000, Total charge =  0.00000

*** Psi4 exiting successfully. Buy a developer a beer!
