  ==> Input File <==

--------------------------------------------------------------------------
set {
	reference rhf
	basis 6-31G*
}

set_num_threads( 4 )
memory 2 gb

molecule MOL {
0 1

H	 2.227848	 -0.964189	 -0.428804
O	 2.064459	 -0.086912	 -0.111827
C	 0.745630	 0.005118	 0.354752
H	 0.739005	 0.037656	 1.444976
C	 -0.064159	 -1.194875	 -0.122754
C	 -0.046302	 1.193543	 -0.190431
H	 0.197384	 -1.376065	 -1.160690
H	 0.162855	 -2.097978	 0.431858
C	 -1.535782	 -0.752177	 0.006642
H	 0.154512	 1.271315	 -1.255561
H	 0.226209	 2.140461	 0.267302
C	 -1.509193	 0.801505	 0.065617
H	 -2.127797	 -1.112194	 -0.826847
H	 -1.986849	 -1.158408	 0.905561
H	 -2.183670	 1.254107	 -0.651985
H	 -1.821727	 1.144320	 1.047089

	symmetry c1
}
set optking {
	frozen_dihedral = ("
		1 2 3 6
	")
}

ee = optimize('scf')
oeprop('DIPOLE', 'QUADRUPOLE', 'MULLIKEN_CHARGES')
f=open( 'psi4out.xyz', 'w' )
f.write( "16  " )
f.write( str(ee) + "\n" )
f.write( MOL.save_string_xyz() )
f.close()
--------------------------------------------------------------------------

    Molecular point group: c1
  Charge       = 0
  Multiplicity = 1
  Basis Set: 6-31G*
  Basis Set:
  @DF-RHF Final Energy:  -270.01053081317360
    Total Energy =                       -270.0105308131734319
    Molecular point group: c1
  Basis Set: 6-31G*
  Basis Set:
  Basis Set: 6-31G*
  Basis Set:
  @DF-RHF Final Energy:  -270.01194961621877
    Total Energy =                       -270.0119496162186579
  Basis Set: 6-31G*
  Basis Set:
  Basis Set: 6-31G*
  Basis Set:
  @DF-RHF Final Energy:  -270.01213733472559
    Total Energy =                       -270.0121373347256508
  Basis Set: 6-31G*
  Basis Set:
  Basis Set: 6-31G*
  Basis Set:
  @DF-RHF Final Energy:  -270.01214421823096
    Total Energy =                       -270.0121442182307874
  Basis Set: 6-31G*
  Basis Set:
  Basis Set: 6-31G*
  Basis Set:
  @DF-RHF Final Energy:  -270.01214589449864
    Total Energy =                       -270.0121458944985875
  Basis Set: 6-31G*
  Basis Set:
  Basis Set: 6-31G*
  Basis Set:
  @DF-RHF Final Energy:  -270.01214767728482
    Total Energy =                       -270.0121476772849292
  Basis Set: 6-31G*
  Basis Set:
  Basis Set: 6-31G*
  Basis Set:
  @DF-RHF Final Energy:  -270.01214905025893
    Total Energy =                       -270.0121490502591541
  Basis Set: 6-31G*
  Basis Set:
  Charge       = 0
  Multiplicity = 1
  Basis Set: 6-31G*
  Basis Set:

    Orbital Energies (a.u.)
    -----------------------

    Doubly Occupied:

       1A    -20.549574     2A    -11.268255     3A    -11.220674
       4A    -11.219904     5A    -11.216670     6A    -11.207895
       7A     -1.358949     8A     -1.115634     9A     -0.968934
      10A     -0.948870    11A     -0.797377    12A     -0.781147
      13A     -0.682199    14A     -0.665310    15A     -0.610889
      16A     -0.599271    17A     -0.575114    18A     -0.528704
      19A     -0.501021    20A     -0.485081    21A     -0.472719
      22A     -0.459208    23A     -0.445384    24A     -0.420489

  @DF-RHF Final Energy:  -270.01214934271337

   => Energetics <=

    Nuclear Repulsion Energy =            255.1678986186771567
    One-Electron Energy =                -872.1615517752635469
    Two-Electron Energy =                 346.9815038138730756
    DFT Exchange-Correlation Energy =       0.0000000000000000
    Empirical Dispersion Energy =           0.0000000000000000
    PCM Polarization Energy =               0.0000000000000000
    EFP Energy =                            0.0000000000000000
    Total Energy =                       -270.0121493427132577
    Molecular point group: c1
  Basis Set: 6-31G*
  Basis Set:

  -Total Gradient:
     Atom            X                  Y                   Z
    ------   -----------------  -----------------  -----------------
       1       -0.000331554200     0.000354898088    -0.001056678619
       2        0.000328962539    -0.000589802661     0.001063770245
       3        0.000183260403     0.000624553310     0.000583321952
       4        0.000003058526    -0.000000746258     0.000000552854
       5        0.000009281539     0.000005432849    -0.000003435926
       6       -0.000189355305    -0.000386682234    -0.000586420906
       7       -0.000000208736    -0.000011462879     0.000000001814
       8       -0.000003094617     0.000005456197     0.000010573854
       9       -0.000012757082    -0.000003601444     0.000011720381
      10       -0.000004679748    -0.000005698259    -0.000002258589
      11        0.000001342174     0.000003390226    -0.000008000500
      12        0.000009494923    -0.000000208852    -0.000009101130
      13        0.000017385117     0.000009689768    -0.000011079979
      14       -0.000012537670    -0.000006499985    -0.000008636204
      15       -0.000012873621     0.000008531643     0.000010814437
      16        0.000014275750    -0.000007249511     0.000004856317

  **** Optimization is complete! (in 8 steps) ****
    Final optimized geometry and variables:
    Molecular point group: c1

    Geometry (in Angstrom), charge = 0, multiplicity = 1:

    H            2.317157165144    -0.850245061109    -0.420498860576
    O            2.085570488665    -0.005133998257    -0.065123493431
    C            0.744987832493    -0.005852019787     0.353351791888
    H            0.724287737486     0.021018651431     1.441472217506
    C           -0.083495419599    -1.195484444044    -0.134714025872
    C           -0.029939571774     1.187895764041    -0.194646519882
    H            0.148477311674    -1.364716918322    -1.184690066088
    H            0.134066035032    -2.114057724434     0.401768837663
    C           -1.546916575201    -0.737144809590     0.022487622555
    H            0.174829217496     1.262590271223    -1.258989018142
    H            0.262561938867     2.126710909322     0.261986274518
    C           -1.498779525611     0.816965920008     0.060637848562
    H           -2.162588590418    -1.104522662388    -0.790242586508
    H           -1.975603948728    -1.128049956196     0.938763439282
    H           -2.164704620967     1.266437854770    -0.666822028640
    H           -1.813209150856     1.175934736402     1.035388489214

  Mulliken Charges: (a.u.)
   Center  Symbol    Alpha    Beta     Spin     Total
       1     H     0.27917  0.27917  0.00000  0.44166
       2     O     4.38349  4.38349  0.00000 -0.76698
       3     C     2.89527  2.89527  0.00000  0.20946
       4     H     0.42622  0.42622  0.00000  0.14757
       5     C     3.19003  3.19003  0.00000 -0.38007
       6     C     3.16443  3.16443  0.00000 -0.32886
       7     H     0.42014  0.42014  0.00000  0.15972
       8     H     0.41436  0.41436  0.00000  0.17129
       9     C     3.16616  3.16616  0.00000 -0.33233
      10     H     0.41734  0.41734  0.00000  0.16532
      11     H     0.41225  0.41225  0.00000  0.17550
      12     C     3.17103  3.17103  0.00000 -0.34206
      13     H     0.41402  0.41402  0.00000  0.17195
      14     H     0.41541  0.41541  0.00000  0.16917
      15     H     0.41402  0.41402  0.00000  0.17196
      16     H     0.41665  0.41665  0.00000  0.16670

   Total alpha = 24.00000, Total beta = 24.00000, Total charge =  0.00000
