  ==> Input File <==

--------------------------------------------------------------------------
set {
	reference rhf
	basis 6-31G*
}

set_num_threads( 1 )
memory 2 gb

molecule MOL {
0 1

H	 -3.319232	 1.239598	 0.869493
C	 -3.321105	 0.623800	 -0.038478
C	 -2.403173	 1.101848	 -1.134600
O	 -4.013670	 -0.339328	 -0.105460
C	 -0.967277	 1.329868	 -0.642193
H	 -2.436987	 0.384413	 -1.946298
H	 -2.808857	 2.043023	 -1.503740
C	 -0.252658	 0.041456	 -0.226725
H	 -0.404944	 1.814856	 -1.434565
H	 -0.978360	 2.029083	 0.192512
C	 1.180775	 0.282413	 0.250794
H	 -0.244059	 -0.648017	 -1.068390
H	 -0.814790	 -0.454363	 0.562394
C	 2.148627	 -0.814315	 -0.201312
H	 1.516199	 1.249228	 -0.115937
H	 1.192670	 0.346017	 1.338083
C	 3.580890	 -0.659131	 0.322722
H	 2.166869	 -0.852443	 -1.289387
H	 1.762857	 -1.776509	 0.128956
C	 4.324889	 0.564933	 -0.213704
H	 4.142010	 -1.551473	 0.056605
H	 3.564836	 -0.624694	 1.410140
H	 4.342616	 0.565491	 -1.300421
H	 3.866655	 1.493402	 0.110242
H	 5.353900	 0.572371	 0.132816

	symmetry c1
}
set optking {
	frozen_dihedral = ("
		6 3 5 8,
		6 3 2 4,
		3 5 8 12,
		8 11 14 18,
		20 17 14 18
	")
}

ee = energy('scf')
oeprop('DIPOLE', 'QUADRUPOLE', 'MULLIKEN_CHARGES')
f=open( 'psi4out.xyz', 'w' )
f.write( "25  " )
f.write( str(ee) + "\n" )
f.write( MOL.save_string_xyz() )
f.close()
--------------------------------------------------------------------------

    Molecular point group: c1

    Geometry (in Angstrom), charge = 0, multiplicity = 1:

       Center              X                  Y                   Z               Mass
    ------------   -----------------  -----------------  -----------------  -----------------
           H         -3.353004557092     1.004673574708     1.089415201165     1.007825032070
           C         -3.354877557092     0.388875574708     0.181444201165    12.000000000000
           C         -2.436945557092     0.866923574708    -0.914677798835    12.000000000000
           O         -4.047442557092    -0.574252425292     0.114462201165    15.994914619560
           C         -1.001049557092     1.094943574708    -0.422270798835    12.000000000000
           H         -2.470759557092     0.149488574708    -1.726375798835     1.007825032070
           H         -2.842629557092     1.808098574708    -1.283817798835     1.007825032070
           C         -0.286430557092    -0.193468425292    -0.006802798835    12.000000000000
           H         -0.438716557092     1.579931574708    -1.214642798835     1.007825032070
           H         -1.012132557092     1.794158574708     0.412434201165     1.007825032070
           C          1.147002442908     0.047488574708     0.470716201165    12.000000000000
           H         -0.277831557092    -0.882941425292    -0.848467798835     1.007825032070
           H         -0.848562557092    -0.689287425292     0.782316201165     1.007825032070
           C          2.114854442908    -1.049239425292     0.018610201165    12.000000000000
           H          1.482426442908     1.014303574708     0.103985201165     1.007825032070
           H          1.158897442908     0.111092574708     1.558005201165     1.007825032070
           C          3.547117442908    -0.894055425292     0.542644201165    12.000000000000
           H          2.133096442908    -1.087367425292    -1.069464798835     1.007825032070
           H          1.729084442908    -2.011433425292     0.348878201165     1.007825032070
           C          4.291116442908     0.330008574708     0.006218201165    12.000000000000
           H          4.108237442908    -1.786397425292     0.276527201165     1.007825032070
           H          3.531063442908    -0.859618425292     1.630062201165     1.007825032070
           H          4.308843442908     0.330566574708    -1.080498798835     1.007825032070
           H          3.832882442908     1.258477574708     0.330164201165     1.007825032070
           H          5.320127442908     0.337446574708     0.352738201165     1.007825032070

  Charge       = 0
  Multiplicity = 1
  Basis Set: 6-31G*
  Basis Set:

    Orbital Energies (a.u.)
    -----------------------

    Doubly Occupied:

       1A    -20.561877     2A    -11.326058     3A    -11.235549
       4A    -11.234368     5A    -11.222842     6A    -11.218818
       7A    -11.218009     8A    -11.217430     9A    -11.210973
      10A     -1.401871    11A     -1.104180    12A     -1.069630
      13A     -1.013332    14A     -0.942267    15A     -0.875653
      16A     -0.821114    17A     -0.788140    18A     -0.781950
      19A     -0.665599    20A     -0.655767    21A     -0.634832
      22A     -0.624720    23A     -0.606002    24A     -0.596346
      25A     -0.567584    26A     -0.559047    27A     -0.528618
      28A     -0.524326    29A     -0.515122    30A     -0.498024
      31A     -0.488839    32A     -0.477592    33A     -0.462197
      34A     -0.458502    35A     -0.440730    36A     -0.409495

  @DF-RHF Final Energy:  -387.11814358047036

   => Energetics <=

    Nuclear Repulsion Energy =            439.6186669961329017
    One-Electron Energy =               -1395.5588545533225897
    Two-Electron Energy =                 568.8220439767188736
    DFT Exchange-Correlation Energy =       0.0000000000000000
    Empirical Dispersion Energy =           0.0000000000000000
    PCM Polarization Energy =               0.0000000000000000
    EFP Energy =                            0.0000000000000000
    Total Energy =                       -387.1181435804708144

  Mulliken Charges: (a.u.)
   Center  Symbol    Alpha    Beta     Spin     Total
       1     H     0.43265  0.43265  0.00000  0.13469
       2     C     2.83087  2.83087  0.00000  0.33826
       3     C     3.20851  3.20851  0.00000 -0.41702
       4     O     4.23781  4.23781  0.00000 -0.47561
       5     C     3.16893  3.16893  0.00000 -0.33785
       6     H     0.39965  0.39965  0.00000  0.20069
       7     H     0.40682  0.40682  0.00000  0.18637
       8     C     3.15609  3.15609  0.00000 -0.31219
       9     H     0.41251  0.41251  0.00000  0.17497
      10     H     0.41919  0.41919  0.00000  0.16161
      11     C     3.15624  3.15624  0.00000 -0.31249
      12     H     0.41632  0.41632  0.00000  0.16735
      13     H     0.41632  0.41632  0.00000  0.16736
      14     C     3.15502  3.15502  0.00000 -0.31003
      15     H     0.41994  0.41994  0.00000  0.16012
      16     H     0.42062  0.42062  0.00000  0.15875
      17     C     3.15325  3.15325  0.00000 -0.30651
      18     H     0.42359  0.42359  0.00000  0.15282
      19     H     0.41990  0.41990  0.00000  0.16019
      20     C     3.24128  3.24128  0.00000 -0.48256
      21     H     0.42016  0.42016  0.00000  0.15967
      22     H     0.42287  0.42287  0.00000  0.15426
      23     H     0.42231  0.42231  0.00000  0.15539
      24     H     0.42057  0.42057  0.00000  0.15886
      25     H     0.41856  0.41856  0.00000  0.16289

   Total alpha = 36.00000, Total beta = 36.00000, Total charge =  0.00000
