  ==> Input File <==

--------------------------------------------------------------------------
set {
	reference rhf
	basis 6-31G*
}

set_num_threads( 4 )
memory 2 gb

molecule MOL {
0 1

H	 1.087746	 -2.299327	 1.191514
C	 1.165267	 -1.298774	 1.633879
C	 -0.081923	 -0.458055	 1.540902
O	 2.181421	 -0.947016	 2.139672
C	 -0.558097	 -0.297372	 0.091132
H	 0.121037	 0.502831	 1.999144
H	 -0.859212	 -0.951645	 2.123158
C	 -1.850991	 0.512573	 -0.019058
H	 0.222364	 0.187321	 -0.490870
H	 -0.709954	 -1.279278	 -0.353455
C	 -3.096943	 -0.368295	 -0.099594
H	 -1.800724	 1.150330	 -0.898172
H	 -1.931651	 1.177355	 0.838044
H	 -3.060452	 -1.020287	 -0.967456
H	 -3.996858	 0.233488	 -0.175704
H	 -3.191959	 -0.995686	 0.782074

	symmetry c1
}
set optking {
	frozen_dihedral = ("
		9 5 8 12
	")
}

ee = optimize('scf')
oeprop('DIPOLE', 'QUADRUPOLE', 'MULLIKEN_CHARGES')
f=open( 'psi4out.xyz', 'w' )
f.write( "16  " )
f.write( str(ee) + "\n" )
f.write( MOL.save_string_xyz() )
f.close()
--------------------------------------------------------------------------

    Molecular point group: c1
  Charge       = 0
  Multiplicity = 1
  Basis Set: 6-31G*
  Basis Set:
  @DF-RHF Final Energy:  -270.01565601397556
    Total Energy =                       -270.0156560139754447
    Molecular point group: c1
  Basis Set: 6-31G*
  Basis Set:
  Basis Set: 6-31G*
  Basis Set:
  @DF-RHF Final Energy:  -270.01582246611036
    Total Energy =                       -270.0158224661104782
  Basis Set: 6-31G*
  Basis Set:
  Basis Set: 6-31G*
  Basis Set:
  @DF-RHF Final Energy:  -270.01287097358886
    Total Energy =                       -270.0128709735890880
  Basis Set: 6-31G*
  Basis Set:
  Basis Set: 6-31G*
  Basis Set:
  @DF-RHF Final Energy:  -270.01596573443106
    Total Energy =                       -270.0159657344310062
  Basis Set: 6-31G*
  Basis Set:
  Basis Set: 6-31G*
  Basis Set:
  @DF-RHF Final Energy:  -270.01597655555827
    Total Energy =                       -270.0159765555583817
  Basis Set: 6-31G*
  Basis Set:
  Basis Set: 6-31G*
  Basis Set:
  @DF-RHF Final Energy:  -270.01594132345372
    Total Energy =                       -270.0159413234537169
  Basis Set: 6-31G*
  Basis Set:
  Basis Set: 6-31G*
  Basis Set:
  @DF-RHF Final Energy:  -270.01602757506481
    Total Energy =                       -270.0160275750646974
  Basis Set: 6-31G*
  Basis Set:
  Charge       = 0
  Multiplicity = 1
  Basis Set: 6-31G*
  Basis Set:

    Orbital Energies (a.u.)
    -----------------------

    Doubly Occupied:

       1A    -20.562601     2A    -11.326511     3A    -11.236472
       4A    -11.235606     5A    -11.229180     6A    -11.220247
       7A     -1.402371     8A     -1.095490     9A     -1.017271
      10A     -0.909677    11A     -0.810905    12A     -0.794360
      13A     -0.678031    14A     -0.640274    15A     -0.632530
      16A     -0.608001    17A     -0.573746    18A     -0.560465
      19A     -0.527541    20A     -0.512045    21A     -0.487236
      22A     -0.483271    23A     -0.471227    24A     -0.409165

  @DF-RHF Final Energy:  -270.01602792916100

   => Energetics <=

    Nuclear Repulsion Energy =            230.4371704019906133
    One-Electron Energy =                -822.0579517849946569
    Two-Electron Energy =                 321.6047534538431591
    DFT Exchange-Correlation Energy =       0.0000000000000000
    Empirical Dispersion Energy =           0.0000000000000000
    PCM Polarization Energy =               0.0000000000000000
    EFP Energy =                            0.0000000000000000
    Total Energy =                       -270.0160279291608276
    Molecular point group: c1
  Basis Set: 6-31G*
  Basis Set:

  -Total Gradient:
     Atom            X                  Y                   Z
    ------   -----------------  -----------------  -----------------
       1       -0.000006848926     0.000009143797    -0.000009504839
       2        0.000051495925    -0.000001817381     0.000023824154
       3        0.000004944073     0.000049910006    -0.000065688510
       4       -0.000040105878    -0.000004295158    -0.000012672448
       5        0.001316503266     0.003033142802     0.004085634032
       6       -0.000005570888     0.000003073765     0.000011284219
       7       -0.000010420769    -0.000003314801     0.000004125617
       8       -0.001847438745    -0.003777840891    -0.003111839698
       9       -0.000884879585    -0.001914868341    -0.002873695651
      10       -0.000026401181    -0.000025950508    -0.000002324003
      11        0.000047303625    -0.000021218349    -0.000003719897
      12        0.001399270332     0.002624038403     0.001929439554
      13       -0.000002150603     0.000008132741     0.000038353163
      14       -0.000025081324     0.000014744179    -0.000021507729
      15        0.000019327375     0.000012611597     0.000021484178
      16        0.000010053298    -0.000005491862    -0.000013192145

  **** Optimization is complete! (in 8 steps) ****
    Final optimized geometry and variables:
    Molecular point group: c1

    Geometry (in Angstrom), charge = 0, multiplicity = 1:

    H            1.421800702631    -1.830422775980     0.313048570829
    C            1.523917613796    -0.832476407642     0.756027323499
    C            0.301083986276     0.042246091547     0.655565212373
    O            2.546919079623    -0.507467478888     1.265872316377
    C           -0.157292279400     0.223491221923    -0.797165741736
    H            0.525415784668     0.995707926704     1.118829596453
    H           -0.493444567077    -0.432789974567     1.230005341596
    C           -1.480184925987     1.001375320121    -0.924496411163
    H            0.622226290650     0.716494159674    -1.370653493709
    H           -0.276497011920    -0.755383883500    -1.259066727669
    C           -2.715883714810     0.104153289913    -0.972891826812
    H           -1.444792716886     1.636080235456    -1.804699275947
    H           -1.570388768561     1.687526666079    -0.085335133729
    H           -2.699312452126    -0.536748537059    -1.849457108443
    H           -3.626053311735     0.694088618980    -1.010065860774
    H           -2.775666721350    -0.535949747690    -0.096916070841

  Mulliken Charges: (a.u.)
   Center  Symbol    Alpha    Beta     Spin     Total
       1     H     0.43203  0.43203  0.00000  0.13593
       2     C     2.83013  2.83013  0.00000  0.33974
       3     C     3.20863  3.20863  0.00000 -0.41727
       4     O     4.23704  4.23704  0.00000 -0.47407
       5     C     3.16821  3.16821  0.00000 -0.33642
       6     H     0.39877  0.39877  0.00000  0.20246
       7     H     0.40957  0.40957  0.00000  0.18086
       8     C     3.15532  3.15532  0.00000 -0.31063
       9     H     0.40970  0.40970  0.00000  0.18060
      10     H     0.41859  0.41859  0.00000  0.16283
      11     C     3.24091  3.24091  0.00000 -0.48182
      12     H     0.41526  0.41526  0.00000  0.16948
      13     H     0.41839  0.41839  0.00000  0.16322
      14     H     0.41938  0.41938  0.00000  0.16124
      15     H     0.41617  0.41617  0.00000  0.16767
      16     H     0.42190  0.42190  0.00000  0.15620

   Total alpha = 24.00000, Total beta = 24.00000, Total charge = -0.00000
