  ==> Input File <==

--------------------------------------------------------------------------
set {
	reference rhf
	basis cc-pvtz
}

set_num_threads( 4 )
memory 2 gb

molecule MOL {
0 1

H	 -4.198709	 -0.277122	 0.876436
O	 -3.495922	 -0.510661	 0.298729
C	 -2.282118	 -0.001605	 0.784486
C	 -1.175688	 -0.398187	 -0.171891
H	 -2.329702	 1.082224	 0.867088
H	 -2.073415	 -0.396706	 1.776538
C	 0.196029	 0.106276	 0.266738
H	 -1.417467	 -0.010960	 -1.156684
H	 -1.165859	 -1.480158	 -0.256501
C	 1.330220	 -0.826136	 -0.155230
H	 0.359542	 1.097229	 -0.145561
H	 0.212134	 0.218135	 1.348778
C	 2.719700	 -0.407669	 0.328325
H	 1.339388	 -0.911200	 -1.239363
H	 1.119001	 -1.821953	 0.224128
C	 3.241564	 0.893452	 -0.276737
H	 3.418299	 -1.204729	 0.093035
H	 2.711776	 -0.323368	 1.411960
H	 3.254204	 0.841071	 -1.360784
H	 2.634460	 1.745075	 0.005842
H	 4.254264	 1.092401	 0.054971

	symmetry c1
}
set optking {
	frozen_dihedral = ("
		8 4 7 10
	")
}

ee = optimize('scf')
oeprop('DIPOLE', 'QUADRUPOLE', 'MULLIKEN_CHARGES')
f=open( 'psi4out.xyz', 'w' )
f.write( "21  " )
f.write( str(ee) + "\n" )
f.write( MOL.save_string_xyz() )
f.close()
--------------------------------------------------------------------------

    Molecular point group: c1
  Charge       = 0
  Multiplicity = 1
  Basis Set: CC-PVTZ
  Basis Set:
  @DF-RHF Final Energy:  -310.33034316187695
    Total Energy =                       -310.3303431618771810
    Molecular point group: c1
  Basis Set: CC-PVTZ
  Basis Set:
  Basis Set: CC-PVTZ
  Basis Set:
  @DF-RHF Final Energy:  -310.33060078580235
    Total Energy =                       -310.3306007858022326
  Basis Set: CC-PVTZ
  Basis Set:
  Basis Set: CC-PVTZ
  Basis Set:
  @DF-RHF Final Energy:  -310.33064076617023
    Total Energy =                       -310.3306407661700064
  Basis Set: CC-PVTZ
  Basis Set:
  Basis Set: CC-PVTZ
  Basis Set:
  @DF-RHF Final Energy:  -310.33064877560531
    Total Energy =                       -310.3306487756056526
  Basis Set: CC-PVTZ
  Basis Set:
  Charge       = 0
  Multiplicity = 1
  Basis Set: CC-PVTZ
  Basis Set:

    Orbital Energies (a.u.)
    -----------------------

    Doubly Occupied:

       1A    -20.545413     2A    -11.265098     3A    -11.213257
       4A    -11.213097     5A    -11.211575     6A    -11.208870
       7A    -11.206012     8A     -1.363412     9A     -1.086755
      10A     -1.034061    11A     -0.955468    12A     -0.876095
      13A     -0.807749    14A     -0.779886    15A     -0.696920
      16A     -0.660887    17A     -0.621706    18A     -0.610430
      19A     -0.591441    20A     -0.561738    21A     -0.547604
      22A     -0.518731    23A     -0.506555    24A     -0.495094
      25A     -0.476612    26A     -0.458077    27A     -0.456432
      28A     -0.445076    29A     -0.436676

  @DF-RHF Final Energy:  -310.33064974788789

   => Energetics <=

    Nuclear Repulsion Energy =            312.7728443182671185
    One-Electron Energy =               -1040.5055310562961495
    Two-Electron Energy =                 417.4020369901408003
    DFT Exchange-Correlation Energy =       0.0000000000000000
    Empirical Dispersion Energy =           0.0000000000000000
    PCM Polarization Energy =               0.0000000000000000
    EFP Energy =                            0.0000000000000000
    Total Energy =                       -310.3306497478882875
    Molecular point group: c1
  Basis Set: CC-PVTZ
  Basis Set:

  -Total Gradient:
     Atom            X                  Y                   Z
    ------   -----------------  -----------------  -----------------
       1       -0.000008588522     0.000020036554    -0.000015588578
       2       -0.000027873723    -0.000027543268     0.000010928293
       3        0.000010307694     0.000012896360    -0.000010345088
       4        0.001942634346    -0.004243672439    -0.001214582622
       5        0.000005057527    -0.000005566398     0.000011447842
       6        0.000001865317    -0.000009350119    -0.000000098015
       7       -0.000020718335     0.002733950227    -0.002785213285
       8       -0.001641211488     0.002955192233     0.001686452746
       9        0.000003342826     0.000007260515     0.000031199589
      10       -0.000271743114    -0.001459804646     0.002287858635
      11       -0.000005210264    -0.000001141862     0.000003484360
      12       -0.000000291058    -0.000011728119     0.000004280821
      13        0.000017331997    -0.000009295286    -0.000009809723
      14       -0.000006117890     0.000018983073    -0.000005623335
      15       -0.000008353382     0.000002674614    -0.000019547387
      16        0.000014970446    -0.000017772141    -0.000013812306
      17        0.000009606690     0.000004723653     0.000035231024
      18       -0.000013894814     0.000026531389     0.000006138532
      19       -0.000009194652     0.000011079876    -0.000003107559
      20        0.000004188820    -0.000004652263     0.000010783672
      21        0.000003891585    -0.000002801954    -0.000010077615

  **** Optimization is complete! (in 5 steps) ****
    Final optimized geometry and variables:
    Molecular point group: c1

    Geometry (in Angstrom), charge = 0, multiplicity = 1:

    H           -4.223761752384    -0.035736152690     0.652003893348
    O           -3.518165534921    -0.275481495827     0.080326256815
    C           -2.293174142822     0.136797691123     0.624822400591
    C           -1.180032098302    -0.270115291412    -0.321815935979
    H           -2.281945881525     1.216020793881     0.765758157267
    H           -2.135236689794    -0.321638974848     1.598771682954
    C            0.192413598487     0.222524689800     0.150857479738
    H           -1.417055184716     0.150648794616    -1.292783166085
    H           -1.190636063662    -1.349486563644    -0.421928578794
    C            1.340097499911    -0.684881972649    -0.289926859665
    H            0.350070756702     1.236444197647    -0.198214538952
    H            0.203643257585     0.272279506515     1.238074195142
    C            2.727371340567    -0.236001509269     0.171682319558
    H            1.335801678040    -0.774802128894    -1.374213838439
    H            1.151845492381    -1.682365642733     0.096038153175
    C            3.227606101720     1.054912229477    -0.472242461009
    H            3.435086734826    -1.029544391407    -0.047579609921
    H            2.726249665889    -0.122800642966     1.252846205608
    H            3.235636400290     0.971889566553    -1.554314970474
    H            2.609816870940     1.905548919339    -0.210850489269
    H            4.238953195581     1.277603101349    -0.151695751408

  Mulliken Charges: (a.u.)
   Center  Symbol    Alpha    Beta     Spin     Total
       1     H     0.39734  0.39734  0.00000  0.20533
       2     O     4.19494  4.19494  0.00000 -0.38988
       3     C     2.96230  2.96230  0.00000  0.07539
       4     C     3.08451  3.08451  0.00000 -0.16903
       5     H     0.47463  0.47463  0.00000  0.05074
       6     H     0.47502  0.47502  0.00000  0.04996
       7     C     3.10578  3.10578  0.00000 -0.21157
       8     H     0.44962  0.44962  0.00000  0.10075
       9     H     0.45145  0.45145  0.00000  0.09710
      10     C     3.09426  3.09426  0.00000 -0.18852
      11     H     0.44927  0.44927  0.00000  0.10147
      12     H     0.45825  0.45825  0.00000  0.08351
      13     C     3.08998  3.08998  0.00000 -0.17995
      14     H     0.45259  0.45259  0.00000  0.09482
      15     H     0.44891  0.44891  0.00000  0.10218
      16     C     3.15164  3.15164  0.00000 -0.30327
      17     H     0.44840  0.44840  0.00000  0.10320
      18     H     0.45541  0.45541  0.00000  0.08918
      19     H     0.45456  0.45456  0.00000  0.09088
      20     H     0.45436  0.45436  0.00000  0.09129
      21     H     0.44678  0.44678  0.00000  0.10643

   Total alpha = 29.00000, Total beta = 29.00000, Total charge = -0.00000
