  ==> Input File <==

--------------------------------------------------------------------------
set {
	reference rhf
	basis 6-31G*
}

set_num_threads( 4 )
memory 2 gb

molecule MOL {
0 1

H	 3.522102	 -1.120804	 2.548854
C	 3.120329	 -1.154897	 1.541299
C	 1.817019	 -0.363431	 1.441660
H	 3.875629	 -0.753228	 0.871664
H	 2.970045	 -2.198952	 1.281281
C	 1.217350	 -0.386724	 0.039429
H	 1.983087	 0.669985	 1.729517
H	 1.094469	 -0.769530	 2.147633
N	 0.000003	 0.397874	 -0.023260
H	 1.928171	 0.042578	 -0.661568
H	 1.061173	 -1.424100	 -0.274954
C	 -1.217365	 -0.386708	 0.039277
H	 -0.000031	 1.072115	 0.718656
C	 -2.452633	 0.504241	 -0.042481
H	 -1.215291	 -1.074557	 -0.802042
H	 -1.269739	 -1.003477	 0.942735
C	 -3.758029	 -0.289423	 -0.010781
H	 -2.394220	 1.093569	 -0.952170
H	 -2.440793	 1.210787	 0.785871
H	 -3.816659	 -0.981993	 -0.845726
H	 -4.617837	 0.370165	 -0.069296
H	 -3.847478	 -0.867502	 0.904682

	symmetry c1
}
set optking {
	frozen_dihedral = ("
		10 6 9 12
	")
}

ee = optimize('scf')
oeprop('DIPOLE', 'QUADRUPOLE', 'MULLIKEN_CHARGES')
f=open( 'psi4out.xyz', 'w' )
f.write( "22  " )
f.write( str(ee) + "\n" )
f.write( MOL.save_string_xyz() )
f.close()
--------------------------------------------------------------------------

    Molecular point group: c1
  Charge       = 0
  Multiplicity = 1
  Basis Set: 6-31G*
  Basis Set:
  @DF-RHF Final Energy:  -290.37718443861343
    Total Energy =                       -290.3771844386134262
    Molecular point group: c1
  Basis Set: 6-31G*
  Basis Set:
  Basis Set: 6-31G*
  Basis Set:
  @DF-RHF Final Energy:  -290.37860241530768
    Total Energy =                       -290.3786024153075687
  Basis Set: 6-31G*
  Basis Set:
  Basis Set: 6-31G*
  Basis Set:
  @DF-RHF Final Energy:  -290.37883840125863
    Total Energy =                       -290.3788384012590882
  Basis Set: 6-31G*
  Basis Set:
  Basis Set: 6-31G*
  Basis Set:
  @DF-RHF Final Energy:  -290.37885444849758
    Total Energy =                       -290.3788544484974636
  Basis Set: 6-31G*
  Basis Set:
  Basis Set: 6-31G*
  Basis Set:
  @DF-RHF Final Energy:  -290.37885790008028
    Total Energy =                       -290.3788579000803907
  Basis Set: 6-31G*
  Basis Set:
  Charge       = 0
  Multiplicity = 1
  Basis Set: 6-31G*
  Basis Set:

    Orbital Energies (a.u.)
    -----------------------

    Doubly Occupied:

       1A    -15.529868     2A    -11.238169     3A    -11.237435
       4A    -11.216488     5A    -11.213177     6A    -11.211696
       7A    -11.209532     8A     -1.201112     9A     -1.058705
      10A     -1.026580    11A     -0.928719    12A     -0.869956
      13A     -0.808997    14A     -0.802373    15A     -0.654131
      16A     -0.641676    17A     -0.614549    18A     -0.603832
      19A     -0.576474    20A     -0.551475    21A     -0.548818
      22A     -0.518792    23A     -0.515612    24A     -0.487552
      25A     -0.485419    26A     -0.475650    27A     -0.470880
      28A     -0.456557    29A     -0.348198

  @DF-RHF Final Energy:  -290.37885892390403

   => Energetics <=

    Nuclear Repulsion Energy =            315.2962429798004109
    One-Electron Energy =               -1016.3453714160255004
    Two-Electron Energy =                 410.6702695123209423
    DFT Exchange-Correlation Energy =       0.0000000000000000
    Empirical Dispersion Energy =           0.0000000000000000
    PCM Polarization Energy =               0.0000000000000000
    EFP Energy =                            0.0000000000000000
    Total Energy =                       -290.3788589239042039
    Molecular point group: c1
  Basis Set: 6-31G*
  Basis Set:

  -Total Gradient:
     Atom            X                  Y                   Z
    ------   -----------------  -----------------  -----------------
       1        0.000013696196    -0.000011203972    -0.000002945216
       2        0.000023684422     0.000002309029     0.000025685463
       3       -0.000059041576     0.000019415933    -0.000057897005
       4       -0.000002008792     0.000006571133    -0.000002301776
       5       -0.000011349939     0.000005911713     0.000003436175
       6        0.001188714546     0.002250887818     0.001601895653
       7        0.000009295799    -0.000023531095     0.000007470736
       8        0.000005916183     0.000004458127     0.000013210149
       9       -0.000275488408    -0.000052401629     0.002811330179
      10       -0.000958982106    -0.001870054673    -0.002065709155
      11       -0.000011740155    -0.000022687856    -0.000015081162
      12        0.000015193784    -0.000312645905    -0.002304450783
      13        0.000017513271    -0.000014180870    -0.000007964005
      14        0.000007955257     0.000018296900     0.000005055261
      15       -0.000009526394    -0.000005270878    -0.000006351990
      16        0.000004291735     0.000012787303    -0.000002070522
      17        0.000024979375    -0.000013379852    -0.000002687050
      18       -0.000001071143     0.000000600101    -0.000005788356
      19        0.000001367464    -0.000000794334     0.000005040451
      20       -0.000002133295    -0.000002741574    -0.000003085492
      21        0.000017491239     0.000008575874     0.000000174992
      22        0.000001242536    -0.000000921290     0.000003033455

  **** Optimization is complete! (in 6 steps) ****
    Final optimized geometry and variables:
    Molecular point group: c1

    Geometry (in Angstrom), charge = 0, multiplicity = 1:

    H            3.754799311041    -0.920359938733     2.085181050592
    C            3.332285437302    -0.924182523439     1.085555649198
    C            2.027464513533    -0.130442650064     1.032463019081
    H            4.073868316079    -0.504662589784     0.411695064568
    H            3.173619692897    -1.959758143712     0.798045834861
    C            1.411955953109    -0.095077483463    -0.367607544073
    H            2.213111048955     0.889812409936     1.364196819861
    H            1.309918041834    -0.556341221301     1.730254542374
    N            0.163620875899     0.644860881624    -0.465689127705
    H            2.128161240706     0.315152736278    -1.076167248101
    H            1.226661979358    -1.112781370538    -0.699890287706
    C           -1.051512194541    -0.140863784421    -0.380959571986
    H            0.145089441814     1.396003952249     0.195467588013
    C           -2.284775220439     0.748174276403    -0.502377213525
    H           -1.045700406154    -0.853975737475    -1.200108845274
    H           -1.119441824512    -0.727471868627     0.541340126035
    C           -3.591167169912    -0.043424511047    -0.463468210048
    H           -2.214507785882     1.310975001087    -1.428037360839
    H           -2.282250120657     1.477972466155     0.305710419572
    H           -3.640361588563    -0.759968141562    -1.278508321553
    H           -4.449339133068     0.614983305198    -0.551802895188
    H           -3.692561113034    -0.594285021242     0.467402339785

  Mulliken Charges: (a.u.)
   Center  Symbol    Alpha    Beta     Spin     Total
       1     H     0.41773  0.41773  0.00000  0.16453
       2     C     3.24348  3.24348  0.00000 -0.48695
       3     C     3.16292  3.16292  0.00000 -0.32584
       4     H     0.41992  0.41992  0.00000  0.16017
       5     H     0.42076  0.42076  0.00000  0.15848
       6     C     3.04563  3.04563  0.00000 -0.09126
       7     H     0.42465  0.42465  0.00000  0.15070
       8     H     0.42126  0.42126  0.00000  0.15748
       9     N     3.86303  3.86303  0.00000 -0.72606
      10     H     0.41935  0.41935  0.00000  0.16130
      11     H     0.42372  0.42372  0.00000  0.15257
      12     C     3.04574  3.04574  0.00000 -0.09148
      13     H     0.33340  0.33340  0.00000  0.33320
      14     C     3.15685  3.15685  0.00000 -0.31369
      15     H     0.42128  0.42128  0.00000  0.15744
      16     H     0.43728  0.43728  0.00000  0.12543
      17     C     3.24309  3.24309  0.00000 -0.48617
      18     H     0.41292  0.41292  0.00000  0.17416
      19     H     0.42681  0.42681  0.00000  0.14638
      20     H     0.42068  0.42068  0.00000  0.15865
      21     H     0.41778  0.41778  0.00000  0.16444
      22     H     0.42174  0.42174  0.00000  0.15651

   Total alpha = 29.00000, Total beta = 29.00000, Total charge = -0.00000
