                              Psi4 1.0.54 Driver

  ==> Input File <==

--------------------------------------------------------------------------
set {
	reference rhf
	basis cc-pvtz
}

set_num_threads( 4 )
memory 2 gb

molecule MOL {
0 1

H	 -1.408693	 3.076234	 -2.384926
O	 -0.601036	 2.585742	 -2.413681
C	 -0.501644	 1.872322	 -1.295608
C	 0.764974	 1.060763	 -1.262722
O	 -1.330616	 1.904525	 -0.453148
C	 0.926581	 0.227233	 0.000178
H	 1.591134	 1.753400	 -1.386983
H	 0.767244	 0.436740	 -2.150588
C	 2.220156	 -0.582071	 -0.000088
H	 0.901480	 0.880106	 0.865373
H	 0.076574	 -0.438181	 0.100842
C	 3.466689	 0.296012	 -0.000457
H	 2.239073	 -1.234095	 -0.869382
H	 2.239505	 -1.233985	 0.869270
H	 3.493549	 0.935857	 -0.875887
H	 4.368821	 -0.304526	 -0.001199
H	 3.494559	 0.935166	 0.875458

	symmetry c1
}
set optking {
	frozen_dihedral = ("
		10 6 9 13
	")
}

ee,wfn = optimize('scf', return_wfn=True)
oeprop( wfn, 'DIPOLE', 'QUADRUPOLE', 'MULLIKEN_CHARGES')
f=open( 'psi4out.xyz', 'w' )
f.write( "17  " )
f.write( str(ee) + "\n" )
f.write( MOL.save_string_xyz() )
f.close()
--------------------------------------------------------------------------

    Molecular point group: c1
  Charge       = 0
  Multiplicity = 1
  Basis Set: CC-PVTZ
  Basis Set:
  @DF-RHF Final Energy:  -345.04653180559302
    Total Energy =                       -345.0465318055929629
    Molecular point group: c1
  Basis Set: CC-PVTZ
  Basis Set:
  Basis Set: CC-PVTZ
  Basis Set:
  @DF-RHF Final Energy:  -345.04671718696892
    Total Energy =                       -345.0467171869686922
  Basis Set: CC-PVTZ
  Basis Set:
  Basis Set: CC-PVTZ
  Basis Set:
  @DF-RHF Final Energy:  -345.04711229550674
    Total Energy =                       -345.0471122955066789
  Basis Set: CC-PVTZ
  Basis Set:
  Basis Set: CC-PVTZ
  Basis Set:
  @DF-RHF Final Energy:  -345.04705566308274
    Total Energy =                       -345.0470556630826877
  Basis Set: CC-PVTZ
  Basis Set:
  Basis Set: CC-PVTZ
  Basis Set:
  @DF-RHF Final Energy:  -345.04727090834604
    Total Energy =                       -345.0472709083458085
  Basis Set: CC-PVTZ
  Basis Set:
  Charge       = 0
  Multiplicity = 1
  Basis Set: CC-PVTZ
  Basis Set:

    Orbital Energies (a.u.)
    -----------------------

    Doubly Occupied:

       1A    -20.604032     2A    -20.540634     3A    -11.373612
       4A    -11.238887     5A    -11.221523     6A    -11.220907
       7A    -11.212840     8A     -1.477620     9A     -1.369125
      10A     -1.092776    11A     -1.017259    12A     -0.919897
      13A     -0.831937    14A     -0.780305    15A     -0.703804
      16A     -0.693323    17A     -0.667790    18A     -0.622573
      19A     -0.611416    20A     -0.585048    21A     -0.563253
      22A     -0.545303    23A     -0.519458    24A     -0.484861
      25A     -0.478476    26A     -0.474648    27A     -0.471406
      28A     -0.447028

  @DF-RHF Final Energy:  -345.04727397518087

   => Energetics <=

    Nuclear Repulsion Energy =            307.9802586743471124
    One-Electron Energy =               -1080.5155847868143155
    Two-Electron Energy =                 427.4880521372859334
    DFT Exchange-Correlation Energy =       0.0000000000000000
    Empirical Dispersion Energy =           0.0000000000000000
    PCM Polarization Energy =               0.0000000000000000
    EFP Energy =                            0.0000000000000000
    Total Energy =                       -345.0472739751812128
    Molecular point group: c1
  Basis Set: CC-PVTZ
  Basis Set:

  -Total Gradient:
     Atom            X                  Y                   Z
    ------   -----------------  -----------------  -----------------
       1        0.000021560628    -0.000045268412     0.000060626881
       2        0.000069539985    -0.000016674355    -0.000087794240
       3        0.000046690637     0.000062477763    -0.000030653123
       4       -0.000059127205    -0.000044363279    -0.000040209591
       5       -0.000054431353    -0.000051031875     0.000092013631
       6        0.000034599649     0.000069721683     0.000066408689
       7        0.000012341486     0.000015224966     0.000004581827
       8       -0.000005794726     0.000016188516    -0.000024926177
       9       -0.000037031581    -0.000006560108    -0.000111982933
      10       -0.000027400777     0.000012596138     0.000042156373
      11        0.000015000134    -0.000002812273    -0.000009071830
      12       -0.000042919586     0.000013269831     0.000076005911
      13       -0.000004305206    -0.000059016404    -0.000027000174
      14       -0.000002614894     0.000011523952     0.000007060429
      15       -0.000016676918     0.000026372447    -0.000040062872
      16        0.000023774925    -0.000030667596     0.000010487950
      17        0.000026794801     0.000029019008     0.000012359249

  **** Optimization is complete! (in 6 steps) ****
    Final optimized geometry and variables:
    Molecular point group: c1

    Geometry (in Angstrom), charge = 0, multiplicity = 1:

    H           -2.145995782702     1.981565233783    -1.567856326552
    O           -1.323187647864     1.517391963380    -1.602833426098
    C           -1.200662849852     0.796068043010    -0.491939290759
    C            0.090552698445     0.023705677347    -0.469620684835
    O           -2.030694052399     0.792546499766     0.350132239474
    C            0.268102518107    -0.823972094666     0.783571557126
    H            0.888832077436     0.746803384924    -0.588607240064
    H            0.109893841517    -0.589767658508    -1.364984682715
    C            1.538597950443    -1.674725240470     0.774425028867
    H            0.264564279966    -0.178980181512     1.655427211792
    H           -0.593209222097    -1.472396426991     0.887286187917
    C            2.841151907021    -0.879164508510     0.817188575077
    H            1.536753453751    -2.318894870370    -0.101187512142
    H            1.506434959767    -2.335602784192     1.634267864746
    H            2.976036821443    -0.268907611184    -0.068346327730
    H            3.694474614491    -1.543982761187     0.883534250776
    H            2.867460801384    -0.221518974122     1.679950562142

  Mulliken Charges: (a.u.)
   Center  Symbol    Alpha    Beta     Spin     Total
       1     H     0.38236  0.38236  0.00000  0.23529
       2     O     4.16019  4.16019  0.00000 -0.32038
       3     C     2.80356  2.80356  0.00000  0.39288
       4     C     3.11246  3.11246  0.00000 -0.22492
       5     O     4.19112  4.19112  0.00000 -0.38225
       6     C     3.08928  3.08928  0.00000 -0.17856
       7     H     0.43727  0.43727  0.00000  0.12545
       8     H     0.43795  0.43795  0.00000  0.12410
       9     C     3.09380  3.09380  0.00000 -0.18760
      10     H     0.44586  0.44586  0.00000  0.10828
      11     H     0.44059  0.44059  0.00000  0.11883
      12     C     3.15287  3.15287  0.00000 -0.30573
      13     H     0.45451  0.45451  0.00000  0.09099
      14     H     0.44523  0.44523  0.00000  0.10954
      15     H     0.45501  0.45501  0.00000  0.08998
      16     H     0.44507  0.44507  0.00000  0.10986
      17     H     0.45287  0.45287  0.00000  0.09425

   Total alpha = 28.00000, Total beta = 28.00000, Total charge = -0.00000

*** Psi4 exiting successfully. Buy a developer a beer!
