  ==> Input File <==

--------------------------------------------------------------------------
set {
	reference rhf
	basis cc-pvtz
}

set_num_threads( 4 )
memory 2 gb

molecule MOL {
0 1

H	 1.166964	 -1.062386	 0.758429
O	 1.324748	 -0.612467	 -0.052206
C	 0.706474	 0.636793	 -0.025501
C	 1.502647	 1.742740	 -0.658447
H	 0.536105	 0.872421	 1.018413
H	 -0.273428	 0.594703	 -0.497433
C	 2.730309	 1.641176	 -1.117617
H	 0.987705	 2.687255	 -0.721495
H	 3.281915	 0.722445	 -1.057306
H	 3.228550	 2.483345	 -1.558714

	symmetry c1
}
set optking {
	frozen_dihedral = ("
		5 3 2 1
	")
}

ee = optimize('scf')
oeprop('DIPOLE', 'QUADRUPOLE', 'MULLIKEN_CHARGES')
f=open( 'psi4out.xyz', 'w' )
f.write( "10  " )
f.write( str(ee) + "\n" )
f.write( MOL.save_string_xyz() )
f.close()
--------------------------------------------------------------------------

    Molecular point group: c1
  Charge       = 0
  Multiplicity = 1
  Basis Set: CC-PVTZ
  Basis Set:
  @DF-RHF Final Energy:  -191.99561564878064
    Total Energy =                       -191.9956156487805288
    Molecular point group: c1
  Basis Set: CC-PVTZ
  Basis Set:
  Basis Set: CC-PVTZ
  Basis Set:
  @DF-RHF Final Energy:  -191.99668469803697
    Total Energy =                       -191.9966846980369723
  Basis Set: CC-PVTZ
  Basis Set:
  Basis Set: CC-PVTZ
  Basis Set:
  @DF-RHF Final Energy:  -191.99701546951545
    Total Energy =                       -191.9970154695153610
  Basis Set: CC-PVTZ
  Basis Set:
  Basis Set: CC-PVTZ
  Basis Set:
  @DF-RHF Final Energy:  -191.99702042533153
    Total Energy =                       -191.9970204253315273
  Basis Set: CC-PVTZ
  Basis Set:
  Charge       = 0
  Multiplicity = 1
  Basis Set: CC-PVTZ
  Basis Set:

    Orbital Energies (a.u.)
    -----------------------

    Doubly Occupied:

       1A    -20.553356     2A    -11.278334     3A    -11.223618
       4A    -11.208043     5A     -1.373369     6A     -1.058418
       7A     -0.926735     8A     -0.757957     9A     -0.712068
      10A     -0.647557    11A     -0.615924    12A     -0.587717
      13A     -0.516050    14A     -0.497150    15A     -0.454353
      16A     -0.360808

  @DF-RHF Final Energy:  -191.99702103523668

   => Energetics <=

    Nuclear Repulsion Energy =            119.5349664000192007
    One-Electron Energy =                -497.5210589128135439
    Two-Electron Energy =                 185.9890714775578147
    DFT Exchange-Correlation Energy =       0.0000000000000000
    Empirical Dispersion Energy =           0.0000000000000000
    PCM Polarization Energy =               0.0000000000000000
    EFP Energy =                            0.0000000000000000
    Total Energy =                       -191.9970210352365427
    Molecular point group: c1
  Basis Set: CC-PVTZ
  Basis Set:

  -Total Gradient:
     Atom            X                  Y                   Z
    ------   -----------------  -----------------  -----------------
       1        0.000635287996     0.000336856990     0.000331492107
       2       -0.000975868344    -0.000481859895    -0.000413991400
       3        0.000913248677     0.000490275307     0.000079649045
       4        0.000009786129     0.000002191982     0.000050545774
       5       -0.000575147617    -0.000326454819    -0.000048534252
       6        0.000028781115    -0.000011474399     0.000000754875
       7       -0.000006531448     0.000002144154     0.000066784036
       8       -0.000013228905     0.000010751448    -0.000016395691
       9        0.000002644313    -0.000012138883    -0.000021649361
      10       -0.000018971916    -0.000010291884    -0.000028655131

  **** Optimization is complete! (in 5 steps) ****
    Final optimized geometry and variables:
    Molecular point group: c1

    Geometry (in Angstrom), charge = 0, multiplicity = 1:

    H           -0.329604776011    -1.838944957882     1.153944328486
    O           -0.181128524344    -1.358435230648     0.362438493371
    C           -0.851522500099    -0.132073519988     0.405962384582
    C           -0.044928825207     0.965122756059    -0.220144953871
    H           -1.088369731611     0.145403183888     1.430600879158
    H           -1.800856017670    -0.211135178408    -0.119697025036
    C            1.171272462779     0.843161039195    -0.701183445534
    H           -0.547305049416     1.917187659713    -0.265222728315
    H            1.691404754004    -0.093960618562    -0.675746027122
    H            1.677123741206     1.682454228359    -1.139666484212

  Mulliken Charges: (a.u.)
   Center  Symbol    Alpha    Beta     Spin     Total
       1     H     0.39088  0.39088  0.00000  0.21824
       2     O     4.19635  4.19635  0.00000 -0.39271
       3     C     2.94199  2.94199  0.00000  0.11602
       4     C     3.08006  3.08006  0.00000 -0.16012
       5     H     0.47438  0.47438  0.00000  0.05124
       6     H     0.47013  0.47013  0.00000  0.05975
       7     C     3.17196  3.17196  0.00000 -0.34393
       8     H     0.42414  0.42414  0.00000  0.15172
       9     H     0.42004  0.42004  0.00000  0.15992
      10     H     0.43007  0.43007  0.00000  0.13986

   Total alpha = 16.00000, Total beta = 16.00000, Total charge = -0.00000
