                              Psi4 1.0.54 Driver

  ==> Input File <==

--------------------------------------------------------------------------
set {
	reference rhf
	basis cc-pvtz
}

set_num_threads( 4 )
memory 2 gb

molecule MOL {
0 1

H	 2.692634	 0.993820	 1.387750
N	 1.824838	 0.501946	 1.363670
C	 1.263552	 0.494993	 0.021953
H	 1.209849	 0.957999	 2.004874
C	 -0.016533	 -0.325589	 -0.026925
H	 1.997992	 0.051648	 -0.642153
H	 1.061942	 1.497118	 -0.358947
C	 -1.280353	 0.525521	 0.047747
H	 -0.016686	 -0.912532	 -0.939714
H	 -0.014099	 -1.037598	 0.796369
C	 -2.560681	 -0.301323	 -0.007747
H	 -1.279957	 1.241025	 -0.770189
H	 -1.270445	 1.110526	 0.963468
H	 -2.617064	 -0.872870	 -0.928010
H	 -3.439525	 0.331102	 0.043462
H	 -2.609427	 -1.002736	 0.818585

	symmetry c1
}
set optking {
	frozen_dihedral = ("
		6 3 5 9
	")
}

ee,wfn = optimize('scf', return_wfn=True)
oeprop( wfn, 'DIPOLE', 'QUADRUPOLE', 'MULLIKEN_CHARGES')
f=open( 'psi4out.xyz', 'w' )
f.write( "16  " )
f.write( str(ee) + "\n" )
f.write( MOL.save_string_xyz() )
f.close()
--------------------------------------------------------------------------

    Molecular point group: c1
  Charge       = 0
  Multiplicity = 1
  Basis Set: CC-PVTZ
  Basis Set:
  @DF-RHF Final Energy:  -212.39556184921398
    Total Energy =                       -212.3955618492136637
    Molecular point group: c1
  Basis Set: CC-PVTZ
  Basis Set:
  Basis Set: CC-PVTZ
  Basis Set:
  @DF-RHF Final Energy:  -212.39596741025989
    Total Energy =                       -212.3959674102600275
  Basis Set: CC-PVTZ
  Basis Set:
  Basis Set: CC-PVTZ
  Basis Set:
  @DF-RHF Final Energy:  -212.39605999980569
    Total Energy =                       -212.3960599998058001
  Basis Set: CC-PVTZ
  Basis Set:
  Basis Set: CC-PVTZ
  Basis Set:
  @DF-RHF Final Energy:  -212.39606204852279
    Total Energy =                       -212.3960620485228219
  Basis Set: CC-PVTZ
  Basis Set:
  Charge       = 0
  Multiplicity = 1
  Basis Set: CC-PVTZ
  Basis Set:

    Orbital Energies (a.u.)
    -----------------------

    Doubly Occupied:

       1A    -15.527096     2A    -11.238143     3A    -11.214447
       4A    -11.207728     5A    -11.206475     6A     -1.178016
       7A     -1.059656     8A     -0.959941     9A     -0.849418
      10A     -0.788464    11A     -0.667678    12A     -0.635632
      13A     -0.604950    14A     -0.583585    15A     -0.555125
      16A     -0.525463    17A     -0.513035    18A     -0.472702
      19A     -0.465681    20A     -0.454753    21A     -0.382969

  @DF-RHF Final Energy:  -212.39606233238698

   => Energetics <=

    Nuclear Repulsion Energy =            187.8900906414615406
    One-Electron Energy =                -658.3903958663512412
    Two-Electron Energy =                 258.1042428925027252
    DFT Exchange-Correlation Energy =       0.0000000000000000
    Empirical Dispersion Energy =           0.0000000000000000
    PCM Polarization Energy =               0.0000000000000000
    EFP Energy =                            0.0000000000000000
    Total Energy =                       -212.3960623323869754
    Molecular point group: c1
  Basis Set: CC-PVTZ
  Basis Set:

  -Total Gradient:
     Atom            X                  Y                   Z
    ------   -----------------  -----------------  -----------------
       1        0.000026290871     0.000007676453     0.000015802461
       2       -0.000017321414    -0.000010065010    -0.000029476670
       3        0.001916234118    -0.003612288871     0.004170656393
       4       -0.000003256161     0.000014500066     0.000006987222
       5       -0.002460245408     0.004311749266    -0.003086568561
       6       -0.001229560849     0.002297295768    -0.002999806135
       7       -0.000003626364     0.000025819372     0.000002435843
       8        0.000038152751    -0.000030094385     0.000011357480
       9        0.001747293299    -0.003000825528     0.001898358907
      10       -0.000002066277    -0.000006673092     0.000015381239
      11       -0.000009514432     0.000008360574     0.000002859126
      12        0.000003920881    -0.000005122053     0.000000011792
      13       -0.000002780093    -0.000003208191    -0.000003894027
      14        0.000003227679     0.000001463208     0.000001253148
      15       -0.000011476104    -0.000005335673    -0.000002022075
      16        0.000004727505     0.000006748095    -0.000003336144

  **** Optimization is complete! (in 5 steps) ****
    Final optimized geometry and variables:
    Molecular point group: c1

    Geometry (in Angstrom), charge = 0, multiplicity = 1:

    H            2.795469213350     0.852088779667     1.115177984437
    N            1.948640145475     0.324841446901     1.077364395044
    C            1.419114730338     0.291160870088    -0.278232019769
    H            1.304373861960     0.766429698134     1.700025373098
    C            0.118033176246    -0.514301769546    -0.359632435070
    H            2.164954998655    -0.150838484581    -0.927522938071
    H            1.239591551627     1.289962024000    -0.679953641293
    C           -1.149762168131     0.330469714152    -0.267849935773
    H            0.108458514622    -1.101816342238    -1.272597587598
    H            0.128716648948    -1.240370950380     0.447555755821
    C           -2.425371038697    -0.504690576605    -0.275163887714
    H           -1.173999217116     1.033031537324    -1.096068174106
    H           -1.121342302410     0.931555937881     0.637990365911
    H           -2.499178592429    -1.095083858551    -1.182487194293
    H           -3.307373491720     0.122750161148    -0.216368561349
    H           -2.448818083770    -1.189850922802     0.565485702399

  Mulliken Charges: (a.u.)
   Center  Symbol    Alpha    Beta     Spin     Total
       1     H     0.42994  0.42994  0.00000  0.14012
       2     N     3.68635  3.68635  0.00000 -0.37270
       3     C     3.03333  3.03333  0.00000 -0.06667
       4     H     0.43121  0.43121  0.00000  0.13757
       5     C     3.09606  3.09606  0.00000 -0.19213
       6     H     0.45251  0.45251  0.00000  0.09498
       7     H     0.46904  0.46904  0.00000  0.06192
       8     C     3.08067  3.08067  0.00000 -0.16134
       9     H     0.45057  0.45057  0.00000  0.09886
      10     H     0.44913  0.44913  0.00000  0.10174
      11     C     3.15013  3.15013  0.00000 -0.30026
      12     H     0.45475  0.45475  0.00000  0.09050
      13     H     0.45858  0.45858  0.00000  0.08284
      14     H     0.45478  0.45478  0.00000  0.09044
      15     H     0.44897  0.44897  0.00000  0.10205
      16     H     0.45398  0.45398  0.00000  0.09205

   Total alpha = 21.00000, Total beta = 21.00000, Total charge =  0.00000

*** Psi4 exiting successfully. Buy a developer a beer!
