  ==> Input File <==

--------------------------------------------------------------------------
set {
	reference rhf
	basis 6-31G*
}

set_num_threads( 1 )
memory 2 gb

molecule MOL {
0 1

H	 -2.798360	 -0.862255	 -0.071053
N	 -1.863561	 -0.715187	 0.256814
C	 -1.344686	 0.554728	 -0.219830
H	 -1.300452	 -1.461917	 -0.101532
C	 -1.667440	 1.650837	 0.773906
H	 -0.267346	 0.552233	 -0.391099
H	 -1.824045	 0.792806	 -1.164455
O	 -0.983812	 1.379219	 1.963849
H	 -1.361285	 2.619312	 0.378985
H	 -2.740053	 1.678065	 0.952776
C	 -1.258514	 2.267672	 2.999591
H	 -0.677348	 1.960238	 3.858328
H	 -0.981230	 3.286333	 2.734215
H	 -2.313668	 2.255204	 3.264739

	symmetry c1
}
set optking {
	frozen_dihedral = ("
		8 5 3 6,
		5 8 11 13,
		11 8 5 3
	")
}

ee = energy('scf')
oeprop('DIPOLE', 'QUADRUPOLE', 'MULLIKEN_CHARGES')
f=open( 'psi4out.xyz', 'w' )
f.write( "14  " )
f.write( str(ee) + "\n" )
f.write( MOL.save_string_xyz() )
f.close()
--------------------------------------------------------------------------

    Molecular point group: c1

    Geometry (in Angstrom), charge = 0, multiplicity = 1:

       Center              X                  Y                   Z               Mass
    ------------   -----------------  -----------------  -----------------  -----------------
           H         -1.366937014929    -1.883046564118    -1.232483192284     1.007825032070
           N         -0.432138014929    -1.735978564118    -0.904616192284    14.003074004780
           C          0.086736985071    -0.466063564118    -1.381260192284    12.000000000000
           H          0.130970985071    -2.482708564118    -1.262962192284     1.007825032070
           C         -0.236017014929     0.630045435882    -0.387524192284    12.000000000000
           H          1.164076985071    -0.468558564118    -1.552529192284     1.007825032070
           H         -0.392622014929    -0.227985564118    -2.325885192284     1.007825032070
           O          0.447610985071     0.358427435882     0.802418807716    15.994914619560
           H          0.070137985071     1.598520435882    -0.782445192284     1.007825032070
           H         -1.308630014929     0.657273435882    -0.208654192284     1.007825032070
           C          0.172908985071     1.246880435882     1.838160807716    12.000000000000
           H          0.754074985071     0.939446435882     2.696897807716     1.007825032070
           H          0.450192985071     2.265541435882     1.572784807716     1.007825032070
           H         -0.882245014929     1.234412435882     2.103308807716     1.007825032070

  Charge       = 0
  Multiplicity = 1
  Basis Set: 6-31G*
  Basis Set:

    Orbital Energies (a.u.)
    -----------------------

    Doubly Occupied:

       1A    -20.544889     2A    -15.530175     3A    -11.261310
       4A    -11.257864     5A    -11.242752     6A     -1.369294
       7A     -1.176227     8A     -0.995943     9A     -0.900117
      10A     -0.813680    11A     -0.681502    12A     -0.664254
      13A     -0.639719    14A     -0.621124    15A     -0.592379
      16A     -0.542875    17A     -0.518591    18A     -0.502987
      19A     -0.460569    20A     -0.408756    21A     -0.378126

  @DF-RHF Final Energy:  -248.11663776163823

   => Energetics <=

    Nuclear Repulsion Energy =            193.9830249360818470
    One-Electron Energy =                -721.9929366355445381
    Two-Electron Energy =                 279.8932739378236647
    DFT Exchange-Correlation Energy =       0.0000000000000000
    Empirical Dispersion Energy =           0.0000000000000000
    PCM Polarization Energy =               0.0000000000000000
    EFP Energy =                            0.0000000000000000
    Total Energy =                       -248.1166377616390264

  Mulliken Charges: (a.u.)
   Center  Symbol    Alpha    Beta     Spin     Total
       1     H     0.33424  0.33424  0.00000  0.33151
       2     N     3.91308  3.91308  0.00000 -0.82617
       3     C     3.07996  3.07996  0.00000 -0.15992
       4     H     0.33103  0.33103  0.00000  0.33793
       5     C     2.97758  2.97758  0.00000  0.04483
       6     H     0.41231  0.41231  0.00000  0.17538
       7     H     0.43111  0.43111  0.00000  0.13777
       8     O     4.29857  4.29857  0.00000 -0.59713
       9     H     0.43401  0.43401  0.00000  0.13197
      10     H     0.43422  0.43422  0.00000  0.13157
      11     C     3.07708  3.07708  0.00000 -0.15416
      12     H     0.41267  0.41267  0.00000  0.17466
      13     H     0.43360  0.43360  0.00000  0.13280
      14     H     0.43053  0.43053  0.00000  0.13895

   Total alpha = 21.00000, Total beta = 21.00000, Total charge =  0.00000
