                              Psi4 1.0.54 Driver

  ==> Input File <==

--------------------------------------------------------------------------
set {
	reference rhf
	basis cc-pvtz
}

set_num_threads( 4 )
memory 2 gb

molecule MOL {
0 1

O	 -2.071633	 -1.227563	 -0.223463
C	 -1.652164	 -0.152425	 0.058082
C	 -0.327811	 0.006324	 0.778296
C	 -2.402515	 1.108629	 -0.298924
C	 0.843231	 -0.001575	 -0.211665
H	 -0.319484	 0.928173	 1.350354
H	 -0.227804	 -0.823091	 1.466705
C	 2.197693	 0.138030	 0.476937
H	 0.722944	 0.805202	 -0.930230
H	 0.813976	 -0.926978	 -0.776588
C	 3.251599	 0.787766	 -0.413169
H	 2.081651	 0.722716	 1.385342
H	 2.542471	 -0.843986	 0.787278
H	 2.950841	 1.786443	 -0.711874
H	 3.412357	 0.207903	 -1.315546
H	 4.201710	 0.869043	 0.101693
H	 -3.240910	 0.874416	 -0.936711
H	 -1.747554	 1.818823	 -0.790984
H	 -2.760419	 1.579708	 0.610998

	symmetry c1
}
set optking {
	frozen_dihedral = ("
		11 8 5 9
	")
}

ee,wfn = optimize('scf', return_wfn=True)
oeprop( wfn, 'DIPOLE', 'QUADRUPOLE', 'MULLIKEN_CHARGES')
f=open( 'psi4out.xyz', 'w' )
f.write( "19  " )
f.write( str(ee) + "\n" )
f.write( MOL.save_string_xyz() )
f.close()
--------------------------------------------------------------------------

    Molecular point group: c1
  Charge       = 0
  Multiplicity = 1
  Basis Set: CC-PVTZ
  Basis Set:
  @DF-RHF Final Energy:  -309.17467108160452
    Total Energy =                       -309.1746710816050836
    Molecular point group: c1
  Basis Set: CC-PVTZ
  Basis Set:
  Basis Set: CC-PVTZ
  Basis Set:
  @DF-RHF Final Energy:  -309.17480685901432
    Total Energy =                       -309.1748068590139837
  Basis Set: CC-PVTZ
  Basis Set:
  Basis Set: CC-PVTZ
  Basis Set:
  @DF-RHF Final Energy:  -309.17490713255705
    Total Energy =                       -309.1749071325573368
  Basis Set: CC-PVTZ
  Basis Set:
  Basis Set: CC-PVTZ
  Basis Set:
  @DF-RHF Final Energy:  -309.17484973218825
    Total Energy =                       -309.1748497321882496
  Basis Set: CC-PVTZ
  Basis Set:
  Basis Set: CC-PVTZ
  Basis Set:
  @DF-RHF Final Energy:  -309.17492489069383
    Total Energy =                       -309.1749248906942853
  Basis Set: CC-PVTZ
  Basis Set:
  Basis Set: CC-PVTZ
  Basis Set:
  @DF-RHF Final Energy:  -309.17494104876835
    Total Energy =                       -309.1749410487686305
  Basis Set: CC-PVTZ
  Basis Set:
  Basis Set: CC-PVTZ
  Basis Set:
  @DF-RHF Final Energy:  -309.17494213443092
    Total Energy =                       -309.1749421344304665
  Basis Set: CC-PVTZ
  Basis Set:
  Charge       = 0
  Multiplicity = 1
  Basis Set: CC-PVTZ
  Basis Set:

    Orbital Energies (a.u.)
    -----------------------

    Doubly Occupied:

       1A    -20.537076     2A    -11.319551     3A    -11.228755
       4A    -11.228147     5A    -11.227048     6A    -11.222919
       7A    -11.213999     8A     -1.397198     9A     -1.091998
      10A     -1.030510    11A     -0.984966    12A     -0.891163
      13A     -0.807948    14A     -0.735286    15A     -0.664349
      16A     -0.646151    17A     -0.624991    18A     -0.615372
      19A     -0.585509    20A     -0.572502    21A     -0.557205
      22A     -0.536574    23A     -0.510000    24A     -0.507620
      25A     -0.483299    26A     -0.472709    27A     -0.470097
      28A     -0.399248

  @DF-RHF Final Energy:  -309.17494229629006

   => Energetics <=

    Nuclear Repulsion Energy =            301.8300686098983761
    One-Electron Energy =               -1016.8856395708328364
    Two-Electron Energy =                 405.8806286646444050
    DFT Exchange-Correlation Energy =       0.0000000000000000
    Empirical Dispersion Energy =           0.0000000000000000
    PCM Polarization Energy =               0.0000000000000000
    EFP Energy =                            0.0000000000000000
    Total Energy =                       -309.1749422962900553
    Molecular point group: c1
  Basis Set: CC-PVTZ
  Basis Set:

  -Total Gradient:
     Atom            X                  Y                   Z
    ------   -----------------  -----------------  -----------------
       1        0.000004922739    -0.000004802018    -0.000006430197
       2       -0.000004911703     0.000015644060    -0.000001669588
       3       -0.000005462516     0.000000334781     0.000004218000
       4       -0.000012258482    -0.000009691618     0.000007280463
       5       -0.002294708723     0.004341472743     0.004250402660
       6        0.000003069809    -0.000002786033    -0.000000506199
       7        0.000002132867     0.000000753179     0.000004290858
       8        0.001374950807    -0.004680361432    -0.002217648186
       9        0.001623673186    -0.002591782524    -0.003099106651
      10        0.000002903887     0.000009276730    -0.000002500691
      11       -0.000704533580     0.002912797461     0.001069523882
      12        0.000002957116    -0.000000529943    -0.000004228663
      13       -0.000004935853     0.000005578014     0.000005694659
      14       -0.000001643882     0.000003821231    -0.000004463911
      15        0.000001819407    -0.000003442333    -0.000002974228
      16        0.000003936245     0.000001502762     0.000002466086
      17        0.000000958877     0.000000867037    -0.000000163812
      18        0.000004098276    -0.000001365827    -0.000001236322
      19        0.000003031519     0.000002713729    -0.000002948157

  **** Optimization is complete! (in 8 steps) ****
    Final optimized geometry and variables:
    Molecular point group: c1

    Geometry (in Angstrom), charge = 0, multiplicity = 1:

    O           -2.060188000618    -1.325715311014    -0.145366432243
    C           -1.640000390322    -0.240951707248     0.095048409242
    C           -0.297258376363    -0.054286253337     0.773490144219
    C           -2.408054665518     1.005670524768    -0.274688761484
    C            0.845939316153    -0.070241806280    -0.246119277510
    H           -0.282128463072     0.878657877011     1.326864935503
    H           -0.168262138136    -0.868811665887     1.475174208974
    C            2.232080049159     0.026272854249     0.400390968669
    H            0.726958972194     0.727108141606    -0.974427646069
    H            0.781979146503    -0.990080128231    -0.817969286207
    C            3.285989893139     0.620574229058    -0.528000395281
    H            2.171411365077     0.647337148822     1.289896201166
    H            2.542080086069    -0.956429785670     0.739430127514
    H            3.026537296504     1.636277196924    -0.805971602357
    H            3.380530572019     0.042418475887    -1.441532736852
    H            4.258928555836     0.644619100346    -0.051179254256
    H           -3.262038478007     0.749406364869    -0.882605785077
    H           -1.771421245104     1.706111890117    -0.803359377380
    H           -2.744162426114     1.498910333165     0.631806901792

  Mulliken Charges: (a.u.)
   Center  Symbol    Alpha    Beta     Spin     Total
       1     O     4.17716  4.17716  0.00000 -0.35433
       2     C     2.85858  2.85858  0.00000  0.28285
       3     C     3.09694  3.09694  0.00000 -0.19388
       4     C     3.15545  3.15545  0.00000 -0.31091
       5     C     3.10025  3.10025  0.00000 -0.20051
       6     H     0.44938  0.44938  0.00000  0.10125
       7     H     0.43921  0.43921  0.00000  0.12158
       8     C     3.08545  3.08545  0.00000 -0.17089
       9     H     0.45278  0.45278  0.00000  0.09444
      10     H     0.44079  0.44079  0.00000  0.11842
      11     C     3.14881  3.14881  0.00000 -0.29763
      12     H     0.45582  0.45582  0.00000  0.08836
      13     H     0.44811  0.44811  0.00000  0.10378
      14     H     0.45568  0.45568  0.00000  0.08864
      15     H     0.45284  0.45284  0.00000  0.09431
      16     H     0.44761  0.44761  0.00000  0.10478
      17     H     0.43597  0.43597  0.00000  0.12805
      18     H     0.45076  0.45076  0.00000  0.09848
      19     H     0.44840  0.44840  0.00000  0.10319

   Total alpha = 28.00000, Total beta = 28.00000, Total charge = -0.00000

*** Psi4 exiting successfully. Buy a developer a beer!
