                              Psi4 1.0.54 Driver

  ==> Input File <==

--------------------------------------------------------------------------
set {
	reference rhf
	basis cc-pvtz
}

set_num_threads( 4 )
memory 2 gb

molecule MOL {
0 1

H	 -0.000105	 1.988529	 0.748933
O	 -0.000098	 1.879786	 -0.188206
C	 -0.000014	 0.545691	 -0.532416
C	 -1.286000	 -0.125171	 -0.046657
C	 1.286016	 -0.125031	 -0.046584
H	 0.000021	 0.481103	 -1.610604
F	 -1.334216	 -0.073016	 1.261706
F	 -2.359789	 0.461345	 -0.512155
F	 -1.326653	 -1.392752	 -0.397315
F	 2.317750	 0.468717	 -0.594166
F	 1.336617	 -1.393765	 -0.365123
F	 1.414467	 -0.024806	 1.259108

	symmetry c1
}
set optking {
	frozen_dihedral = ("
		7 4 3 6
	")
}

ee,wfn = optimize('scf', return_wfn=True)
oeprop( wfn, 'DIPOLE', 'QUADRUPOLE', 'MULLIKEN_CHARGES')
f=open( 'psi4out.xyz', 'w' )
f.write( "12  " )
f.write( str(ee) + "\n" )
f.write( MOL.save_string_xyz() )
f.close()
--------------------------------------------------------------------------

    Molecular point group: c1
  Charge       = 0
  Multiplicity = 1
  Basis Set: CC-PVTZ
  Basis Set:
  @DF-RHF Final Energy:  -786.58868750225304
    Total Energy =                       -786.5886875022526965
    Molecular point group: c1
  Basis Set: CC-PVTZ
  Basis Set:
  Basis Set: CC-PVTZ
  Basis Set:
  @DF-RHF Final Energy:  -786.58925018853972
    Total Energy =                       -786.5892501885398360
  Basis Set: CC-PVTZ
  Basis Set:
  Basis Set: CC-PVTZ
  Basis Set:
  @DF-RHF Final Energy:  -786.58944914702215
    Total Energy =                       -786.5894491470224921
  Basis Set: CC-PVTZ
  Basis Set:
  Basis Set: CC-PVTZ
  Basis Set:
  @DF-RHF Final Energy:  -786.58947389556556
    Total Energy =                       -786.5894738955655612
  Basis Set: CC-PVTZ
  Basis Set:
  Basis Set: CC-PVTZ
  Basis Set:
  @DF-RHF Final Energy:  -786.58948043707812
    Total Energy =                       -786.5894804370775546
  Basis Set: CC-PVTZ
  Basis Set:
  Charge       = 0
  Multiplicity = 1
  Basis Set: CC-PVTZ
  Basis Set:

    Orbital Energies (a.u.)
    -----------------------

    Doubly Occupied:

       1A    -26.358501     2A    -26.358143     3A    -26.357570
       4A    -26.356777     5A    -26.353973     6A    -26.353635
       7A    -20.610139     8A    -11.519965     9A    -11.519424
      10A    -11.351651    11A     -1.771960    12A     -1.766414
      13A     -1.667611    14A     -1.663433    15A     -1.662860
      16A     -1.660989    17A     -1.440066    18A     -1.103236
      19A     -1.001803    20A     -0.945346    21A     -0.870798
      22A     -0.869045    23A     -0.859357    24A     -0.852163
      25A     -0.839825    26A     -0.822076    27A     -0.749596
      28A     -0.734037    29A     -0.731534    30A     -0.725448
      31A     -0.696251    32A     -0.691801    33A     -0.690303
      34A     -0.681470    35A     -0.677557    36A     -0.669232
      37A     -0.663428    38A     -0.658170    39A     -0.625439
      40A     -0.553955    41A     -0.510352

  @DF-RHF Final Energy:  -786.58948140468272

   => Energetics <=

    Nuclear Repulsion Energy =            670.9068476715063980
    One-Electron Energy =               -2429.0019940053284699
    Two-Electron Energy =                 971.5056649291393569
    DFT Exchange-Correlation Energy =       0.0000000000000000
    Empirical Dispersion Energy =           0.0000000000000000
    PCM Polarization Energy =               0.0000000000000000
    EFP Energy =                            0.0000000000000000
    Total Energy =                       -786.5894814046826014
    Molecular point group: c1
  Basis Set: CC-PVTZ
  Basis Set:

  -Total Gradient:
     Atom            X                  Y                   Z
    ------   -----------------  -----------------  -----------------
       1       -0.000000024375    -0.000006831063    -0.000007762410
       2        0.000008632958    -0.000028547953    -0.000018341170
       3       -0.000188159206     0.000501090073     0.000020119471
       4       -0.000158780949     0.000122426307    -0.000096926542
       5       -0.000016578650     0.000115137958    -0.000088144617
       6        0.000264777206    -0.000463266089     0.000005944509
       7        0.000239385230    -0.000430454898     0.000068199898
       8       -0.000137643343     0.000091332102    -0.000065410225
       9        0.000000967624     0.000209043530     0.000108013797
      10       -0.000035533789    -0.000041766319     0.000024787288
      11        0.000039295142    -0.000034243963     0.000022276924
      12       -0.000016337843    -0.000033919680     0.000027243078

  **** Optimization is complete! (in 6 steps) ****
    Final optimized geometry and variables:
    Molecular point group: c1

    Geometry (in Angstrom), charge = 0, multiplicity = 1:

    H            0.032846288984     1.986754575936     0.761181496040
    O            0.019198074646     1.883558868107    -0.176490910647
    C            0.005123439838     0.551826428991    -0.528556681396
    C           -1.286878026372    -0.113968041433    -0.051995012744
    C            1.283233684909    -0.134286533296    -0.042527203220
    H            0.009057466094     0.490884676620    -1.607029715097
    F           -1.385791533328    -0.090387680434     1.259935004619
    F           -2.315654960983     0.532934192113    -0.541068478133
    F           -1.372202218903    -1.360070714383    -0.444459617342
    F            2.320082138309     0.424559615868    -0.616581454777
    F            1.303962611497    -1.411411171828    -0.329430151058
    F            1.430283792428    -0.004587429400     1.258620915489

  Mulliken Charges: (a.u.)
   Center  Symbol    Alpha    Beta     Spin     Total
       1     H     0.38136  0.38136  0.00000  0.23727
       2     O     4.18969  4.18969  0.00000 -0.37939
       3     C     3.00474  3.00474  0.00000 -0.00948
       4     C     2.68577  2.68577  0.00000  0.62847
       5     C     2.68524  2.68524  0.00000  0.62953
       6     H     0.42434  0.42434  0.00000  0.15131
       7     F     4.60985  4.60985  0.00000 -0.21969
       8     F     4.60165  4.60165  0.00000 -0.20329
       9     F     4.60282  4.60282  0.00000 -0.20565
      10     F     4.60211  4.60211  0.00000 -0.20421
      11     F     4.60220  4.60220  0.00000 -0.20439
      12     F     4.61023  4.61023  0.00000 -0.22047

   Total alpha = 41.00000, Total beta = 41.00000, Total charge =  0.00000

*** Psi4 exiting successfully. Buy a developer a beer!
