  ==> Input File <==

--------------------------------------------------------------------------
set {
	reference rhf
	basis 6-31G*
}

set_num_threads( 4 )
memory 2 gb

molecule MOL {
0 1

H	 -3.001310	 1.869119	 -0.655024
O	 -2.713942	 2.090577	 0.220321
C	 -1.321172	 1.988968	 0.282210
C	 -0.793441	 0.596080	 0.058728
H	 -1.036565	 2.331996	 1.270407
H	 -0.851663	 2.667209	 -0.429531
C	 -1.530462	 -0.493172	 -0.025500
H	 0.279550	 0.524948	 -0.031341
H	 -1.092586	 -1.461565	 -0.186463
H	 -2.602122	 -0.450675	 0.050101

	symmetry c1
}
set optking {
	frozen_dihedral = ("
		3 4 7 9
	")
}

ee = optimize('scf')
oeprop('DIPOLE', 'QUADRUPOLE', 'MULLIKEN_CHARGES')
f=open( 'psi4out.xyz', 'w' )
f.write( "10  " )
f.write( str(ee) + "\n" )
f.write( MOL.save_string_xyz() )
f.close()
--------------------------------------------------------------------------

    Molecular point group: c1
  Charge       = 0
  Multiplicity = 1
  Basis Set: 6-31G*
  Basis Set:
  @DF-RHF Final Energy:  -191.91719475033290
    Total Energy =                       -191.9171947503328397
    Molecular point group: c1
  Basis Set: 6-31G*
  Basis Set:
  Basis Set: 6-31G*
  Basis Set:
  @DF-RHF Final Energy:  -191.91722598393602
    Total Energy =                       -191.9172259839360208
  Basis Set: 6-31G*
  Basis Set:
  Basis Set: 6-31G*
  Basis Set:
  @DF-RHF Final Energy:  -191.91724867333582
    Total Energy =                       -191.9172486733358483
  Basis Set: 6-31G*
  Basis Set:
  Charge       = 0
  Multiplicity = 1
  Basis Set: 6-31G*
  Basis Set:

    Orbital Energies (a.u.)
    -----------------------

    Doubly Occupied:

       1A    -20.560615     2A    -11.278386     3A    -11.231104
       4A    -11.219412     5A     -1.369273     6A     -1.057920
       7A     -0.928495     8A     -0.768852     9A     -0.687756
      10A     -0.661590    11A     -0.615927    12A     -0.570702
      13A     -0.538088    14A     -0.492126    15A     -0.447806
      16A     -0.364790

  @DF-RHF Final Energy:  -191.91724892668921

   => Energetics <=

    Nuclear Repulsion Energy =            119.3849087208346589
    One-Electron Energy =                -497.0186295975658481
    Two-Electron Energy =                 185.7164719500420347
    DFT Exchange-Correlation Energy =       0.0000000000000000
    Empirical Dispersion Energy =           0.0000000000000000
    PCM Polarization Energy =               0.0000000000000000
    EFP Energy =                            0.0000000000000000
    Total Energy =                       -191.9172489266891830
    Molecular point group: c1
  Basis Set: 6-31G*
  Basis Set:

  -Total Gradient:
     Atom            X                  Y                   Z
    ------   -----------------  -----------------  -----------------
       1       -0.000006599879     0.000006257357    -0.000008214781
       2        0.000005600034     0.000045831335    -0.000024115934
       3       -0.000026467910    -0.000024297568     0.000094518584
       4        0.000046318110    -0.000018847534    -0.000067490922
       5        0.000011850477     0.000011029615    -0.000000923972
       6       -0.000026230210     0.000000843907    -0.000005732706
       7       -0.000016886144    -0.000001881217    -0.000035248177
       8       -0.000004887848    -0.000001319464     0.000000054341
       9        0.000001596070    -0.000007934904     0.000047880030
      10        0.000015707301    -0.000009681529    -0.000000726463

  **** Optimization is complete! (in 4 steps) ****
    Final optimized geometry and variables:
    Molecular point group: c1

    Geometry (in Angstrom), charge = 0, multiplicity = 1:

    H           -1.352181089574     0.770031408863    -0.784755201142
    O           -1.067296616044     0.988340755490     0.092213490880
    C            0.325011682327     0.884579229707     0.158206721577
    C            0.851527651691    -0.508594915755    -0.066661748180
    H            0.606845765987     1.224916483059     1.148151742854
    H            0.797464060820     1.564113859179    -0.550456462191
    C            0.113508503760    -1.596855587437    -0.154666631598
    H            1.924594701142    -0.580781755925    -0.154458893442
    H            0.557799979778    -2.562394628108    -0.316573460613
    H           -0.956130201662    -1.564865279666    -0.053823972985

  Mulliken Charges: (a.u.)
   Center  Symbol    Alpha    Beta     Spin     Total
       1     H     0.28087  0.28087  0.00000  0.43827
       2     O     4.36677  4.36677  0.00000 -0.73355
       3     C     3.00039  3.00039  0.00000 -0.00079
       4     C     3.09368  3.09368  0.00000 -0.18736
       5     H     0.40816  0.40816  0.00000  0.18367
       6     H     0.42571  0.42571  0.00000  0.14859
       7     C     3.19714  3.19714  0.00000 -0.39428
       8     H     0.41020  0.41020  0.00000  0.17960
       9     H     0.41100  0.41100  0.00000  0.17800
      10     H     0.40607  0.40607  0.00000  0.18785

   Total alpha = 16.00000, Total beta = 16.00000, Total charge =  0.00000
