  ==> Input File <==

--------------------------------------------------------------------------
set {
	reference rhf
	basis 6-31G*
}

set_num_threads( 1 )
memory 2 gb

molecule MOL {
0 1

O	 0.911081	 0.913022	 -0.861875
C	 1.122059	 0.121804	 -0.000188
C	 0.259367	 -0.100813	 1.218047
O	 2.172624	 -0.688929	 0.000216
C	 -0.964933	 0.807984	 1.268240
H	 -0.027717	 -1.148803	 1.225432
H	 0.889570	 0.038982	 2.092150
C	 -1.820853	 0.562192	 2.511765
H	 -1.561781	 0.654896	 0.374460
H	 -0.643168	 1.844457	 1.241929
C	 -3.049010	 1.469474	 2.570704
H	 -2.139902	 -0.477907	 2.533619
H	 -1.217307	 0.714401	 3.404309
H	 -3.690844	 1.315990	 1.708065
H	 -3.638431	 1.274839	 3.461195
H	 -2.761642	 2.516774	 2.585603
C	 3.452279	 -0.082609	 0.000533
H	 3.583069	 0.529321	 -0.880332
H	 4.163299	 -0.894027	 0.001117
H	 3.582335	 0.529955	 0.881077

	symmetry c1
}
set optking {
	frozen_dihedral = ("
		9 5 8 12,
		1 2 3 6,
		9 5 3 6
	")
}

ee = energy('scf')
oeprop('DIPOLE', 'QUADRUPOLE', 'MULLIKEN_CHARGES')
f=open( 'psi4out.xyz', 'w' )
f.write( "20  " )
f.write( str(ee) + "\n" )
f.write( MOL.save_string_xyz() )
f.close()
--------------------------------------------------------------------------

    Molecular point group: c1

    Geometry (in Angstrom), charge = 0, multiplicity = 1:

       Center              X                  Y                   Z               Mass
    ------------   -----------------  -----------------  -----------------  -----------------
           O          0.619731876619     0.535074164541    -1.687326109767    15.994914619560
           C          0.830709876619    -0.256143835459    -0.825639109767    12.000000000000
           C         -0.031982123381    -0.478760835459     0.392595890233    12.000000000000
           O          1.881274876619    -1.066876835459    -0.825235109767    15.994914619560
           C         -1.256282123381     0.430036164541     0.442788890233    12.000000000000
           H         -0.319066123381    -1.526750835459     0.399980890233     1.007825032070
           H          0.598220876619    -0.338965835459     1.266698890233     1.007825032070
           C         -2.112202123381     0.184244164541     1.686313890233    12.000000000000
           H         -1.853130123381     0.276948164541    -0.450991109767     1.007825032070
           H         -0.934517123381     1.466509164541     0.416477890233     1.007825032070
           C         -3.340359123381     1.091526164541     1.745252890233    12.000000000000
           H         -2.431251123381    -0.855854835459     1.708167890233     1.007825032070
           H         -1.508656123381     0.336453164541     2.578857890233     1.007825032070
           H         -3.982193123381     0.938042164541     0.882613890233     1.007825032070
           H         -3.929780123381     0.896891164541     2.635743890233     1.007825032070
           H         -3.052991123381     2.138826164541     1.760151890233     1.007825032070
           C          3.160929876619    -0.460556835459    -0.824918109767    12.000000000000
           H          3.291719876619     0.151373164541    -1.705783109767     1.007825032070
           H          3.871949876619    -1.271974835459    -0.824334109767     1.007825032070
           H          3.290985876619     0.152007164541     0.055625890233     1.007825032070

  Charge       = 0
  Multiplicity = 1
  Basis Set: 6-31G*
  Basis Set:

    Orbital Energies (a.u.)
    -----------------------

    Doubly Occupied:

       1A    -20.590438     2A    -20.551907     3A    -11.373398
       4A    -11.289736     5A    -11.236341     6A    -11.220782
       7A    -11.219418     8A    -11.211055     9A     -1.465427
      10A     -1.364987    11A     -1.088606    12A     -1.021752
      13A     -0.972866    14A     -0.890830    15A     -0.805278
      16A     -0.768384    17A     -0.695986    18A     -0.681291
      19A     -0.673906    20A     -0.644042    21A     -0.608788
      22A     -0.591540    23A     -0.584426    24A     -0.548613
      25A     -0.535864    26A     -0.512984    27A     -0.500463
      28A     -0.482662    29A     -0.476819    30A     -0.470599
      31A     -0.452203    32A     -0.432676

  @DF-RHF Final Energy:  -383.92648888253808

   => Energetics <=

    Nuclear Repulsion Energy =            381.6142043279696168
    One-Electron Energy =               -1279.1533326606374885
    Two-Electron Energy =                 513.6126394501299046
    DFT Exchange-Correlation Energy =       0.0000000000000000
    Empirical Dispersion Energy =           0.0000000000000000
    PCM Polarization Energy =               0.0000000000000000
    EFP Energy =                            0.0000000000000000
    Total Energy =                       -383.9264888825379103

  Mulliken Charges: (a.u.)
   Center  Symbol    Alpha    Beta     Spin     Total
       1     O     4.26866  4.26866  0.00000 -0.53731
       2     C     2.60860  2.60860  0.00000  0.78280
       3     C     3.21042  3.21042  0.00000 -0.42084
       4     O     4.31097  4.31097  0.00000 -0.62193
       5     C     3.15217  3.15217  0.00000 -0.30434
       6     H     0.39902  0.39902  0.00000  0.20196
       7     H     0.40597  0.40597  0.00000  0.18806
       8     C     3.15399  3.15399  0.00000 -0.30798
       9     H     0.41105  0.41105  0.00000  0.17790
      10     H     0.41319  0.41319  0.00000  0.17361
      11     C     3.23926  3.23926  0.00000 -0.47853
      12     H     0.42264  0.42264  0.00000  0.15473
      13     H     0.42382  0.42382  0.00000  0.15235
      14     H     0.41965  0.41965  0.00000  0.16070
      15     H     0.41879  0.41879  0.00000  0.16242
      16     H     0.42025  0.42025  0.00000  0.15949
      17     C     3.09455  3.09455  0.00000 -0.18909
      18     H     0.40330  0.40330  0.00000  0.19341
      19     H     0.40427  0.40427  0.00000  0.19145
      20     H     0.41943  0.41943  0.00000  0.16114

   Total alpha = 32.00000, Total beta = 32.00000, Total charge =  0.00000
