  ==> Input File <==

--------------------------------------------------------------------------
set {
	reference rhf
	basis 6-31G*
}

set_num_threads( 4 )
memory 2 gb

molecule MOL {
0 1

H	 -2.410653	 0.000862	 0.740251
N	 -1.852125	 0.165761	 -0.074816
C	 -0.563778	 -0.502042	 0.037919
H	 -1.728543	 1.157983	 -0.145372
C	 0.575259	 0.508231	 -0.048326
H	 -0.482092	 -1.204004	 -0.786564
H	 -0.460411	 -1.085169	 0.956626
C	 1.954651	 -0.143624	 0.035137
H	 0.475158	 1.060484	 -0.977307
H	 0.469181	 1.234488	 0.755973
H	 2.103292	 -0.853109	 -0.774172
H	 2.742821	 0.599562	 -0.030094
H	 2.083613	 -0.679371	 0.971560

	symmetry c1
}
set optking {
	frozen_dihedral = ("
		1 2 3 6
	")
}

ee = optimize('scf')
oeprop('DIPOLE', 'QUADRUPOLE', 'MULLIKEN_CHARGES')
f=open( 'psi4out.xyz', 'w' )
f.write( "13  " )
f.write( str(ee) + "\n" )
f.write( MOL.save_string_xyz() )
f.close()
--------------------------------------------------------------------------

    Molecular point group: c1
  Charge       = 0
  Multiplicity = 1
  Basis Set: 6-31G*
  Basis Set:
  @DF-RHF Final Energy:  -173.27714005832030
    Total Energy =                       -173.2771400583201853
    Molecular point group: c1
  Basis Set: 6-31G*
  Basis Set:
  Basis Set: 6-31G*
  Basis Set:
  @DF-RHF Final Energy:  -173.27791482518126
    Total Energy =                       -173.2779148251813410
  Basis Set: 6-31G*
  Basis Set:
  Basis Set: 6-31G*
  Basis Set:
  @DF-RHF Final Energy:  -173.27805635731164
    Total Energy =                       -173.2780563573116410
  Basis Set: 6-31G*
  Basis Set:
  Basis Set: 6-31G*
  Basis Set:
  @DF-RHF Final Energy:  -173.27806516129041
    Total Energy =                       -173.2780651612905842
  Basis Set: 6-31G*
  Basis Set:
  Basis Set: 6-31G*
  Basis Set:
  @DF-RHF Final Energy:  -173.27807060934833
    Total Energy =                       -173.2780706093483616
  Basis Set: 6-31G*
  Basis Set:
  Charge       = 0
  Multiplicity = 1
  Basis Set: 6-31G*
  Basis Set:

    Orbital Energies (a.u.)
    -----------------------

    Doubly Occupied:

       1A    -15.528821     2A    -11.239776     3A    -11.218977
       4A    -11.212805     5A     -1.173161     6A     -1.038207
       7A     -0.900028     8A     -0.807782     9A     -0.663051
      10A     -0.624396    11A     -0.605239    12A     -0.554571
      13A     -0.545104    14A     -0.499793    15A     -0.483984
      16A     -0.471268    17A     -0.373464

  @DF-RHF Final Energy:  -173.27807146379968

   => Energetics <=

    Nuclear Repulsion Energy =            131.6751686753657395
    One-Electron Energy =                -494.0256268253425560
    Two-Electron Energy =                 189.0723866861772535
    DFT Exchange-Correlation Energy =       0.0000000000000000
    Empirical Dispersion Energy =           0.0000000000000000
    PCM Polarization Energy =               0.0000000000000000
    EFP Energy =                            0.0000000000000000
    Total Energy =                       -173.2780714637995629
    Molecular point group: c1
  Basis Set: 6-31G*
  Basis Set:

  -Total Gradient:
     Atom            X                  Y                   Z
    ------   -----------------  -----------------  -----------------
       1       -0.000280010465    -0.000653663535    -0.000302195316
       2        0.000263100223     0.000716400257     0.000490006301
       3        0.000342136660     0.000426288659    -0.000637505074
       4        0.000020841906    -0.000003544604     0.000005154140
       5       -0.000078089078     0.000007474860    -0.000003646830
       6       -0.000273777081    -0.000498424986     0.000416363918
       7       -0.000007978679     0.000008349455     0.000011998284
       8        0.000004219700    -0.000011421582     0.000008001158
       9        0.000004677392     0.000005341177     0.000009643144
      10        0.000008448762     0.000000027425    -0.000006261244
      11       -0.000014124157     0.000002551505     0.000005381946
      12        0.000002490316    -0.000000242990    -0.000002653374
      13        0.000008064500     0.000000864359     0.000005712948

  **** Optimization is complete! (in 6 steps) ****
    Final optimized geometry and variables:
    Molecular point group: c1

    Geometry (in Angstrom), charge = 0, multiplicity = 1:

    H           -2.437236128584    -0.015369383282     0.745422535779
    N           -1.883999421818     0.129428572666    -0.073604853205
    C           -0.568336170047    -0.496841771193     0.039307931015
    H           -1.813335155020     1.116252153372    -0.219939921044
    C            0.583591768077     0.503509367866    -0.029920735582
    H           -0.451673118924    -1.229780169576    -0.755087947742
    H           -0.500841443872    -1.050017474054     0.973235234357
    C            1.955969111875    -0.165947721616     0.019330490493
    H            0.494577459457     1.079022382328    -0.949435258831
    H            0.490061773196     1.211896462658     0.790807520793
    H            2.083909981935    -0.858219491973    -0.807585725975
    H            2.752440334494     0.568849434928    -0.038415889777
    H            2.088009251500    -0.724438677350     0.941754497798

  Mulliken Charges: (a.u.)
   Center  Symbol    Alpha    Beta     Spin     Total
       1     H     0.33119  0.33119  0.00000  0.33761
       2     N     3.93278  3.93278  0.00000 -0.86556
       3     C     3.04493  3.04493  0.00000 -0.08986
       4     H     0.33125  0.33125  0.00000  0.33751
       5     C     3.16690  3.16690  0.00000 -0.33380
       6     H     0.42087  0.42087  0.00000  0.15826
       7     H     0.42808  0.42808  0.00000  0.14384
       8     C     3.24280  3.24280  0.00000 -0.48559
       9     H     0.42006  0.42006  0.00000  0.15988
      10     H     0.42395  0.42395  0.00000  0.15211
      11     H     0.41877  0.41877  0.00000  0.16247
      12     H     0.41744  0.41744  0.00000  0.16511
      13     H     0.42098  0.42098  0.00000  0.15803

   Total alpha = 17.00000, Total beta = 17.00000, Total charge = -0.00000
