  ==> Input File <==

--------------------------------------------------------------------------
set {
	reference rhf
	basis 6-31G*
}

set_num_threads( 1 )
memory 2 gb

molecule MOL {
0 1

H	 -3.420663	 1.227371	 -1.044276
O	 -3.452007	 0.283848	 -0.965577
C	 -3.181085	 -0.079926	 0.364119
C	 -1.765924	 0.277073	 0.805136
H	 -3.327791	 -1.152017	 0.410903
H	 -3.905698	 0.375695	 1.036898
C	 -0.677594	 -0.417312	 -0.014550
H	 -1.637766	 1.358238	 0.744969
H	 -1.659588	 0.017670	 1.857098
C	 0.738335	 -0.034840	 0.421385
H	 -0.814977	 -0.178223	 -1.064632
H	 -0.802730	 -1.495410	 0.071702
C	 1.822265	 -0.738362	 -0.399735
H	 0.853533	 1.043532	 0.342250
H	 0.871597	 -0.279636	 1.474438
C	 1.826339	 -0.386762	 -1.891886
H	 1.716939	 -1.816149	 -0.285817
H	 2.794514	 -0.483845	 0.017120
C	 0.588205	 -0.854877	 -2.658893
H	 2.707229	 -0.832042	 -2.348010
H	 1.937120	 0.689615	 -2.007402
H	 0.444807	 -1.926765	 -2.551040
H	 0.687514	 -0.640864	 -3.718692
H	 -0.314814	 -0.363692	 -2.311824

	symmetry c1
}
set optking {
	frozen_dihedral = ("
		20 16 13 17,
		13 10 7 11,
		11 7 4 3,
		1 2 3 5,
		7 4 3 2
	")
}

ee = energy('scf')
oeprop('DIPOLE', 'QUADRUPOLE', 'MULLIKEN_CHARGES')
f=open( 'psi4out.xyz', 'w' )
f.write( "24  " )
f.write( str(ee) + "\n" )
f.write( MOL.save_string_xyz() )
f.close()
--------------------------------------------------------------------------

    Molecular point group: c1

    Geometry (in Angstrom), charge = 0, multiplicity = 1:

       Center              X                  Y                   Z               Mass
    ------------   -----------------  -----------------  -----------------  -----------------
           H         -2.844456818277     1.457919702712    -0.481177224525     1.007825032070
           O         -2.875800818277     0.514396702712    -0.402478224525    15.994914619560
           C         -2.604878818277     0.150622702712     0.927217775475    12.000000000000
           C         -1.189717818277     0.507621702712     1.368234775475    12.000000000000
           H         -2.751584818277    -0.921468297288     0.974001775475     1.007825032070
           H         -3.329491818277     0.606243702712     1.599996775475     1.007825032070
           C         -0.101387818277    -0.186763297288     0.548548775475    12.000000000000
           H         -1.061559818277     1.588786702712     1.308067775475     1.007825032070
           H         -1.083381818277     0.248218702712     2.420196775475     1.007825032070
           C          1.314541181723     0.195708702712     0.984483775475    12.000000000000
           H         -0.238770818277     0.052325702712    -0.501533224525     1.007825032070
           H         -0.226523818277    -1.264861297288     0.634800775475     1.007825032070
           C          2.398471181723    -0.507813297288     0.163363775475    12.000000000000
           H          1.429739181723     1.274080702712     0.905348775475     1.007825032070
           H          1.447803181723    -0.049087297288     2.037536775475     1.007825032070
           C          2.402545181723    -0.156213297288    -1.328787224525    12.000000000000
           H          2.293145181723    -1.585600297288     0.277281775475     1.007825032070
           H          3.370720181723    -0.253296297288     0.580218775475     1.007825032070
           C          1.164411181723    -0.624328297288    -2.095794224525    12.000000000000
           H          3.283435181723    -0.601493297288    -1.784911224525     1.007825032070
           H          2.513326181723     0.920163702712    -1.444303224525     1.007825032070
           H          1.021013181723    -1.696216297288    -1.987941224525     1.007825032070
           H          1.263720181723    -0.410315297288    -3.155593224525     1.007825032070
           H          0.261392181723    -0.133143297288    -1.748725224525     1.007825032070

  Charge       = 0
  Multiplicity = 1
  Basis Set: 6-31G*
  Basis Set:

    Orbital Energies (a.u.)
    -----------------------

    Doubly Occupied:

       1A    -20.554175     2A    -11.267224     3A    -11.215556
       4A    -11.213053     5A    -11.212538     6A    -11.211597
       7A    -11.204996     8A    -11.199884     9A     -1.360599
      10A     -1.092213    11A     -1.043203    12A     -0.982459
      13A     -0.924577    14A     -0.847936    15A     -0.799335
      16A     -0.775289    17A     -0.680631    18A     -0.663191
      19A     -0.624605    20A     -0.613123    21A     -0.597294
      22A     -0.588815    23A     -0.552114    24A     -0.543810
      25A     -0.526932    26A     -0.508109    27A     -0.496060
      28A     -0.475513    29A     -0.464584    30A     -0.460101
      31A     -0.455637    32A     -0.427582    33A     -0.415550

  @DF-RHF Final Energy:  -349.22399525561326

   => Energetics <=

    Nuclear Repulsion Energy =            401.2865381977084667
    One-Electron Energy =               -1269.0245327924485537
    Two-Electron Energy =                 518.5139993391273947
    DFT Exchange-Correlation Energy =       0.0000000000000000
    Empirical Dispersion Energy =           0.0000000000000000
    PCM Polarization Energy =               0.0000000000000000
    EFP Energy =                            0.0000000000000000
    Total Energy =                       -349.2239952556126354

  Mulliken Charges: (a.u.)
   Center  Symbol    Alpha    Beta     Spin     Total
       1     H     0.28340  0.28340  0.00000  0.43320
       2     O     4.36879  4.36879  0.00000 -0.73757
       3     C     2.99613  2.99613  0.00000  0.00774
       4     C     3.16598  3.16598  0.00000 -0.33197
       5     H     0.41651  0.41651  0.00000  0.16699
       6     H     0.42827  0.42827  0.00000  0.14345
       7     C     3.15293  3.15293  0.00000 -0.30585
       8     H     0.42947  0.42947  0.00000  0.14107
       9     H     0.42338  0.42338  0.00000  0.15323
      10     C     3.15196  3.15196  0.00000 -0.30391
      11     H     0.41469  0.41469  0.00000  0.17061
      12     H     0.42428  0.42428  0.00000  0.15143
      13     C     3.15473  3.15473  0.00000 -0.30947
      14     H     0.42546  0.42546  0.00000  0.14909
      15     H     0.42267  0.42267  0.00000  0.15466
      16     C     3.15322  3.15322  0.00000 -0.30644
      17     H     0.42412  0.42412  0.00000  0.15175
      18     H     0.42119  0.42119  0.00000  0.15762
      19     C     3.24329  3.24329  0.00000 -0.48659
      20     H     0.42019  0.42019  0.00000  0.15963
      21     H     0.42441  0.42441  0.00000  0.15118
      22     H     0.42139  0.42139  0.00000  0.15722
      23     H     0.42059  0.42059  0.00000  0.15882
      24     H     0.41294  0.41294  0.00000  0.17412

   Total alpha = 33.00000, Total beta = 33.00000, Total charge = -0.00000
