  ==> Input File <==

--------------------------------------------------------------------------
set {
	reference rhf
	basis 6-31G*
}

set_num_threads( 1 )
memory 2 gb

molecule MOL {
0 1

O	 -2.758616	 -0.230731	 0.744189
C	 -1.921153	 0.064240	 -0.045697
C	 -2.173955	 0.374041	 -1.496373
O	 -0.632575	 0.154573	 0.251549
H	 -1.617076	 -0.315350	 -2.120531
H	 -3.230015	 0.292284	 -1.705870
H	 -1.826760	 1.375521	 -1.722757
C	 0.160891	 -1.019931	 0.106212
C	 1.589627	 -0.672828	 0.480843
H	 0.089836	 -1.367806	 -0.916050
H	 -0.238459	 -1.792301	 0.749618
C	 2.246377	 0.346236	 -0.452210
H	 2.163194	 -1.597435	 0.473358
H	 1.604769	 -0.303424	 1.502885
C	 3.691736	 0.652107	 -0.061850
H	 2.219579	 -0.032311	 -1.472055
H	 1.666466	 1.263317	 -0.447249
H	 4.134505	 1.377213	 -0.737283
H	 4.305508	 -0.243868	 -0.089969
H	 3.748266	 1.059562	 0.943567

	symmetry c1
}
set optking {
	frozen_dihedral = ("
		16 12 9 8,
		2 4 8 10,
		12 9 8 10
	")
}

ee = energy('scf')
oeprop('DIPOLE', 'QUADRUPOLE', 'MULLIKEN_CHARGES')
f=open( 'psi4out.xyz', 'w' )
f.write( "20  " )
f.write( str(ee) + "\n" )
f.write( MOL.save_string_xyz() )
f.close()
--------------------------------------------------------------------------

    Molecular point group: c1

    Geometry (in Angstrom), charge = 0, multiplicity = 1:

       Center              X                  Y                   Z               Mass
    ------------   -----------------  -----------------  -----------------  -----------------
           O         -2.775863541556    -0.191288903240     0.806970069208    15.994914619560
           C         -1.938400541556     0.103682096760     0.017084069208    12.000000000000
           C         -2.191202541556     0.413483096760    -1.433591930792    12.000000000000
           O         -0.649822541556     0.194015096760     0.314330069208    15.994914619560
           H         -1.634323541556    -0.275907903240    -2.057749930792     1.007825032070
           H         -3.247262541556     0.331726096760    -1.643088930792     1.007825032070
           H         -1.844007541556     1.414963096760    -1.659975930792     1.007825032070
           C          0.143643458444    -0.980488903240     0.168993069208    12.000000000000
           C          1.572379458444    -0.633385903240     0.543624069208    12.000000000000
           H          0.072588458444    -1.328363903240    -0.853268930792     1.007825032070
           H         -0.255706541556    -1.752858903240     0.812399069208     1.007825032070
           C          2.229129458444     0.385678096760    -0.389428930792    12.000000000000
           H          2.145946458444    -1.557992903240     0.536139069208     1.007825032070
           H          1.587521458444    -0.263981903240     1.565666069208     1.007825032070
           C          3.674488458444     0.691549096760     0.000931069208    12.000000000000
           H          2.202331458444     0.007131096760    -1.409273930792     1.007825032070
           H          1.649218458444     1.302759096760    -0.384467930792     1.007825032070
           H          4.117257458444     1.416655096760    -0.674501930792     1.007825032070
           H          4.288260458444    -0.204425903240    -0.027187930792     1.007825032070
           H          3.731018458444     1.099004096760     1.006348069208     1.007825032070

  Charge       = 0
  Multiplicity = 1
  Basis Set: 6-31G*
  Basis Set:

    Orbital Energies (a.u.)
    -----------------------

    Doubly Occupied:

       1A    -20.584726     2A    -20.553648     3A    -11.375507
       4A    -11.296871     5A    -11.233958     6A    -11.230608
       7A    -11.224134     8A    -11.215831     9A     -1.462497
      10A     -1.366527    11A     -1.088160    12A     -1.022896
      13A     -0.991351    14A     -0.886988    15A     -0.813858
      16A     -0.781023    17A     -0.693691    18A     -0.687620
      19A     -0.654170    20A     -0.636295    21A     -0.617538
      22A     -0.592676    23A     -0.576764    24A     -0.559043
      25A     -0.549644    26A     -0.534428    27A     -0.493962
      28A     -0.488510    29A     -0.481196    30A     -0.475582
      31A     -0.450539    32A     -0.436720

  @DF-RHF Final Energy:  -383.92469756021461

   => Energetics <=

    Nuclear Repulsion Energy =            385.8550711471311274
    One-Electron Energy =               -1287.4455509392601016
    Two-Electron Energy =                 517.6657822319151592
    DFT Exchange-Correlation Energy =       0.0000000000000000
    Empirical Dispersion Energy =           0.0000000000000000
    PCM Polarization Energy =               0.0000000000000000
    EFP Energy =                            0.0000000000000000
    Total Energy =                       -383.9246975602137582

  Mulliken Charges: (a.u.)
   Center  Symbol    Alpha    Beta     Spin     Total
       1     O     4.25595  4.25595  0.00000 -0.51190
       2     C     2.62837  2.62837  0.00000  0.74326
       3     C     3.28663  3.28663  0.00000 -0.57326
       4     O     4.31184  4.31184  0.00000 -0.62369
       5     H     0.40741  0.40741  0.00000  0.18518
       6     H     0.39844  0.39844  0.00000  0.20312
       7     H     0.39922  0.39922  0.00000  0.20156
       8     C     3.00402  3.00402  0.00000 -0.00804
       9     C     3.16312  3.16312  0.00000 -0.32624
      10     H     0.42335  0.42335  0.00000  0.15331
      11     H     0.40655  0.40655  0.00000  0.18690
      12     C     3.15545  3.15545  0.00000 -0.31089
      13     H     0.41873  0.41873  0.00000  0.16255
      14     H     0.40805  0.40805  0.00000  0.18390
      15     C     3.24079  3.24079  0.00000 -0.48157
      16     H     0.42519  0.42519  0.00000  0.14962
      17     H     0.40923  0.40923  0.00000  0.18153
      18     H     0.41704  0.41704  0.00000  0.16593
      19     H     0.42179  0.42179  0.00000  0.15642
      20     H     0.41885  0.41885  0.00000  0.16230

   Total alpha = 32.00000, Total beta = 32.00000, Total charge =  0.00000
