                              Psi4 1.0.54 Driver

  ==> Input File <==

--------------------------------------------------------------------------
set {
	reference rhf
	basis cc-pvtz
}

set_num_threads( 4 )
memory 2 gb

molecule MOL {
0 1

H	 -2.481720	 -0.367550	 -0.636461
N	 -1.851927	 0.161443	 -0.071573
C	 -0.561396	 -0.500007	 0.035200
H	 -2.275994	 0.262745	 0.826893
C	 0.575129	 0.507849	 -0.048832
H	 -0.478089	 -1.200753	 -0.788956
H	 -0.456191	 -1.081816	 0.952176
C	 1.951750	 -0.141983	 0.035101
H	 0.478254	 1.061643	 -0.975981
H	 0.467676	 1.231891	 0.755499
H	 2.101550	 -0.848142	 -0.774949
H	 2.738260	 0.600794	 -0.026526
H	 2.078939	 -0.679792	 0.968824

	symmetry c1
}
set optking {
	frozen_dihedral = ("
		1 2 3 6
	")
}

ee,wfn = optimize('scf', return_wfn=True)
oeprop( wfn, 'DIPOLE', 'QUADRUPOLE', 'MULLIKEN_CHARGES')
f=open( 'psi4out.xyz', 'w' )
f.write( "13  " )
f.write( str(ee) + "\n" )
f.write( MOL.save_string_xyz() )
f.close()
--------------------------------------------------------------------------

    Molecular point group: c1
  Charge       = 0
  Multiplicity = 1
  Basis Set: CC-PVTZ
  Basis Set:
  @DF-RHF Final Energy:  -173.35027181154382
    Total Energy =                       -173.3502718115437915
    Molecular point group: c1
  Basis Set: CC-PVTZ
  Basis Set:
  Basis Set: CC-PVTZ
  Basis Set:
  @DF-RHF Final Energy:  -173.35056505815533
    Total Energy =                       -173.3505650581554391
  Basis Set: CC-PVTZ
  Basis Set:
  Basis Set: CC-PVTZ
  Basis Set:
  @DF-RHF Final Energy:  -173.35064138153035
    Total Energy =                       -173.3506413815303517
  Basis Set: CC-PVTZ
  Basis Set:
  Basis Set: CC-PVTZ
  Basis Set:
  @DF-RHF Final Energy:  -173.35064518458279
    Total Energy =                       -173.3506451845827314
  Basis Set: CC-PVTZ
  Basis Set:
  Charge       = 0
  Multiplicity = 1
  Basis Set: CC-PVTZ
  Basis Set:

    Orbital Energies (a.u.)
    -----------------------

    Doubly Occupied:

       1A    -15.524868     2A    -11.238892     3A    -11.205482
       4A    -11.204574     5A     -1.175502     6A     -1.034344
       7A     -0.899072     8A     -0.796113     9A     -0.675157
      10A     -0.616762    11A     -0.603877    12A     -0.572615
      13A     -0.520059    14A     -0.491586    15A     -0.484703
      16A     -0.464269    17A     -0.379489

  @DF-RHF Final Energy:  -173.35064564783642

   => Energetics <=

    Nuclear Repulsion Energy =            131.6858406056440458
    One-Electron Energy =                -494.2982443587791295
    Two-Electron Energy =                 189.2617581052987248
    DFT Exchange-Correlation Energy =       0.0000000000000000
    Empirical Dispersion Energy =           0.0000000000000000
    PCM Polarization Energy =               0.0000000000000000
    EFP Energy =                            0.0000000000000000
    Total Energy =                       -173.3506456478363589
    Molecular point group: c1
  Basis Set: CC-PVTZ
  Basis Set:

  -Total Gradient:
     Atom            X                  Y                   Z
    ------   -----------------  -----------------  -----------------
       1        0.000748153938     0.001160946719    -0.001938131032
       2       -0.001190349545    -0.001795422163     0.002711708098
       3        0.001281843062     0.002185273054    -0.002020215271
       4        0.000012924284     0.000009013672     0.000004355987
       5       -0.000052091416    -0.000054237285     0.000038423644
       6       -0.000844103934    -0.001525199474     0.001208029618
       7        0.000014761550     0.000005796443     0.000012659030
       8        0.000020749109     0.000021419143    -0.000020584459
       9        0.000001437679    -0.000005925260     0.000008367008
      10       -0.000006843599    -0.000002489147    -0.000000992125
      11       -0.000002702223     0.000000301687     0.000005324028
      12        0.000024376237    -0.000010717296    -0.000002461350
      13       -0.000008155140     0.000011239908    -0.000006483176

  **** Optimization is complete! (in 5 steps) ****
    Final optimized geometry and variables:
    Molecular point group: c1

    Geometry (in Angstrom), charge = 0, multiplicity = 1:

    H           -2.498586890852    -0.371445230220    -0.628730249374
    N           -1.858231598820     0.155146435283    -0.078552601392
    C           -0.556220250415    -0.490627593951     0.020634349590
    H           -2.269318885711     0.322484058466     0.812752817612
    C            0.582475856222     0.518001381335    -0.036700761886
    H           -0.458026997223    -1.200665594423    -0.793883524990
    H           -0.465648150530    -1.078131633756     0.933576838290
    C            1.957409254075    -0.131825890535     0.072061359674
    H            0.502919077099     1.075883054852    -0.963251858050
    H            0.452114590711     1.238713691234     0.765648642198
    H            2.123355063247    -0.838232452807    -0.735139958777
    H            2.745777107158     0.610198136615     0.026065259704
    H            2.067178147307    -0.670769646795     1.007677146047

  Mulliken Charges: (a.u.)
   Center  Symbol    Alpha    Beta     Spin     Total
       1     H     0.42473  0.42473  0.00000  0.15053
       2     N     3.69781  3.69781  0.00000 -0.39562
       3     C     3.03501  3.03501  0.00000 -0.07003
       4     H     0.42759  0.42759  0.00000  0.14481
       5     C     3.06388  3.06388  0.00000 -0.12777
       6     H     0.45725  0.45725  0.00000  0.08550
       7     H     0.46378  0.46378  0.00000  0.07244
       8     C     3.15522  3.15522  0.00000 -0.31044
       9     H     0.45381  0.45381  0.00000  0.09239
      10     H     0.45928  0.45928  0.00000  0.08143
      11     H     0.45668  0.45668  0.00000  0.08664
      12     H     0.44768  0.44768  0.00000  0.10464
      13     H     0.45726  0.45726  0.00000  0.08549

   Total alpha = 17.00000, Total beta = 17.00000, Total charge = -0.00000

*** Psi4 exiting successfully. Buy a developer a beer!
