  ==> Input File <==

--------------------------------------------------------------------------
set {
	reference rhf
	basis 6-31G*
}

set_num_threads( 4 )
memory 2 gb

molecule MOL {
0 1

H	 -2.792721	 0.412697	 -0.092619
N	 -1.820426	 0.531775	 0.115799
C	 -1.073738	 0.864989	 -1.084421
H	 -1.486113	 -0.336240	 0.487139
C	 0.398053	 1.003202	 -0.755993
H	 -1.179952	 0.131833	 -1.885172
H	 -1.433731	 1.816332	 -1.464070
O	 0.874168	 -0.245412	 -0.342030
H	 0.949366	 1.342147	 -1.632810
H	 0.528738	 1.738091	 0.035268
C	 2.202317	 -0.244239	 0.074611
H	 2.711377	 -1.041390	 -0.449894
H	 2.692099	 0.699270	 -0.159667
H	 2.283185	 -0.418429	 1.145558

	symmetry c1
}
set optking {
	frozen_dihedral = ("
		5 8 11 13
	")
}

ee = optimize('scf')
oeprop('DIPOLE', 'QUADRUPOLE', 'MULLIKEN_CHARGES')
f=open( 'psi4out.xyz', 'w' )
f.write( "14  " )
f.write( str(ee) + "\n" )
f.write( MOL.save_string_xyz() )
f.close()
--------------------------------------------------------------------------

    Molecular point group: c1
  Charge       = 0
  Multiplicity = 1
  Basis Set: 6-31G*
  Basis Set:
  @DF-RHF Final Energy:  -248.12125492018936
    Total Energy =                       -248.1212549201890170
    Molecular point group: c1
  Basis Set: 6-31G*
  Basis Set:
  Basis Set: 6-31G*
  Basis Set:
  @DF-RHF Final Energy:  -248.12153775819357
    Total Energy =                       -248.1215377581937105
  Basis Set: 6-31G*
  Basis Set:
  Basis Set: 6-31G*
  Basis Set:
  @DF-RHF Final Energy:  -248.12163755397870
    Total Energy =                       -248.1216375539788146
  Basis Set: 6-31G*
  Basis Set:
  Charge       = 0
  Multiplicity = 1
  Basis Set: 6-31G*
  Basis Set:

    Orbital Energies (a.u.)
    -----------------------

    Doubly Occupied:

       1A    -20.553716     2A    -15.527947     3A    -11.266079
       4A    -11.265814     5A    -11.240227     6A     -1.376465
       7A     -1.173071     8A     -0.998819     9A     -0.907457
      10A     -0.814742    11A     -0.682429    12A     -0.671266
      13A     -0.642875    14A     -0.609174    15A     -0.605305
      16A     -0.539290    17A     -0.535255    18A     -0.496327
      19A     -0.471564    20A     -0.412030    21A     -0.379656

  @DF-RHF Final Energy:  -248.12163822348035

   => Energetics <=

    Nuclear Repulsion Energy =            194.3889512419558230
    One-Electron Energy =                -722.6821547528011251
    Two-Electron Energy =                 280.1715652873650697
    DFT Exchange-Correlation Energy =       0.0000000000000000
    Empirical Dispersion Energy =           0.0000000000000000
    PCM Polarization Energy =               0.0000000000000000
    EFP Energy =                            0.0000000000000000
    Total Energy =                       -248.1216382234802040
    Molecular point group: c1
  Basis Set: 6-31G*
  Basis Set:

  -Total Gradient:
     Atom            X                  Y                   Z
    ------   -----------------  -----------------  -----------------
       1        0.000009679906     0.000011698871    -0.000018678752
       2        0.000024672981     0.000003386964    -0.000015699226
       3       -0.000044507454     0.000024203606    -0.000020384429
       4        0.000010262857     0.000012776209    -0.000006527820
       5        0.000269084479    -0.000223437907    -0.001051639841
       6       -0.000002522996     0.000004109337     0.000016248151
       7       -0.000047164947     0.000012071506    -0.000013404825
       8       -0.000420993905     0.000506301594     0.001994713951
       9       -0.000002084688    -0.000030047412     0.000022892294
      10        0.000011382977     0.000000226219    -0.000012611856
      11        0.000624783407    -0.000882938462    -0.002200381996
      12        0.000026292885    -0.000008197212     0.000000050231
      13       -0.000442797106     0.000557944056     0.001297983654
      14       -0.000016088399     0.000011902634     0.000007440465

  **** Optimization is complete! (in 4 steps) ****
    Final optimized geometry and variables:
    Molecular point group: c1

    Geometry (in Angstrom), charge = 0, multiplicity = 1:

    H           -2.912448571832     0.029328559750     0.301792367226
    N           -1.940771934397     0.157814582396     0.507314594072
    C           -1.200929255052     0.498165938399    -0.695109848881
    H           -1.596768688670    -0.707129668357     0.876893557102
    C            0.270348011946     0.651901184208    -0.371728431533
    H           -1.301816498732    -0.236571001503    -1.495053485359
    H           -1.571760461539     1.445633116431    -1.074274684487
    O            0.756174411135    -0.594475092023     0.041793391651
    H            0.813627295680     0.993719347700    -1.251599858704
    H            0.393423156117     1.390311247372     0.416696960036
    C            2.089143482032    -0.625274949944     0.460753837843
    H            2.601471773537    -1.438274885435    -0.040149141241
    H            2.604199742329     0.303910021659     0.237024341860
    H            2.139998555325    -0.787517206970     1.533115448612

  Mulliken Charges: (a.u.)
   Center  Symbol    Alpha    Beta     Spin     Total
       1     H     0.33295  0.33295  0.00000  0.33410
       2     N     3.92528  3.92528  0.00000 -0.85057
       3     C     3.06896  3.06896  0.00000 -0.13791
       4     H     0.32361  0.32361  0.00000  0.35277
       5     C     2.98986  2.98986  0.00000  0.02028
       6     H     0.42671  0.42671  0.00000  0.14658
       7     H     0.42070  0.42070  0.00000  0.15860
       8     O     4.31444  4.31444  0.00000 -0.62888
       9     H     0.43077  0.43077  0.00000  0.13845
      10     H     0.42241  0.42241  0.00000  0.15518
      11     C     3.07562  3.07562  0.00000 -0.15125
      12     H     0.41853  0.41853  0.00000  0.16294
      13     H     0.42859  0.42859  0.00000  0.14281
      14     H     0.42156  0.42156  0.00000  0.15688

   Total alpha = 21.00000, Total beta = 21.00000, Total charge = -0.00000
