                              Psi4 1.0.54 Driver

  ==> Input File <==

--------------------------------------------------------------------------
set {
	reference rhf
	basis cc-pvtz
}

set_num_threads( 4 )
memory 2 gb

molecule MOL {
0 1

H	 1.546547	 -1.881617	 2.202577
O	 1.231043	 -1.739955	 1.322733
C	 0.241643	 -0.852455	 1.368030
C	 -0.318151	 -0.570512	 0.000144
O	 -0.122906	 -0.367585	 2.382906
C	 -1.454884	 0.441630	 -0.000560
H	 0.506994	 -0.236716	 -0.620828
H	 -0.636167	 -1.520425	 -0.417506
C	 -2.822577	 -0.232186	 0.000063
H	 -1.359760	 1.084704	 -0.867077
H	 -1.359641	 1.085996	 0.864983
H	 -2.954352	 -0.858985	 -0.875745
H	 -3.615886	 0.505352	 0.000019
H	 -2.953878	 -0.858359	 0.876394

	symmetry c1
}
set optking {
	frozen_dihedral = ("
		7 4 6 10
	")
}

ee,wfn = optimize('scf', return_wfn=True)
oeprop( wfn, 'DIPOLE', 'QUADRUPOLE', 'MULLIKEN_CHARGES')
f=open( 'psi4out.xyz', 'w' )
f.write( "14  " )
f.write( str(ee) + "\n" )
f.write( MOL.save_string_xyz() )
f.close()
--------------------------------------------------------------------------

    Molecular point group: c1
  Charge       = 0
  Multiplicity = 1
  Basis Set: CC-PVTZ
  Basis Set:
  @DF-RHF Final Energy:  -305.99784532918306
    Total Energy =                       -305.9978453291831784
    Molecular point group: c1
  Basis Set: CC-PVTZ
  Basis Set:
  Basis Set: CC-PVTZ
  Basis Set:
  @DF-RHF Final Energy:  -305.99813845654046
    Total Energy =                       -305.9981384565406302
  Basis Set: CC-PVTZ
  Basis Set:
  Basis Set: CC-PVTZ
  Basis Set:
  @DF-RHF Final Energy:  -305.99816064629863
    Total Energy =                       -305.9981606462985155
  Basis Set: CC-PVTZ
  Basis Set:
  Basis Set: CC-PVTZ
  Basis Set:
  @DF-RHF Final Energy:  -305.99819298393578
    Total Energy =                       -305.9981929839358372
  Basis Set: CC-PVTZ
  Basis Set:
  Basis Set: CC-PVTZ
  Basis Set:
  @DF-RHF Final Energy:  -305.99819781005874
    Total Energy =                       -305.9981978100586844
  Basis Set: CC-PVTZ
  Basis Set:
  Basis Set: CC-PVTZ
  Basis Set:
  @DF-RHF Final Energy:  -305.99819943598311
    Total Energy =                       -305.9981994359830537
  Basis Set: CC-PVTZ
  Basis Set:
  Charge       = 0
  Multiplicity = 1
  Basis Set: CC-PVTZ
  Basis Set:

    Orbital Energies (a.u.)
    -----------------------

    Doubly Occupied:

       1A    -20.605057     2A    -20.541891     3A    -11.375051
       4A    -11.239621     5A    -11.222895     6A    -11.211671
       7A     -1.478883     8A     -1.370319     9A     -1.081767
      10A     -0.979016    11A     -0.861558    12A     -0.791038
      13A     -0.706195    14A     -0.697032    15A     -0.660371
      16A     -0.612909    17A     -0.599653    18A     -0.567090
      19A     -0.559743    20A     -0.493967    21A     -0.492046
      22A     -0.487062    23A     -0.479569    24A     -0.449261

  @DF-RHF Final Energy:  -305.99820028665317

   => Energetics <=

    Nuclear Repulsion Energy =            243.1097960664061475
    One-Electron Energy =                -899.0886567813734018
    Two-Electron Energy =                 349.9806604283141382
    DFT Exchange-Correlation Energy =       0.0000000000000000
    Empirical Dispersion Energy =           0.0000000000000000
    PCM Polarization Energy =               0.0000000000000000
    EFP Energy =                            0.0000000000000000
    Total Energy =                       -305.9982002866531161
    Molecular point group: c1
  Basis Set: CC-PVTZ
  Basis Set:

  -Total Gradient:
     Atom            X                  Y                   Z
    ------   -----------------  -----------------  -----------------
       1       -0.000008130029     0.000006126315     0.000016645044
       2        0.000031476784    -0.000043870426    -0.000040938519
       3        0.000023266947    -0.000015024163    -0.000043397249
       4        0.002242650010     0.002724210931     0.004143649209
       5       -0.000037489509     0.000042244928     0.000095473920
       6       -0.002794024916    -0.003407995234    -0.003151414014
       7       -0.001393541561    -0.001767652794    -0.002946371386
       8        0.000034541891     0.000046110474     0.000007861210
       9       -0.000011878283     0.000044570202     0.000001446676
      10        0.001955636411     0.002382277813     0.001922097456
      11       -0.000003104280     0.000003876593    -0.000019248012
      12        0.000004338160     0.000004078327    -0.000008348147
      13       -0.000040311455    -0.000007883845     0.000007266223
      14       -0.000003430176    -0.000011069116     0.000015277585

  **** Optimization is complete! (in 7 steps) ****
    Final optimized geometry and variables:
    Molecular point group: c1

    Geometry (in Angstrom), charge = 0, multiplicity = 1:

    H            2.071610681153    -1.289350301843     1.336846110884
    O            1.777275167029    -1.125265908417     0.453560272032
    C            0.755836114361    -0.275380919878     0.501833283523
    C            0.223617942147     0.028681745727    -0.872906710760
    O            0.346065193498     0.157145717052     1.523295787547
    C           -0.942554829141     1.019075758511    -0.900864943622
    H            1.052998473436     0.362255990368    -1.485343376887
    H           -0.064953139423    -0.925124442578    -1.304519986434
    C           -2.310967242128     0.348776452460    -0.870516115008
    H           -0.846270048884     1.648810470480    -1.777801935824
    H           -0.852679297966     1.682142157923    -0.050342761983
    H           -2.455546755507    -0.290961436637    -1.735027519404
    H           -3.103938092176     1.087077126443    -0.867987588200
    H           -2.423235945510    -0.259456717304     0.019875349069

  Mulliken Charges: (a.u.)
   Center  Symbol    Alpha    Beta     Spin     Total
       1     H     0.38238  0.38238  0.00000  0.23524
       2     O     4.15965  4.15965  0.00000 -0.31930
       3     C     2.80216  2.80216  0.00000  0.39569
       4     C     3.11385  3.11385  0.00000 -0.22770
       5     O     4.19217  4.19217  0.00000 -0.38434
       6     C     3.08723  3.08723  0.00000 -0.17447
       7     H     0.42999  0.42999  0.00000  0.14002
       8     H     0.43968  0.43968  0.00000  0.12063
       9     C     3.14817  3.14817  0.00000 -0.29634
      10     H     0.44771  0.44771  0.00000  0.10458
      11     H     0.44256  0.44256  0.00000  0.11489
      12     H     0.45738  0.45738  0.00000  0.08525
      13     H     0.44795  0.44795  0.00000  0.10409
      14     H     0.44913  0.44913  0.00000  0.10174

   Total alpha = 24.00000, Total beta = 24.00000, Total charge = -0.00000

*** Psi4 exiting successfully. Buy a developer a beer!
