  ==> Input File <==

--------------------------------------------------------------------------
set {
	reference rhf
	basis 6-31G*
}

set_num_threads( 4 )
memory 2 gb

molecule MOL {
0 1

H	 -2.672831	 0.730263	 0.055977
O	 -2.315789	 -0.143634	 -0.024262
C	 -0.945151	 -0.064130	 -0.333158
H	 -0.813375	 -0.223047	 -1.403232
C	 -0.232801	 -1.184051	 0.407206
C	 -0.355424	 1.302939	 0.054523
H	 -0.318824	 -0.992899	 1.473524
H	 -0.742411	 -2.122033	 0.217954
C	 1.248522	 -1.270719	 -0.013048
H	 -0.546144	 2.018388	 -0.742941
H	 -0.890929	 1.656788	 0.930149
C	 1.156425	 1.235120	 0.355905
H	 1.825384	 -1.683246	 0.809111
H	 1.357782	 -1.965923	 -0.840362
C	 1.828244	 0.099899	 -0.419275
H	 1.626109	 2.185622	 0.123525
H	 1.309438	 1.071213	 1.419539
H	 2.901447	 0.112642	 -0.255830
H	 1.681817	 0.263413	 -1.484607

	symmetry c1
}
set optking {
	frozen_dihedral = ("
		1 2 3 4
	")
}

ee = optimize('scf')
oeprop('DIPOLE', 'QUADRUPOLE', 'MULLIKEN_CHARGES')
f=open( 'psi4out.xyz', 'w' )
f.write( "19  " )
f.write( str(ee) + "\n" )
f.write( MOL.save_string_xyz() )
f.close()
--------------------------------------------------------------------------

    Molecular point group: c1
  Charge       = 0
  Multiplicity = 1
  Basis Set: 6-31G*
  Basis Set:
  @DF-RHF Final Energy:  -309.04678050658129
    Total Energy =                       -309.0467805065815128
    Molecular point group: c1
  Basis Set: 6-31G*
  Basis Set:
  Basis Set: 6-31G*
  Basis Set:
  @DF-RHF Final Energy:  -309.04690572815980
    Total Energy =                       -309.0469057281597998
  Basis Set: 6-31G*
  Basis Set:
  Basis Set: 6-31G*
  Basis Set:
  @DF-RHF Final Energy:  -309.04694676917728
    Total Energy =                       -309.0469467691771683
  Basis Set: 6-31G*
  Basis Set:
  Charge       = 0
  Multiplicity = 1
  Basis Set: 6-31G*
  Basis Set:

    Orbital Energies (a.u.)
    -----------------------

    Doubly Occupied:

       1A    -20.548161     2A    -11.268561     3A    -11.221086
       4A    -11.220508     5A    -11.217337     6A    -11.215456
       7A    -11.207522     8A     -1.357434     9A     -1.110280
      10A     -1.004481    11A     -0.988978    12A     -0.846614
      13A     -0.838621    14A     -0.740723    15A     -0.680643
      16A     -0.668028    17A     -0.624682    18A     -0.598313
      19A     -0.581610    20A     -0.548648    21A     -0.528008
      22A     -0.521036    23A     -0.501805    24A     -0.484761
      25A     -0.467390    26A     -0.449704    27A     -0.426584
      28A     -0.412554

  @DF-RHF Final Energy:  -309.04694762890358

   => Energetics <=

    Nuclear Repulsion Energy =            331.4484606726368838
    One-Electron Energy =               -1076.4317525236763231
    Two-Electron Energy =                 435.9363442221356308
    DFT Exchange-Correlation Energy =       0.0000000000000000
    Empirical Dispersion Energy =           0.0000000000000000
    PCM Polarization Energy =               0.0000000000000000
    EFP Energy =                            0.0000000000000000
    Total Energy =                       -309.0469476289038084
    Molecular point group: c1
  Basis Set: 6-31G*
  Basis Set:

  -Total Gradient:
     Atom            X                  Y                   Z
    ------   -----------------  -----------------  -----------------
       1        0.000409533670    -0.000023933280     0.002000927628
       2       -0.000515584334    -0.000419090510    -0.002396463219
       3       -0.000129887051     0.002118879692     0.000165623844
       4        0.000184395063    -0.001722437300     0.000328822201
       5       -0.000001143994    -0.000031248597    -0.000069833642
       6        0.000050548383     0.000005543997    -0.000037044252
       7       -0.000006344287     0.000012852446    -0.000027321042
       8       -0.000018408490    -0.000015428043     0.000014031096
       9       -0.000008232770     0.000008179166     0.000014835134
      10        0.000020043820     0.000004786904     0.000007009579
      11        0.000005800058     0.000011291760     0.000001357841
      12       -0.000012928058     0.000033194081    -0.000011903888
      13        0.000009249884    -0.000006140768     0.000003493441
      14       -0.000003521140     0.000002773311     0.000010613964
      15        0.000014352739    -0.000008787480    -0.000005104941
      16        0.000003452390     0.000017678423     0.000019176928
      17       -0.000002795402    -0.000002037103    -0.000006238206
      18       -0.000004587870     0.000001429479    -0.000007619871
      19        0.000006057393     0.000012493821    -0.000004362594

  **** Optimization is complete! (in 4 steps) ****
    Final optimized geometry and variables:
    Molecular point group: c1

    Geometry (in Angstrom), charge = 0, multiplicity = 1:

    H           -2.695115397185     0.722133594099     0.012070524517
    O           -2.323899248815    -0.145190589382    -0.058276554286
    C           -0.943871417275    -0.063192360987    -0.329891199391
    H           -0.799811958959    -0.226025004552    -1.396447366656
    C           -0.231297975199    -1.184024391665     0.412342367987
    C           -0.355794639129     1.300717739502     0.063375165695
    H           -0.312851480636    -0.992152186222     1.479180151309
    H           -0.744229673484    -2.121193117442     0.226821121233
    C            1.247636466607    -1.274327600605    -0.015339956124
    H           -0.559026438995     2.022040348174    -0.724691983029
    H           -0.874469524780     1.649995046901     0.953366910126
    C            1.159137862781     1.232690781046     0.350760080300
    H            1.829507411046    -1.686083613542     0.803738231998
    H            1.351958379611    -1.969866839914    -0.842842069908
    C            1.825625278251     0.095868972740    -0.426868376551
    H            1.625517726381     2.183146297482     0.112183810738
    H            1.321002779869     1.071106675951     1.413225932582
    H            2.899393807203     0.110025597560    -0.267762132966
    H            1.674561256866     0.258393175320    -1.491422428694

  Mulliken Charges: (a.u.)
   Center  Symbol    Alpha    Beta     Spin     Total
       1     H     0.28049  0.28049  0.00000  0.43902
       2     O     4.38484  4.38484  0.00000 -0.76967
       3     C     2.89400  2.89400  0.00000  0.21200
       4     H     0.42714  0.42714  0.00000  0.14572
       5     C     3.16770  3.16770  0.00000 -0.33541
       6     C     3.18603  3.18603  0.00000 -0.37207
       7     H     0.41966  0.41966  0.00000  0.16067
       8     H     0.40868  0.40868  0.00000  0.18264
       9     C     3.16148  3.16148  0.00000 -0.32295
      10     H     0.41794  0.41794  0.00000  0.16413
      11     H     0.41880  0.41880  0.00000  0.16239
      12     C     3.16222  3.16222  0.00000 -0.32445
      13     H     0.41796  0.41796  0.00000  0.16408
      14     H     0.41780  0.41780  0.00000  0.16439
      15     C     3.16447  3.16447  0.00000 -0.32893
      16     H     0.41594  0.41594  0.00000  0.16812
      17     H     0.41807  0.41807  0.00000  0.16387
      18     H     0.41614  0.41614  0.00000  0.16772
      19     H     0.42064  0.42064  0.00000  0.15873

   Total alpha = 28.00000, Total beta = 28.00000, Total charge =  0.00000
