  ==> Input File <==

--------------------------------------------------------------------------
set {
	reference rhf
	basis 6-31G*
}

set_num_threads( 4 )
memory 2 gb

molecule MOL {
0 1

H	 4.382471	 -0.610569	 3.592402
C	 3.921769	 -1.234948	 2.833174
C	 2.479908	 -0.805547	 2.565165
H	 4.524169	 -1.159584	 1.932743
H	 3.968751	 -2.264317	 3.178126
C	 1.797736	 -1.670776	 1.503169
H	 2.468110	 0.232313	 2.248451
H	 1.910888	 -0.858411	 3.492049
C	 0.346925	 -1.276036	 1.226415
H	 2.359364	 -1.620128	 0.577074
H	 1.813612	 -2.709024	 1.826942
C	 0.186799	 0.042463	 0.484012
H	 -0.130221	 -2.037713	 0.611638
H	 -0.228696	 -1.239791	 2.148653
C	 -1.181045	 0.701995	 0.511084
O	 1.093643	 0.537160	 -0.115417
C	 -2.285934	 -0.139295	 -0.145128
H	 -1.083781	 1.654014	 0.003232
H	 -1.448089	 0.902151	 1.547091
C	 -3.651768	 0.085446	 0.506485
H	 -2.346596	 0.110469	 -1.202272
H	 -2.034737	 -1.195320	 -0.088721
C	 -4.759797	 -0.746382	 -0.137905
H	 -3.908762	 1.140117	 0.445781
H	 -3.588286	 -0.154158	 1.565709
H	 -4.868882	 -0.505166	 -1.191300
H	 -4.548009	 -1.809175	 -0.062213
H	 -5.715422	 -0.564821	 0.343442

	symmetry c1
}
set optking {
	frozen_dihedral = ("
		12 15 17 21
	")
}

ee = optimize('scf')
oeprop('DIPOLE', 'QUADRUPOLE', 'MULLIKEN_CHARGES')
f=open( 'psi4out.xyz', 'w' )
f.write( "28  " )
f.write( str(ee) + "\n" )
f.write( MOL.save_string_xyz() )
f.close()
--------------------------------------------------------------------------

    Molecular point group: c1
  Charge       = 0
  Multiplicity = 1
  Basis Set: 6-31G*
  Basis Set:
  @DF-RHF Final Energy:  -426.16538640373722
    Total Energy =                       -426.1653864037375570
    Molecular point group: c1
  Basis Set: 6-31G*
  Basis Set:
  Basis Set: 6-31G*
  Basis Set:
  @DF-RHF Final Energy:  -426.16402563312636
    Total Energy =                       -426.1640256331262435
  Basis Set: 6-31G*
  Basis Set:
  Basis Set: 6-31G*
  Basis Set:
  @DF-RHF Final Energy:  -426.16458623541803
    Total Energy =                       -426.1645862354178007
  Basis Set: 6-31G*
  Basis Set:
  Basis Set: 6-31G*
  Basis Set:
  @DF-RHF Final Energy:  -426.16582588058304
    Total Energy =                       -426.1658258805822470
  Basis Set: 6-31G*
  Basis Set:
  @DF-RHF Final Energy:  -426.16582209882586
    Total Energy =                       -426.1658220988256289
  @DF-RHF Final Energy:  -426.16588600479156
    Total Energy =                       -426.1658860047914459
  @DF-RHF Final Energy:  -426.16589866145853
    Total Energy =                       -426.1658986614588684
  @DF-RHF Final Energy:  -426.16591651141482
    Total Energy =                       -426.1659165114143661
  Basis Set: 6-31G*
  Basis Set:
  @DF-RHF Final Energy:  -426.16592891136600
    Total Energy =                       -426.1659289113658815
  Basis Set: 6-31G*
  Basis Set:
  Basis Set: 6-31G*
  Basis Set:
  @DF-RHF Final Energy:  -426.16593046314040
    Total Energy =                       -426.1659304631408531
  Basis Set: 6-31G*
  Basis Set:
  Basis Set: 6-31G*
  Basis Set:
  @DF-RHF Final Energy:  -426.16593211496729
    Total Energy =                       -426.1659321149678590
  Basis Set: 6-31G*
  Basis Set:
  Charge       = 0
  Multiplicity = 1
  Basis Set: 6-31G*
  Basis Set:

    Orbital Energies (a.u.)
    -----------------------

    Doubly Occupied:

       1A    -20.547260     2A    -11.322233     3A    -11.232104
       4A    -11.229972     5A    -11.229150     6A    -11.226681
       7A    -11.217302     8A    -11.216695     9A    -11.214016
      10A    -11.206777    11A     -1.392594    12A     -1.094775
      13A     -1.077844    14A     -1.022281    15A     -0.990992
      16A     -0.907598    17A     -0.874807    18A     -0.810463
      19A     -0.800398    20A     -0.722362    21A     -0.664144
      22A     -0.658532    23A     -0.624512    24A     -0.619042
      25A     -0.611249    26A     -0.589253    27A     -0.577237
      28A     -0.575484    29A     -0.543607    30A     -0.534869
      31A     -0.521299    32A     -0.509984    33A     -0.497008
      34A     -0.484603    35A     -0.478286    36A     -0.475034
      37A     -0.471720    38A     -0.466434    39A     -0.455306
      40A     -0.391932

  @DF-RHF Final Energy:  -426.16593215642774

   => Energetics <=

    Nuclear Repulsion Energy =            532.9172103957631634
    One-Electron Energy =               -1633.9946029921327408
    Two-Electron Energy =                 674.9114604399418340
    DFT Exchange-Correlation Energy =       0.0000000000000000
    Empirical Dispersion Energy =           0.0000000000000000
    PCM Polarization Energy =               0.0000000000000000
    EFP Energy =                            0.0000000000000000
    Total Energy =                       -426.1659321564276297
    Molecular point group: c1
  Basis Set: 6-31G*
  Basis Set:

  -Total Gradient:
     Atom            X                  Y                   Z
    ------   -----------------  -----------------  -----------------
       1       -0.000001572198    -0.000002652309     0.000002457469
       2       -0.000004302841    -0.000009312780     0.000009542322
       3        0.000008227179     0.000010187253    -0.000004879441
       4       -0.000002882948     0.000005397680     0.000000893050
       5        0.000002514602    -0.000001716431    -0.000004110847
       6        0.000007825572    -0.000007362309     0.000006071655
       7        0.000003039575     0.000003553407     0.000000581370
       8        0.000004421987     0.000001406301    -0.000002091627
       9       -0.000032184306     0.000012275711     0.000030637205
      10        0.000000941297     0.000006192772     0.000002033385
      11       -0.000001666394    -0.000004588032    -0.000006155870
      12       -0.000462415541    -0.001281734678     0.002770255266
      13       -0.000002721535     0.000000161185    -0.000014194817
      14        0.000017443142    -0.000005130416     0.000001861460
      15        0.000027502427     0.002482302836    -0.003711260026
      16        0.000013209290     0.000004165522    -0.000017292256
      17        0.003037682122    -0.004230446790    -0.000058095803
      18        0.000001999280     0.000004321428     0.000005318087
      19        0.000004012087     0.000003214826     0.000006350138
      20       -0.000001162863    -0.000011887543    -0.000002030556
      21       -0.002610236053     0.003027025956     0.000983882432
      22        0.000003059874    -0.000007612173    -0.000003476551
      23       -0.000009245403     0.000002795028     0.000003611440
      24        0.000000569977    -0.000002981832    -0.000002297318
      25       -0.000002926419     0.000001877221     0.000002126644
      26        0.000000631925    -0.000000092795     0.000000637413
      27        0.000001559120     0.000002333835     0.000000252562
      28       -0.000003322956    -0.000001692876    -0.000000626785

  **** Optimization is complete! (in 12 steps) ****
    Final optimized geometry and variables:
    Molecular point group: c1

    Geometry (in Angstrom), charge = 0, multiplicity = 1:

    H            4.363199201095    -0.031240902905     2.878266015753
    C            4.019266424425    -0.665386526224     2.067078327132
    C            2.580999402680    -0.329567425387     1.674965060224
    H            4.694336452813    -0.524935370665     1.228138509350
    H            4.107260707197    -1.697874378082     2.394061962054
    C            2.061978828551    -1.210198636696     0.536153300520
    H            2.525428421110     0.713929787726     1.380186323052
    H            1.934858135654    -0.445441127049     2.543668345494
    C            0.615600842369    -0.911589524473     0.137639625992
    H            2.697083024075    -1.091721669187    -0.334291942683
    H            2.125304327833    -2.253724842935     0.835906158371
    C            0.433844943582     0.429583368196    -0.561969515082
    H            0.267266096050    -1.674522278152    -0.556096159652
    H           -0.043941029264    -0.968119136874     0.999994712698
    C           -0.926462334567     1.097849641194    -0.467063965468
    O            1.332334224412     0.940644529122    -1.160297636878
    C           -2.100943098510     0.270918738515    -1.028782497542
    H           -0.858965147450     2.057230611154    -0.963409828268
    H           -1.101321225817     1.289360472886     0.590923949553
    C           -3.422588604556     0.575165841686    -0.316632402221
    H           -2.223000778560     0.508123398612    -2.081865505573
    H           -1.901239182726    -0.793702911085    -0.960668777546
    C           -4.609460249900    -0.171274862192    -0.923196991162
    H           -3.610863970378     1.645914412025    -0.352868044235
    H           -3.330851353491     0.316396948765     0.736039957192
    H           -4.751099080878     0.097942478305    -1.965874492042
    H           -4.462102438391    -1.246681779052    -0.877012048580
    H           -5.528869931883     0.059142513508    -0.394441617178

  Mulliken Charges: (a.u.)
   Center  Symbol    Alpha    Beta     Spin     Total
       1     H     0.41920  0.41920  0.00000  0.16160
       2     C     3.24003  3.24003  0.00000 -0.48007
       3     C     3.15670  3.15670  0.00000 -0.31340
       4     H     0.41805  0.41805  0.00000  0.16390
       5     H     0.42323  0.42323  0.00000  0.15354
       6     C     3.14972  3.14972  0.00000 -0.29945
       7     H     0.41244  0.41244  0.00000  0.17512
       8     H     0.42728  0.42728  0.00000  0.14544
       9     C     3.21099  3.21099  0.00000 -0.42199
      10     H     0.40518  0.40518  0.00000  0.18963
      11     H     0.42165  0.42165  0.00000  0.15670
      12     C     2.73142  2.73142  0.00000  0.53716
      13     H     0.40283  0.40283  0.00000  0.19434
      14     H     0.41440  0.41440  0.00000  0.17120
      15     C     3.20441  3.20441  0.00000 -0.40882
      16     O     4.26712  4.26712  0.00000 -0.53424
      17     C     3.16303  3.16303  0.00000 -0.32605
      18     H     0.39807  0.39807  0.00000  0.20385
      19     H     0.41223  0.41223  0.00000  0.17553
      20     C     3.15368  3.15368  0.00000 -0.30735
      21     H     0.41197  0.41197  0.00000  0.17607
      22     H     0.41652  0.41652  0.00000  0.16695
      23     C     3.24065  3.24065  0.00000 -0.48129
      24     H     0.41930  0.41930  0.00000  0.16140
      25     H     0.42220  0.42220  0.00000  0.15559
      26     H     0.41965  0.41965  0.00000  0.16070
      27     H     0.42107  0.42107  0.00000  0.15787
      28     H     0.41696  0.41696  0.00000  0.16608

   Total alpha = 40.00000, Total beta = 40.00000, Total charge = -0.00000
