  ==> Input File <==

--------------------------------------------------------------------------
set {
	reference rhf
	basis cc-pvtz
}

set_num_threads( 4 )
memory 2 gb

molecule MOL {
0 1

H	 -3.941973	 0.934228	 -0.390224
C	 -3.240162	 0.342701	 0.161016
C	 -2.105997	 -0.000418	 -0.398703
H	 -3.485368	 0.047206	 1.162193
O	 -1.189946	 -0.765863	 0.237511
H	 -1.846458	 0.297311	 -1.398265
C	 0.026572	 -0.995256	 -0.379403
C	 1.057223	 0.049888	 -0.004615
H	 -0.054361	 -1.010670	 -1.459674
H	 0.397526	 -1.952058	 -0.044198
F	 0.575931	 1.250803	 -0.256093
F	 1.362643	 0.001809	 1.274414
F	 2.169338	 -0.088492	 -0.684696

	symmetry c1
}
set optking {
	frozen_dihedral = ("
		11 8 7 9
	")
}

ee = optimize('scf')
oeprop('DIPOLE', 'QUADRUPOLE', 'MULLIKEN_CHARGES')
f=open( 'psi4out.xyz', 'w' )
f.write( "13  " )
f.write( str(ee) + "\n" )
f.write( MOL.save_string_xyz() )
f.close()
--------------------------------------------------------------------------

    Molecular point group: c1
  Charge       = 0
  Multiplicity = 1
  Basis Set: CC-PVTZ
  Basis Set:
  @DF-RHF Final Energy:  -527.74126441680664
    Total Energy =                       -527.7412644168064162
    Molecular point group: c1
  Basis Set: CC-PVTZ
  Basis Set:
  Basis Set: CC-PVTZ
  Basis Set:
  @DF-RHF Final Energy:  -527.74168281089862
    Total Energy =                       -527.7416828108985101
  Basis Set: CC-PVTZ
  Basis Set:
  Basis Set: CC-PVTZ
  Basis Set:
  @DF-RHF Final Energy:  -527.74178783919183
    Total Energy =                       -527.7417878391918293
  Basis Set: CC-PVTZ
  Basis Set:
  Basis Set: CC-PVTZ
  Basis Set:
  @DF-RHF Final Energy:  -527.74180614102693
    Total Energy =                       -527.7418061410269274
  Basis Set: CC-PVTZ
  Basis Set:
  Basis Set: CC-PVTZ
  Basis Set:
  @DF-RHF Final Energy:  -527.74180989041474
    Total Energy =                       -527.7418098904149701
  Basis Set: CC-PVTZ
  Basis Set:
  Basis Set: CC-PVTZ
  Basis Set:
  @DF-RHF Final Energy:  -527.74181236541222
    Total Energy =                       -527.7418123654119881
  Basis Set: CC-PVTZ
  Basis Set:
  Charge       = 0
  Multiplicity = 1
  Basis Set: CC-PVTZ
  Basis Set:

    Orbital Energies (a.u.)
    -----------------------

    Doubly Occupied:

       1A    -26.342480     2A    -26.340688     3A    -26.337314
       4A    -20.604369     5A    -11.497942     6A    -11.320057
       7A    -11.298756     8A    -11.213816     9A     -1.750513
      10A     -1.647754    11A     -1.644618    12A     -1.444996
      13A     -1.088213    14A     -1.020611    15A     -0.932336
      16A     -0.843975    17A     -0.839822    18A     -0.827246
      19A     -0.797760    20A     -0.729967    21A     -0.719358
      22A     -0.704277    23A     -0.681394    24A     -0.668622
      25A     -0.661277    26A     -0.650873    27A     -0.640040
      28A     -0.587879    29A     -0.566161    30A     -0.529386
      31A     -0.518376    32A     -0.356669

  @DF-RHF Final Energy:  -527.74181297777147

   => Energetics <=

    Nuclear Repulsion Energy =            413.4175450282492648
    One-Electron Energy =               -1550.7036319647595519
    Two-Electron Energy =                 609.5442739587388132
    DFT Exchange-Correlation Energy =       0.0000000000000000
    Empirical Dispersion Energy =           0.0000000000000000
    PCM Polarization Energy =               0.0000000000000000
    EFP Energy =                            0.0000000000000000
    Total Energy =                       -527.7418129777715876
    Molecular point group: c1
  Basis Set: CC-PVTZ
  Basis Set:

  -Total Gradient:
     Atom            X                  Y                   Z
    ------   -----------------  -----------------  -----------------
       1       -0.000001536632     0.000002704607     0.000001325841
       2        0.000024099687     0.000010865200     0.000003898296
       3       -0.000088757677     0.000010321810     0.000007649572
       4        0.000003016737     0.000004082010    -0.000000818330
       5        0.000027706913    -0.000009276705    -0.000022621487
       6        0.000016614084    -0.000010093257    -0.000004318690
       7       -0.001934377413     0.001650334050     0.000604133333
       8        0.001062772862    -0.000284963593    -0.002037894550
       9        0.001423245612    -0.001342605049    -0.000057545912
      10        0.000012824674     0.000000792256    -0.000007468557
      11       -0.000649261892     0.000031011483     0.001555609146
      12       -0.000006310319    -0.000006008743     0.000010811644
      13        0.000109963374    -0.000057164068    -0.000052760301

  **** Optimization is complete! (in 7 steps) ****
    Final optimized geometry and variables:
    Molecular point group: c1

    Geometry (in Angstrom), charge = 0, multiplicity = 1:

    H           -3.955943754990     0.910767056243    -0.396588542621
    C           -3.252672909469     0.321339992329     0.155048904218
    C           -2.109064361058    -0.001978589725    -0.397124849583
    H           -3.503763525026     0.012592566213     1.150761138375
    O           -1.188882677120    -0.760955698363     0.240970686790
    H           -1.843613848518     0.309171536501    -1.390984854097
    C            0.025320159633    -0.990579365879    -0.377896469607
    C            1.060315949802     0.053058817694    -0.007325639673
    H           -0.050109058100    -1.020349602761    -1.458294878355
    H            0.398585361215    -1.945483951482    -0.038687202845
    F            0.640108914737     1.273813610536    -0.255716578517
    F            1.376058281377    -0.002995667838     1.265608477836
    F            2.160721076234    -0.147765838681    -0.703352324665

  Mulliken Charges: (a.u.)
   Center  Symbol    Alpha    Beta     Spin     Total
       1     H     0.42517  0.42517  0.00000  0.14965
       2     C     3.19746  3.19746  0.00000 -0.39493
       3     C     2.95776  2.95776  0.00000  0.08448
       4     H     0.42484  0.42484  0.00000  0.15032
       5     O     4.14432  4.14432  0.00000 -0.28864
       6     H     0.43460  0.43460  0.00000  0.13080
       7     C     3.02074  3.02074  0.00000 -0.04147
       8     C     2.67458  2.67458  0.00000  0.65085
       9     H     0.45536  0.45536  0.00000  0.08928
      10     H     0.43573  0.43573  0.00000  0.12854
      11     F     4.60921  4.60921  0.00000 -0.21841
      12     F     4.60793  4.60793  0.00000 -0.21586
      13     F     4.61231  4.61231  0.00000 -0.22462

   Total alpha = 32.00000, Total beta = 32.00000, Total charge = -0.00000
