                              Psi4 1.0.54 Driver

  ==> Input File <==

--------------------------------------------------------------------------
set {
	reference rhf
	basis cc-pvtz
}

set_num_threads( 4 )
memory 2 gb

molecule MOL {
0 1

H	 0.911117	 -2.696219	 0.198463
C	 0.617637	 -2.244118	 1.155087
C	 -0.641974	 -1.424075	 1.113773
O	 1.280553	 -2.416536	 2.118647
C	 -0.554654	 -0.292621	 0.086567
H	 -0.834343	 -1.040646	 2.107157
H	 -1.457138	 -2.092959	 0.845482
C	 -1.846385	 0.513195	 -0.016346
H	 0.263641	 0.369818	 0.353973
H	 -0.310596	 -0.705596	 -0.888912
C	 -3.089953	 -0.365049	 -0.098564
H	 -1.798267	 1.154820	 -0.891143
H	 -1.925398	 1.173265	 0.842889
H	 -3.055079	 -1.012299	 -0.968245
H	 -3.988403	 0.236438	 -0.170014
H	 -3.183055	 -0.995885	 0.779079

	symmetry c1
}
set optking {
	frozen_dihedral = ("
		9 5 8 12
	")
}

ee,wfn = optimize('scf', return_wfn=True)
oeprop( wfn, 'DIPOLE', 'QUADRUPOLE', 'MULLIKEN_CHARGES')
f=open( 'psi4out.xyz', 'w' )
f.write( "16  " )
f.write( str(ee) + "\n" )
f.write( MOL.save_string_xyz() )
f.close()
--------------------------------------------------------------------------

    Molecular point group: c1
  Charge       = 0
  Multiplicity = 1
  Basis Set: CC-PVTZ
  Basis Set:
  @DF-RHF Final Energy:  -270.11459756060310
    Total Energy =                       -270.1145975606029879
    Molecular point group: c1
  Basis Set: CC-PVTZ
  Basis Set:
  Basis Set: CC-PVTZ
  Basis Set:
  @DF-RHF Final Energy:  -270.11393250578976
    Total Energy =                       -270.1139325057898759
  Basis Set: CC-PVTZ
  Basis Set:
  Basis Set: CC-PVTZ
  Basis Set:
  @DF-RHF Final Energy:  -270.11620566609207
    Total Energy =                       -270.1162056660921280
  Basis Set: CC-PVTZ
  Basis Set:
  Basis Set: CC-PVTZ
  Basis Set:
  @DF-RHF Final Energy:  -270.11526207502772
    Total Energy =                       -270.1152620750278288
  Basis Set: CC-PVTZ
  Basis Set:
  @DF-RHF Final Energy:  -270.11634869167392
    Total Energy =                       -270.1163486916741476
  Basis Set: CC-PVTZ
  Basis Set:
  @DF-RHF Final Energy:  -270.11637775748500
    Total Energy =                       -270.1163777574851110
  Basis Set: CC-PVTZ
  Basis Set:
  Basis Set: CC-PVTZ
  Basis Set:
  @DF-RHF Final Energy:  -270.11638000360051
    Total Energy =                       -270.1163800036004545
  Basis Set: CC-PVTZ
  Basis Set:
  Basis Set: CC-PVTZ
  Basis Set:
  @DF-RHF Final Energy:  -270.11638390779575
    Total Energy =                       -270.1163839077956368
  Basis Set: CC-PVTZ
  Basis Set:
  Charge       = 0
  Multiplicity = 1
  Basis Set: CC-PVTZ
  Basis Set:

    Orbital Energies (a.u.)
    -----------------------

    Doubly Occupied:

       1A    -20.551520     2A    -11.320889     3A    -11.235184
       4A    -11.233174     5A    -11.228027     6A    -11.217654
       7A     -1.406329     8A     -1.097383     9A     -1.016301
      10A     -0.915729    11A     -0.809332    12A     -0.789335
      13A     -0.678536    14A     -0.651795    15A     -0.640459
      16A     -0.592900    17A     -0.577686    18A     -0.570459
      19A     -0.524862    20A     -0.520802    21A     -0.488520
      22A     -0.479903    23A     -0.471796    24A     -0.411706

  @DF-RHF Final Energy:  -270.11638400988306

   => Energetics <=

    Nuclear Repulsion Energy =            232.6106592255933094
    One-Electron Energy =                -826.5935270710576788
    Two-Electron Energy =                 323.8664838355811639
    DFT Exchange-Correlation Energy =       0.0000000000000000
    Empirical Dispersion Energy =           0.0000000000000000
    PCM Polarization Energy =               0.0000000000000000
    EFP Energy =                            0.0000000000000000
    Total Energy =                       -270.1163840098832338
    Molecular point group: c1
  Basis Set: CC-PVTZ
  Basis Set:

  -Total Gradient:
     Atom            X                  Y                   Z
    ------   -----------------  -----------------  -----------------
       1        0.000011451070    -0.000000179488     0.000010072059
       2       -0.000010341176     0.000007988773     0.000011970560
       3        0.000004582663     0.000036258636    -0.000021212161
       4        0.000004701824    -0.000017726141    -0.000009237820
       5        0.000944706894     0.000115396121    -0.004992951022
       6        0.000001653155    -0.000009424943    -0.000007408646
       7        0.000001591497    -0.000000285539     0.000009045040
       8        0.001678865588     0.003169124256     0.003586527252
       9       -0.001059895518    -0.000584382101     0.003693335426
      10       -0.000004152497     0.000000443836    -0.000002680907
      11       -0.000003291460     0.000001237254     0.000002675448
      12       -0.001568316439    -0.002713573108    -0.002276903397
      13        0.000001970468    -0.000001585417    -0.000000411037
      14       -0.000002902639     0.000002119126    -0.000000445264
      15       -0.000002197542    -0.000003251840     0.000000078582
      16        0.000001574109    -0.000002159424    -0.000002454113

  **** Optimization is complete! (in 9 steps) ****
    Final optimized geometry and variables:
    Molecular point group: c1

    Geometry (in Angstrom), charge = 0, multiplicity = 1:

    H            1.703709965146    -1.692543342325    -0.294606284239
    C            1.289798982286    -1.215426617009     0.603677384473
    C            0.020676761600    -0.439647080734     0.386444556549
    O            1.843316133194    -1.330383516227     1.642118577122
    C            0.214587565936     0.662699201473    -0.662548301308
    H           -0.295574297522    -0.028153192317     1.336570319421
    H           -0.733913318853    -1.146405396165     0.053954892142
    C           -1.013277200157     1.553747397566    -0.876208627253
    H            1.035551546260     1.288554006743    -0.326808893231
    H            0.511044083759     0.214909870318    -1.606421574240
    C           -2.320750195945     0.802490586342    -1.121315421652
    H           -0.824987183673     2.174702784978    -1.745874340095
    H           -1.131956462539     2.217506848852    -0.026298249717
    H           -2.223208456045     0.101920666674    -1.944886185622
    H           -3.112984360996     1.496993707986    -1.374375253830
    H           -2.643420740589     0.247376988063    -0.249054473104

  Mulliken Charges: (a.u.)
   Center  Symbol    Alpha    Beta     Spin     Total
       1     H     0.46605  0.46605  0.00000  0.06791
       2     C     2.91044  2.91044  0.00000  0.17912
       3     C     3.07940  3.07940  0.00000 -0.15880
       4     O     4.16398  4.16398  0.00000 -0.32796
       5     C     3.10949  3.10949  0.00000 -0.21898
       6     H     0.44246  0.44246  0.00000  0.11509
       7     H     0.44814  0.44814  0.00000  0.10371
       8     C     3.08905  3.08905  0.00000 -0.17810
       9     H     0.44176  0.44176  0.00000  0.11648
      10     H     0.44891  0.44891  0.00000  0.10219
      11     C     3.15734  3.15734  0.00000 -0.31469
      12     H     0.44691  0.44691  0.00000  0.10617
      13     H     0.44823  0.44823  0.00000  0.10354
      14     H     0.45347  0.45347  0.00000  0.09305
      15     H     0.44306  0.44306  0.00000  0.11387
      16     H     0.45130  0.45130  0.00000  0.09740

   Total alpha = 24.00000, Total beta = 24.00000, Total charge = -0.00000

*** Psi4 exiting successfully. Buy a developer a beer!
