                              Psi4 1.0.54 Driver

  ==> Input File <==

--------------------------------------------------------------------------
set {
	reference rhf
	basis cc-pvtz
}

set_num_threads( 4 )
memory 2 gb

molecule MOL {
0 1

O	 0.074770	 1.259872	 0.000487
C	 0.029490	 0.077183	 0.000078
C	 -1.232113	 -0.748027	 0.000015
O	 1.106773	 -0.690081	 -0.000204
C	 -2.501422	 0.088592	 -0.000052
H	 -1.188777	 -1.400384	 -0.865133
H	 -1.188857	 -1.400312	 0.865225
H	 -2.548170	 0.725504	 -0.873205
H	 -3.371613	 -0.556398	 -0.000040
H	 -2.548215	 0.725571	 0.873047
C	 1.999630	 -0.555400	 1.087136
H	 2.388786	 0.450660	 1.138478
H	 2.799125	 -1.254855	 0.904392
H	 1.504695	 -0.789707	 2.017934

	symmetry c1
}
set optking {
	frozen_dihedral = ("
		11 4 2 3
	")
}

ee,wfn = optimize('scf', return_wfn=True)
oeprop( wfn, 'DIPOLE', 'QUADRUPOLE', 'MULLIKEN_CHARGES')
f=open( 'psi4out.xyz', 'w' )
f.write( "14  " )
f.write( str(ee) + "\n" )
f.write( MOL.save_string_xyz() )
f.close()
--------------------------------------------------------------------------

    Molecular point group: c1
  Charge       = 0
  Multiplicity = 1
  Basis Set: CC-PVTZ
  Basis Set:
  @DF-RHF Final Energy:  -305.97316627925210
    Total Energy =                       -305.9731662792520979
    Molecular point group: c1
  Basis Set: CC-PVTZ
  Basis Set:
  Basis Set: CC-PVTZ
  Basis Set:
  @DF-RHF Final Energy:  -305.96329048053826
    Total Energy =                       -305.9632904805382623
  Basis Set: CC-PVTZ
  Basis Set:
  Basis Set: CC-PVTZ
  Basis Set:
  @DF-RHF Final Energy:  -305.97296551085071
    Total Energy =                       -305.9729655108507131
  Basis Set: CC-PVTZ
  Basis Set:
  Basis Set: CC-PVTZ
  Basis Set:
  @DF-RHF Final Energy:  -305.97368737832477
    Total Energy =                       -305.9736873783247688
  Basis Set: CC-PVTZ
  Basis Set:
  Basis Set: CC-PVTZ
  Basis Set:
  @DF-RHF Final Energy:  -305.97397687107809
    Total Energy =                       -305.9739768710777525
  Basis Set: CC-PVTZ
  Basis Set:
  Basis Set: CC-PVTZ
  Basis Set:
  @DF-RHF Final Energy:  -305.97401380880160
    Total Energy =                       -305.9740138088016579
  Basis Set: CC-PVTZ
  Basis Set:
  Basis Set: CC-PVTZ
  Basis Set:
  @DF-RHF Final Energy:  -305.97401634018081
    Total Energy =                       -305.9740163401812652
  Basis Set: CC-PVTZ
  Basis Set:
  Charge       = 0
  Multiplicity = 1
  Basis Set: CC-PVTZ
  Basis Set:

    Orbital Energies (a.u.)
    -----------------------

    Doubly Occupied:

       1A    -20.582562     2A    -20.543228     3A    -11.368029
       4A    -11.284884     5A    -11.240226     6A    -11.216790
       7A     -1.464993     8A     -1.368797     9A     -1.064775
      10A     -0.977265    11A     -0.887334    12A     -0.767646
      13A     -0.702701    14A     -0.679770    15A     -0.675195
      16A     -0.621168    17A     -0.613039    18A     -0.556364
      19A     -0.542251    20A     -0.523621    21A     -0.511203
      22A     -0.498109    23A     -0.458746    24A     -0.440154

  @DF-RHF Final Energy:  -305.97401662019149

   => Energetics <=

    Nuclear Repulsion Energy =            247.0892744982606075
    One-Electron Energy =                -906.9488847692014133
    Two-Electron Energy =                 353.8855936507494562
    DFT Exchange-Correlation Energy =       0.0000000000000000
    Empirical Dispersion Energy =           0.0000000000000000
    PCM Polarization Energy =               0.0000000000000000
    EFP Energy =                            0.0000000000000000
    Total Energy =                       -305.9740166201913780
    Molecular point group: c1
  Basis Set: CC-PVTZ
  Basis Set:

  -Total Gradient:
     Atom            X                  Y                   Z
    ------   -----------------  -----------------  -----------------
       1        0.000065201318    -0.000012465252    -0.000001345687
       2       -0.002364411605    -0.000544772886    -0.007441881979
       3        0.000741845071    -0.001588142146     0.006003899447
       4        0.004097698352     0.008145459211    -0.000886422844
       5        0.000012549963    -0.000010361326    -0.000000947098
       6       -0.000002675052    -0.000003128539    -0.000003485576
       7       -0.000003501930    -0.000006747869    -0.000001202268
       8        0.000000300712     0.000001216314    -0.000002784418
       9        0.000006217376     0.000001192989    -0.000000967748
      10        0.000001381795     0.000002417548     0.000005832599
      11       -0.002568566697    -0.005991022851     0.002337977445
      12       -0.000001903413     0.000006472424    -0.000004400301
      13        0.000019508892    -0.000002659806    -0.000001019144
      14       -0.000003644782     0.000002542191    -0.000003252429

  **** Optimization is complete! (in 8 steps) ****
    Final optimized geometry and variables:
    Molecular point group: c1

    Geometry (in Angstrom), charge = 0, multiplicity = 1:

    O           -0.000022717831     1.336635825347     0.222132716990
    C            0.051375168612     0.215868878499    -0.138907563621
    C           -1.126516635815    -0.716285209151    -0.240371114924
    O            1.209566540637    -0.394360424601    -0.436402474424
    C           -2.471947365790    -0.033775633830    -0.056678473881
    H           -1.064816805325    -1.232768098120    -1.191429188684
    H           -0.963593595950    -1.477830917172     0.517206811692
    H           -2.633534728904     0.716562781471    -0.819732316717
    H           -3.271831376956    -0.761300104884    -0.120322826663
    H           -2.530906185075     0.458027588182     0.904635833917
    C            2.195669438629    -0.418677023951     0.574168801771
    H            2.452085038405     0.581967145497     0.889738361230
    H            3.060484944647    -0.901812994766     0.149408739862
    H            1.846893705413    -0.991791999195     1.425448696734

  Mulliken Charges: (a.u.)
   Center  Symbol    Alpha    Beta     Spin     Total
       1     O     4.17867  4.17867  0.00000 -0.35733
       2     C     2.79497  2.79497  0.00000  0.41005
       3     C     3.09664  3.09664  0.00000 -0.19328
       4     O     4.16579  4.16579  0.00000 -0.33158
       5     C     3.13977  3.13977  0.00000 -0.27955
       6     H     0.43848  0.43848  0.00000  0.12303
       7     H     0.44627  0.44627  0.00000  0.10746
       8     H     0.44867  0.44867  0.00000  0.10266
       9     H     0.45042  0.45042  0.00000  0.09917
      10     H     0.44700  0.44700  0.00000  0.10601
      11     C     3.03493  3.03493  0.00000 -0.06986
      12     H     0.44711  0.44711  0.00000  0.10578
      13     H     0.44499  0.44499  0.00000  0.11002
      14     H     0.46629  0.46629  0.00000  0.06742

   Total alpha = 24.00000, Total beta = 24.00000, Total charge = -0.00000

*** Psi4 exiting successfully. Buy a developer a beer!
