  ==> Input File <==

--------------------------------------------------------------------------
set {
	reference rhf
	basis 6-31G*
}

set_num_threads( 1 )
memory 2 gb

molecule MOL {
0 1

O	 -1.276010	 1.052711	 -0.768302
C	 -1.204840	 0.067374	 -0.106123
C	 -2.388195	 -0.672128	 0.458071
O	 -0.067104	 -0.527208	 0.221609
H	 -2.388023	 -1.694060	 0.097175
H	 -3.300579	 -0.174919	 0.164318
H	 -2.315377	 -0.706351	 1.539059
C	 0.463020	 -1.541665	 -0.643130
C	 1.324801	 -2.430385	 0.236130
C	 1.240023	 -0.894114	 -1.778731
H	 -0.367814	 -2.104066	 -1.043041
H	 0.737370	 -2.858448	 1.040452
H	 1.745562	 -3.240812	 -0.349958
H	 2.140041	 -1.863276	 0.672507
H	 1.663247	 -1.657324	 -2.424028
H	 0.592713	 -0.266418	 -2.377867
H	 2.051611	 -0.289598	 -1.386438

	symmetry c1
}
set optking {
	frozen_dihedral = ("
		11 8 4 2
	")
}

ee = energy('scf')
oeprop('DIPOLE', 'QUADRUPOLE', 'MULLIKEN_CHARGES')
f=open( 'psi4out.xyz', 'w' )
f.write( "17  " )
f.write( str(ee) + "\n" )
f.write( MOL.save_string_xyz() )
f.close()
--------------------------------------------------------------------------

    Molecular point group: c1

    Geometry (in Angstrom), charge = 0, multiplicity = 1:

       Center              X                  Y                   Z               Mass
    ------------   -----------------  -----------------  -----------------  -----------------
           O         -1.004601322289     1.760250082482    -0.426869538077    15.994914619560
           C         -0.933431322289     0.774913082482     0.235309461923    12.000000000000
           C         -2.116786322289     0.035411082482     0.799503461923    12.000000000000
           O          0.204304677711     0.180331082482     0.563041461923    15.994914619560
           H         -2.116614322289    -0.986520917518     0.438607461923     1.007825032070
           H         -3.029170322289     0.532620082482     0.505750461923     1.007825032070
           H         -2.043968322289     0.001188082482     1.880491461923     1.007825032070
           C          0.734428677711    -0.834125917518    -0.301697538077    12.000000000000
           C          1.596209677711    -1.722845917518     0.577562461923    12.000000000000
           C          1.511431677711    -0.186574917518    -1.437298538077    12.000000000000
           H         -0.096405322289    -1.396526917518    -0.701608538077     1.007825032070
           H          1.008778677711    -2.150908917518     1.381884461923     1.007825032070
           H          2.016970677711    -2.533272917518    -0.008525538077     1.007825032070
           H          2.411449677711    -1.155736917518     1.013939461923     1.007825032070
           H          1.934655677711    -0.949784917518    -2.082595538077     1.007825032070
           H          0.864121677711     0.441121082482    -2.036434538077     1.007825032070
           H          2.323019677711     0.417941082482    -1.045005538077     1.007825032070

  Charge       = 0
  Multiplicity = 1
  Basis Set: 6-31G*
  Basis Set:

    Orbital Energies (a.u.)
    -----------------------

    Doubly Occupied:

       1A    -20.581274     2A    -20.553017     3A    -11.375284
       4A    -11.305022     5A    -11.233287     6A    -11.225039
       7A    -11.217734     8A     -1.459956     9A     -1.365536
      10A     -1.078255    11A     -1.008847    12A     -0.952162
      13A     -0.852232    14A     -0.773550    15A     -0.690761
      16A     -0.675925    17A     -0.655094    18A     -0.617186
      19A     -0.591755    20A     -0.586380    21A     -0.556755
      22A     -0.552490    23A     -0.547213    24A     -0.518857
      25A     -0.508023    26A     -0.478575    27A     -0.447635
      28A     -0.434821

  @DF-RHF Final Energy:  -344.89375882752813

   => Energetics <=

    Nuclear Repulsion Energy =            323.4620308871860743
    One-Electron Energy =               -1111.0263238753136648
    Two-Electron Energy =                 442.6705341605986632
    DFT Exchange-Correlation Energy =       0.0000000000000000
    Empirical Dispersion Energy =           0.0000000000000000
    PCM Polarization Energy =               0.0000000000000000
    EFP Energy =                            0.0000000000000000
    Total Energy =                       -344.8937588275289272

  Mulliken Charges: (a.u.)
   Center  Symbol    Alpha    Beta     Spin     Total
       1     O     4.25946  4.25946  0.00000 -0.51892
       2     C     2.62728  2.62728  0.00000  0.74545
       3     C     3.28422  3.28422  0.00000 -0.56844
       4     O     4.31663  4.31663  0.00000 -0.63326
       5     H     0.40802  0.40802  0.00000  0.18396
       6     H     0.39906  0.39906  0.00000  0.20188
       7     H     0.39933  0.39933  0.00000  0.20135
       8     C     2.92998  2.92998  0.00000  0.14004
       9     C     3.24005  3.24005  0.00000 -0.48010
      10     C     3.24317  3.24317  0.00000 -0.48634
      11     H     0.42037  0.42037  0.00000  0.15927
      12     H     0.41232  0.41232  0.00000  0.17537
      13     H     0.41793  0.41793  0.00000  0.16414
      14     H     0.40870  0.40870  0.00000  0.18259
      15     H     0.42145  0.42145  0.00000  0.15711
      16     H     0.40215  0.40215  0.00000  0.19569
      17     H     0.40990  0.40990  0.00000  0.18020

   Total alpha = 28.00000, Total beta = 28.00000, Total charge =  0.00000
