  ==> Input File <==

--------------------------------------------------------------------------
set {
	reference rhf
	basis 6-31G*
}

set_num_threads( 4 )
memory 2 gb

molecule MOL {
0 1

O	 2.684621	 -0.230908	 -0.575545
C	 1.705091	 0.115954	 0.001797
C	 0.381791	 -0.609817	 0.001258
O	 1.650520	 1.214401	 0.744477
C	 -0.823008	 0.326187	 0.001381
H	 0.371250	 -1.265087	 -0.865474
H	 0.370908	 -1.265746	 0.867490
C	 -2.149452	 -0.435131	 -0.000098
H	 -0.770201	 0.977095	 -0.865636
H	 -0.771220	 0.975655	 0.869608
C	 -3.368779	 0.488503	 -0.000883
H	 -2.193746	 -1.087250	 -0.871175
H	 -2.195311	 -1.087803	 0.870418
C	 -4.693822	 -0.272754	 -0.001129
H	 -3.325798	 1.139422	 -0.871284
H	 -3.326423	 1.139959	 0.869145
H	 -4.781274	 -0.907928	 -0.878124
H	 -5.538651	 0.408946	 -0.001420
H	 -4.781694	 -0.907783	 0.875984
C	 2.831668	 1.990426	 0.831833
H	 3.635726	 1.411486	 1.262935
H	 2.589135	 2.826291	 1.469314
H	 3.130243	 2.339583	 -0.146148

	symmetry c1
}
set optking {
	frozen_dihedral = ("
		1 2 3 6
	")
}

ee = optimize('scf')
oeprop('DIPOLE', 'QUADRUPOLE', 'MULLIKEN_CHARGES')
f=open( 'psi4out.xyz', 'w' )
f.write( "23  " )
f.write( str(ee) + "\n" )
f.write( MOL.save_string_xyz() )
f.close()
--------------------------------------------------------------------------

    Molecular point group: c1
  Charge       = 0
  Multiplicity = 1
  Basis Set: 6-31G*
  Basis Set:
  @DF-RHF Final Energy:  -422.97379290122808
    Total Energy =                       -422.9737929012280802
    Molecular point group: c1
  Basis Set: 6-31G*
  Basis Set:
  Basis Set: 6-31G*
  Basis Set:
  @DF-RHF Final Energy:  -422.97278124888584
    Total Energy =                       -422.9727812488864629
  Basis Set: 6-31G*
  Basis Set:
  Basis Set: 6-31G*
  Basis Set:
  @DF-RHF Final Energy:  -422.97400267983789
    Total Energy =                       -422.9740026798375538
  Basis Set: 6-31G*
  Basis Set:
  Basis Set: 6-31G*
  Basis Set:
  @DF-RHF Final Energy:  -422.97445822841695
    Total Energy =                       -422.9744582284167791
  Basis Set: 6-31G*
  Basis Set:
  Basis Set: 6-31G*
  Basis Set:
  @DF-RHF Final Energy:  -422.97446452187398
    Total Energy =                       -422.9744645218736423
  Basis Set: 6-31G*
  Basis Set:
  Basis Set: 6-31G*
  Basis Set:
  @DF-RHF Final Energy:  -422.97446624957178
    Total Energy =                       -422.9744662495722878
  Basis Set: 6-31G*
  Basis Set:
  Charge       = 0
  Multiplicity = 1
  Basis Set: 6-31G*
  Basis Set:

    Orbital Energies (a.u.)
    -----------------------

    Doubly Occupied:

       1A    -20.605170     2A    -20.542472     3A    -11.371633
       4A    -11.281282     5A    -11.235141     6A    -11.225219
       7A    -11.220714     8A    -11.219432     9A    -11.211734
      10A     -1.469509    11A     -1.361139    12A     -1.096291
      13A     -1.045074    14A     -0.983225    15A     -0.935603
      16A     -0.847950    17A     -0.797654    18A     -0.773983
      19A     -0.693038    20A     -0.682257    21A     -0.671599
      22A     -0.653484    23A     -0.609842    24A     -0.592538
      25A     -0.577606    26A     -0.566510    27A     -0.551265
      28A     -0.526173    29A     -0.523565    30A     -0.506631
      31A     -0.488758    32A     -0.478521    33A     -0.470284
      34A     -0.468545    35A     -0.454224    36A     -0.425978

  @DF-RHF Final Energy:  -422.97446628494879

   => Energetics <=

    Nuclear Repulsion Energy =            455.0274743465412257
    One-Electron Energy =               -1477.6757985637918864
    Two-Electron Energy =                 599.6738579323015301
    DFT Exchange-Correlation Energy =       0.0000000000000000
    Empirical Dispersion Energy =           0.0000000000000000
    PCM Polarization Energy =               0.0000000000000000
    EFP Energy =                            0.0000000000000000
    Total Energy =                       -422.9744662849491306
    Molecular point group: c1
  Basis Set: 6-31G*
  Basis Set:

  -Total Gradient:
     Atom            X                  Y                   Z
    ------   -----------------  -----------------  -----------------
       1        0.000292009518    -0.000539146244     0.000810399274
       2       -0.000500918482     0.000903217127    -0.001290632799
       3        0.000606675787    -0.001066187491     0.001025655689
       4       -0.000017407433    -0.000000641706     0.000004576890
       5        0.000007164195     0.000000785711    -0.000004532524
       6       -0.000384501095     0.000711811388    -0.000536282003
       7       -0.000001403808    -0.000007200025     0.000012577785
       8       -0.000010415621    -0.000000086600    -0.000012271637
       9        0.000001377912    -0.000003982008    -0.000009893434
      10        0.000002738183     0.000001870934    -0.000006720250
      11        0.000000954697     0.000001169510     0.000016715488
      12       -0.000005944804     0.000007769424    -0.000010258344
      13        0.000008100024    -0.000003070358    -0.000006527168
      14        0.000003908761    -0.000003635531     0.000004126608
      15        0.000001236260    -0.000007249614     0.000001080879
      16        0.000000362555     0.000006455709     0.000002274218
      17        0.000001088089    -0.000001033833    -0.000000324926
      18        0.000003052720     0.000001383696    -0.000000624284
      19       -0.000001880547     0.000000190855     0.000000776029
      20       -0.000000119537    -0.000001827345    -0.000003507728
      21       -0.000000350714     0.000000924020     0.000000346219
      22       -0.000005716753    -0.000002105383     0.000001305412
      23       -0.000000009913     0.000000587761     0.000001740605

  **** Optimization is complete! (in 7 steps) ****
    Final optimized geometry and variables:
    Molecular point group: c1

    Geometry (in Angstrom), charge = 0, multiplicity = 1:

    O            2.822443540342    -0.555666861800    -0.697061093862
    C            1.866716900384    -0.157303763157    -0.111931743235
    C            0.531716654752    -0.863955690097    -0.085669879869
    O            1.880238316420     0.942289075456     0.628954020884
    C           -0.694463173042     0.053227728909    -0.094065137980
    H            0.521069306272    -1.532169003132    -0.937613115384
    H            0.524522489518    -1.483307943533     0.808669829375
    C           -2.002934751475    -0.738442874688    -0.120904484850
    H           -0.649960752378     0.707095387991    -0.962028029072
    H           -0.671925620444     0.696595185522     0.778244432908
    C           -3.243646223966     0.156217458363    -0.124655038120
    H           -2.021149569123    -1.381109536140    -0.999342223076
    H           -2.041353731697    -1.401145116386     0.742300265964
    C           -4.549924898066    -0.636505001101    -0.148509578504
    H           -3.207205675814     0.817837237590    -0.987370911932
    H           -3.226670975555     0.798276398632     0.753269607753
    H           -4.611905318018    -1.263861688011    -1.033192444240
    H           -5.410740746297     0.024797404025    -0.151357318472
    H           -4.632393544256    -1.282940641007     0.720663270068
    C            3.103129577555     1.653218322472     0.700039401804
    H            3.877748248081     1.033189276270     1.127618965161
    H            2.912419904514     2.505114763416     1.333953838314
    H            3.410573715958     1.978468030858    -0.283217286487

  Mulliken Charges: (a.u.)
   Center  Symbol    Alpha    Beta     Spin     Total
       1     O     4.28801  4.28801  0.00000 -0.57602
       2     C     2.60805  2.60805  0.00000  0.78390
       3     C     3.20523  3.20523  0.00000 -0.41046
       4     O     4.30286  4.30286  0.00000 -0.60572
       5     C     3.15796  3.15796  0.00000 -0.31592
       6     H     0.39795  0.39795  0.00000  0.20410
       7     H     0.40179  0.40179  0.00000  0.19642
       8     C     3.15325  3.15325  0.00000 -0.30650
       9     H     0.41771  0.41771  0.00000  0.16457
      10     H     0.40823  0.40823  0.00000  0.18355
      11     C     3.15182  3.15182  0.00000 -0.30364
      12     H     0.42181  0.42181  0.00000  0.15637
      13     H     0.42287  0.42287  0.00000  0.15425
      14     C     3.23970  3.23970  0.00000 -0.47939
      15     H     0.42185  0.42185  0.00000  0.15630
      16     H     0.42186  0.42186  0.00000  0.15629
      17     H     0.42108  0.42108  0.00000  0.15784
      18     H     0.41836  0.41836  0.00000  0.16327
      19     H     0.42135  0.42135  0.00000  0.15730
      20     C     3.09238  3.09238  0.00000 -0.18475
      21     H     0.40868  0.40868  0.00000  0.18263
      22     H     0.40879  0.40879  0.00000  0.18242
      23     H     0.40840  0.40840  0.00000  0.18320

   Total alpha = 36.00000, Total beta = 36.00000, Total charge =  0.00000
