  ==> Input File <==

--------------------------------------------------------------------------
set {
	reference rhf
	basis cc-pvtz
}

set_num_threads( 4 )
memory 2 gb

molecule MOL {
0 1

H	 -4.009657	 -0.583495	 -0.475414
C	 -2.947196	 -0.431882	 -0.494516
C	 -2.420854	 0.686768	 -1.115184
C	 -2.108921	 -1.355123	 0.101223
H	 -3.072125	 1.402953	 -1.577380
C	 -1.055488	 0.880904	 -1.139319
H	 -2.518094	 -2.222313	 0.582295
C	 -0.741547	 -1.162137	 0.077892
H	 -0.631127	 1.741311	 -1.615423
C	 -0.210844	 -0.042605	 -0.543005
H	 -0.089572	 -1.875210	 0.538312
C	 1.257094	 0.212812	 -0.596309
O	 1.968286	 -0.725612	 -0.000027
O	 1.743188	 1.159315	 -1.118827
C	 3.373556	 -0.568203	 0.000011
H	 3.695416	 -0.031588	 -0.879663
H	 3.782700	 -1.565294	 -0.000152
H	 3.695405	 -0.031851	 0.879862

	symmetry c1
}
set optking {
	frozen_dihedral = ("
		12 13 15 16
	")
}

ee = optimize('scf')
oeprop('DIPOLE', 'QUADRUPOLE', 'MULLIKEN_CHARGES')
f=open( 'psi4out.xyz', 'w' )
f.write( "18  " )
f.write( str(ee) + "\n" )
f.write( MOL.save_string_xyz() )
f.close()
--------------------------------------------------------------------------

    Molecular point group: c1
  Charge       = 0
  Multiplicity = 1
  Basis Set: CC-PVTZ
  Basis Set:
  @DF-RHF Final Energy:  -457.50881945620552
    Total Energy =                       -457.5088194562057424
    Molecular point group: c1
  Basis Set: CC-PVTZ
  Basis Set:
  Basis Set: CC-PVTZ
  Basis Set:
  @DF-RHF Final Energy:  -457.50891950264094
    Total Energy =                       -457.5089195026412199
  Basis Set: CC-PVTZ
  Basis Set:
  Basis Set: CC-PVTZ
  Basis Set:
  @DF-RHF Final Energy:  -457.50880187777932
    Total Energy =                       -457.5088018777789785
  Basis Set: CC-PVTZ
  Basis Set:
  Basis Set: CC-PVTZ
  Basis Set:
  @DF-RHF Final Energy:  -457.50908147514247
    Total Energy =                       -457.5090814751420112
  Basis Set: CC-PVTZ
  Basis Set:
  Basis Set: CC-PVTZ
  Basis Set:
  @DF-RHF Final Energy:  -457.50908923723750
    Total Energy =                       -457.5090892372379585
  Basis Set: CC-PVTZ
  Basis Set:
  Charge       = 0
  Multiplicity = 1
  Basis Set: CC-PVTZ
  Basis Set:

    Orbital Energies (a.u.)
    -----------------------

    Doubly Occupied:

       1A    -20.600475     2A    -20.534070     3A    -11.372545
       4A    -11.280599     5A    -11.244751     6A    -11.243328
       7A    -11.242457     8A    -11.239821     9A    -11.235867
      10A    -11.235103    11A     -1.475692    12A     -1.368864
      13A     -1.170554    14A     -1.051704    15A     -1.028848
      16A     -0.981173    17A     -0.862989    18A     -0.838247
      19A     -0.780949    20A     -0.745122    21A     -0.688220
      22A     -0.680182    23A     -0.676258    24A     -0.634234
      25A     -0.629924    26A     -0.601127    27A     -0.588170
      28A     -0.567648    29A     -0.529303    30A     -0.520228
      31A     -0.509701    32A     -0.501887    33A     -0.462313
      34A     -0.449421    35A     -0.350089    36A     -0.346048

  @DF-RHF Final Energy:  -457.50908960374716

   => Energetics <=

    Nuclear Repulsion Energy =            493.8070109231475726
    One-Electron Energy =               -1602.0963755956702244
    Two-Electron Energy =                 650.7802750687758362
    DFT Exchange-Correlation Energy =       0.0000000000000000
    Empirical Dispersion Energy =           0.0000000000000000
    PCM Polarization Energy =               0.0000000000000000
    EFP Energy =                            0.0000000000000000
    Total Energy =                       -457.5090896037468156
    Molecular point group: c1
  Basis Set: CC-PVTZ
  Basis Set:

  -Total Gradient:
     Atom            X                  Y                   Z
    ------   -----------------  -----------------  -----------------
       1        0.000000371806     0.000001006440    -0.000000838157
       2       -0.000002241468     0.000013247616    -0.000008244846
       3       -0.000007267774    -0.000002529222     0.000004497126
       4        0.000022696428    -0.000001961431     0.000001267714
       5        0.000002009209     0.000000570184    -0.000002154956
       6        0.000018623773    -0.000004609839    -0.000001555379
       7        0.000003769035     0.000001286104     0.000001343685
       8       -0.000001654138    -0.000002749161     0.000005114206
       9        0.000000194537     0.000006883636    -0.000001661837
      10        0.000025533687    -0.000009341586     0.000006692954
      11        0.000009741422    -0.000004111988     0.000000392466
      12        0.000093294833    -0.000701876589    -0.001254340535
      13       -0.000162940832     0.001367594160     0.002005485112
      14       -0.000043981913    -0.000000264367    -0.000012993432
      15        0.000149687163    -0.002122502228    -0.001543333291
      16       -0.000120032033     0.001461089356     0.000799559564
      17       -0.000042367602     0.000003541255    -0.000002851433
      18        0.000054563864    -0.000005272343     0.000003621039

  **** Optimization is complete! (in 6 steps) ****
    Final optimized geometry and variables:
    Molecular point group: c1

    Geometry (in Angstrom), charge = 0, multiplicity = 1:

    H           -4.020764025082    -0.474463414980    -0.000604104922
    C           -2.959235337490    -0.316079747610    -0.018767679750
    C           -2.439615174634     0.807345932575    -0.636602305021
    C           -2.115282288880    -1.235093127930     0.575413787147
    H           -3.095140929623     1.520527166722    -1.097562090661
    C           -1.075514818974     1.010274924275    -0.659382532727
    H           -2.518935382205    -2.106000400248     1.054508918176
    C           -0.749029236531    -1.033346977790     0.553265591675
    H           -0.656641327742     1.874693955229    -1.133128953073
    C           -0.225091404847     0.090767641720    -0.064887627044
    H           -0.093026642258    -1.743295172751     1.012773414975
    C            1.241823498229     0.356753910426    -0.117945815819
    O            1.954162585233    -0.578001002927     0.483297542973
    O            1.717436118391     1.307324016053    -0.642161645900
    C            3.364134143331    -0.463087332814     0.473125207603
    H            3.702304857885     0.046348666348    -0.413262334305
    H            3.754362091819    -1.467258816798     0.514556330234
    H            3.688707213269     0.091236594030     1.343094091679

  Mulliken Charges: (a.u.)
   Center  Symbol    Alpha    Beta     Spin     Total
       1     H     0.42032  0.42032  0.00000  0.15936
       2     C     3.06976  3.06976  0.00000 -0.13952
       3     C     3.07554  3.07554  0.00000 -0.15108
       4     C     3.07492  3.07492  0.00000 -0.14984
       5     H     0.42043  0.42043  0.00000  0.15913
       6     C     3.07589  3.07589  0.00000 -0.15177
       7     H     0.42193  0.42193  0.00000  0.15613
       8     C     3.08202  3.08202  0.00000 -0.16405
       9     H     0.40650  0.40650  0.00000  0.18699
      10     C     3.01637  3.01637  0.00000 -0.03274
      11     H     0.41115  0.41115  0.00000  0.17770
      12     C     2.77756  2.77756  0.00000  0.44487
      13     O     4.14935  4.14935  0.00000 -0.29870
      14     O     4.21159  4.21159  0.00000 -0.42317
      15     C     3.03892  3.03892  0.00000 -0.07785
      16     H     0.44475  0.44475  0.00000  0.11050
      17     H     0.44744  0.44744  0.00000  0.10511
      18     H     0.45555  0.45555  0.00000  0.08891

   Total alpha = 36.00000, Total beta = 36.00000, Total charge =  0.00000
