  ==> Input File <==

--------------------------------------------------------------------------
set {
	reference rhf
	basis cc-pvtz
}

set_num_threads( 4 )
memory 2 gb

molecule MOL {
0 1

H	 -2.362939	 -1.309000	 -0.383250
C	 -1.359344	 -1.272457	 0.020748
C	 -0.684082	 0.000127	 -0.464918
H	 -0.825835	 -2.151141	 -0.318537
H	 -1.416276	 -1.292399	 1.099455
C	 -1.359089	 1.272668	 0.021259
N	 0.742439	 -0.000109	 0.007333
H	 -0.596914	 0.000345	 -1.538146
H	 -2.362696	 1.309620	 -0.382686
H	 -0.825392	 2.151374	 -0.317674
H	 -1.415983	 1.292181	 1.099973
O	 1.512432	 -0.676481	 -0.587037
O	 1.008185	 0.676226	 0.944478

	symmetry c1
}
set optking {
	frozen_dihedral = ("
		12 7 3 8
	")
}

ee = optimize('scf')
oeprop('DIPOLE', 'QUADRUPOLE', 'MULLIKEN_CHARGES')
f=open( 'psi4out.xyz', 'w' )
f.write( "13  " )
f.write( str(ee) + "\n" )
f.write( MOL.save_string_xyz() )
f.close()
--------------------------------------------------------------------------

    Molecular point group: c1
  Charge       = 0
  Multiplicity = 1
  Basis Set: CC-PVTZ
  Basis Set:
  @DF-RHF Final Energy:  -321.86319086225808
    Total Energy =                       -321.8631908622578521
    Molecular point group: c1
  Basis Set: CC-PVTZ
  Basis Set:
  Basis Set: CC-PVTZ
  Basis Set:
  @DF-RHF Final Energy:  -321.85877035575760
    Total Energy =                       -321.8587703557575423
  Basis Set: CC-PVTZ
  Basis Set:
  Basis Set: CC-PVTZ
  Basis Set:
  @DF-RHF Final Energy:  -321.86274208741020
    Total Energy =                       -321.8627420874101972
  Basis Set: CC-PVTZ
  Basis Set:
  Basis Set: CC-PVTZ
  Basis Set:
  @DF-RHF Final Energy:  -321.86390092158365
    Total Energy =                       -321.8639009215836495
  Basis Set: CC-PVTZ
  Basis Set:
  Basis Set: CC-PVTZ
  Basis Set:
  @DF-RHF Final Energy:  -321.86391721912776
    Total Energy =                       -321.8639172191277567
  Basis Set: CC-PVTZ
  Basis Set:
  Charge       = 0
  Multiplicity = 1
  Basis Set: CC-PVTZ
  Basis Set:

    Orbital Energies (a.u.)
    -----------------------

    Doubly Occupied:

       1A    -20.590738     2A    -20.586757     3A    -15.833059
       4A    -11.305107     5A    -11.244818     6A    -11.238410
       7A     -1.634089     8A     -1.418337     9A     -1.141827
      10A     -0.972060    11A     -0.957458    12A     -0.815934
      13A     -0.757465    14A     -0.731139    15A     -0.725763
      16A     -0.646902    17A     -0.593677    18A     -0.587576
      19A     -0.571238    20A     -0.528495    21A     -0.521797
      22A     -0.484967    23A     -0.471342    24A     -0.451618

  @DF-RHF Final Energy:  -321.86391928978861

   => Energetics <=

    Nuclear Repulsion Energy =            257.4106059642644482
    One-Electron Energy =                -948.9279092270968476
    Two-Electron Energy =                 369.6533839730439581
    DFT Exchange-Correlation Energy =       0.0000000000000000
    Empirical Dispersion Energy =           0.0000000000000000
    PCM Polarization Energy =               0.0000000000000000
    EFP Energy =                            0.0000000000000000
    Total Energy =                       -321.8639192897884982
    Molecular point group: c1
  Basis Set: CC-PVTZ
  Basis Set:

  -Total Gradient:
     Atom            X                  Y                   Z
    ------   -----------------  -----------------  -----------------
       1        0.000001148321     0.000004612886    -0.000007247723
       2        0.000075124170     0.000014364898    -0.000002196417
       3       -0.000149493065    -0.001470397467     0.000271648032
       4       -0.000000835958    -0.000013259165     0.000006992990
       5       -0.000001365744    -0.000005189572     0.000003902157
       6       -0.000021737423     0.000041840912    -0.000007639046
       7        0.000498212811     0.001044301895    -0.000849445131
       8        0.000063608911     0.001044704127    -0.000016569638
       9       -0.000008224130     0.000010158036    -0.000003163770
      10       -0.000008908863    -0.000008586714     0.000013974098
      11        0.000008843947    -0.000005041063    -0.000027960955
      12       -0.000363897679    -0.000789496524     0.000523560847
      13       -0.000092475298     0.000131987749     0.000094144558

  **** Optimization is complete! (in 6 steps) ****
    Final optimized geometry and variables:
    Molecular point group: c1

    Geometry (in Angstrom), charge = 0, multiplicity = 1:

    H           -2.363980739071    -1.280002252230    -0.347518502710
    C           -1.347548296332    -1.250824507189     0.022377177845
    C           -0.683425431469     0.032955569175    -0.458993358980
    H           -0.821357169268    -2.120426938317    -0.343168976902
    H           -1.377259710212    -1.282944661539     1.104409035735
    C           -1.383158780855     1.293434231256     0.008964460235
    N            0.747067289071    -0.000432279977     0.009559198322
    H           -0.592326386121     0.023615831499    -1.533715545099
    H           -2.371781005890     1.315838550197    -0.432999521456
    H           -0.849597245161     2.180199503370    -0.303659095158
    H           -1.482194704387     1.315354927699     1.084048656068
    O            1.481361627797    -0.707100397499    -0.597143948840
    O            1.047191512086     0.641232476065     0.958296991972

  Mulliken Charges: (a.u.)
   Center  Symbol    Alpha    Beta     Spin     Total
       1     H     0.44866  0.44866  0.00000  0.10269
       2     C     3.14323  3.14323  0.00000 -0.28646
       3     C     3.00759  3.00759  0.00000 -0.01517
       4     H     0.43428  0.43428  0.00000  0.13144
       5     H     0.44416  0.44416  0.00000  0.11168
       6     C     3.14334  3.14334  0.00000 -0.28668
       7     N     3.27414  3.27414  0.00000  0.45173
       8     H     0.42706  0.42706  0.00000  0.14589
       9     H     0.45018  0.45018  0.00000  0.09965
      10     H     0.43983  0.43983  0.00000  0.12034
      11     H     0.44015  0.44015  0.00000  0.11970
      12     O     4.17545  4.17545  0.00000 -0.35091
      13     O     4.17194  4.17194  0.00000 -0.34388

   Total alpha = 24.00000, Total beta = 24.00000, Total charge = -0.00000
