                              Psi4 1.0.54 Driver

  ==> Input File <==

--------------------------------------------------------------------------
set {
	reference rhf
	basis cc-pvtz
}

set_num_threads( 4 )
memory 2 gb

molecule MOL {
0 1

H	 -3.259588	 0.532874	 0.662762
C	 -2.218374	 0.314347	 0.527725
C	 -1.791728	 -0.992198	 0.336033
C	 -1.283994	 1.323612	 0.541600
H	 -2.506535	 -1.793068	 0.322195
C	 -0.458675	 -1.276663	 0.162621
H	 -1.594948	 2.340665	 0.688572
C	 0.066387	 1.053901	 0.368001
H	 -0.118644	 -2.282597	 0.013808
C	 0.481150	 -0.251411	 0.177709
H	 0.768425	 1.861582	 0.383958
O	 1.760432	 -0.625184	 0.000000
C	 2.773565	 0.334879	 0.000000
H	 2.728295	 0.960928	 -0.884150
H	 3.706387	 -0.206610	 0.000000
H	 2.728295	 0.960928	 0.884150

	symmetry c1
}
set optking {
	frozen_dihedral = ("
		10 12 13 14
	")
}

ee,wfn = optimize('scf', return_wfn=True)
oeprop( wfn, 'DIPOLE', 'QUADRUPOLE', 'MULLIKEN_CHARGES')
f=open( 'psi4out.xyz', 'w' )
f.write( "16  " )
f.write( str(ee) + "\n" )
f.write( MOL.save_string_xyz() )
f.close()
--------------------------------------------------------------------------

    Molecular point group: c1
  Charge       = 0
  Multiplicity = 1
  Basis Set: CC-PVTZ
  Basis Set:
  @DF-RHF Final Energy:  -344.70341381024372
    Total Energy =                       -344.7034138102437737
    Molecular point group: c1
  Basis Set: CC-PVTZ
  Basis Set:
  Basis Set: CC-PVTZ
  Basis Set:
  @DF-RHF Final Energy:  -344.70352711545127
    Total Energy =                       -344.7035271154516067
  Basis Set: CC-PVTZ
  Basis Set:
  Basis Set: CC-PVTZ
  Basis Set:
  @DF-RHF Final Energy:  -344.70357509790711
    Total Energy =                       -344.7035750979072191
  Basis Set: CC-PVTZ
  Basis Set:
  Charge       = 0
  Multiplicity = 1
  Basis Set: CC-PVTZ
  Basis Set:

    Orbital Energies (a.u.)
    -----------------------

    Doubly Occupied:

       1A    -20.580418     2A    -11.293699     3A    -11.278502
       4A    -11.231233     5A    -11.229985     6A    -11.221815
       7A    -11.217975     8A    -11.216893     9A     -1.419822
      10A     -1.150942    11A     -1.025742    12A     -1.016634
      13A     -0.944295    14A     -0.834560    15A     -0.808281
      16A     -0.726154    17A     -0.667694    18A     -0.666407
      19A     -0.661191    20A     -0.619274    21A     -0.590136
      22A     -0.579434    23A     -0.528592    24A     -0.523372
      25A     -0.512319    26A     -0.479133    27A     -0.467330
      28A     -0.339747    29A     -0.310055

  @DF-RHF Final Energy:  -344.70357704450180

   => Energetics <=

    Nuclear Repulsion Energy =            348.8788324069605551
    One-Electron Energy =               -1158.8815508298023360
    Two-Electron Energy =                 465.2991413783401526
    DFT Exchange-Correlation Energy =       0.0000000000000000
    Empirical Dispersion Energy =           0.0000000000000000
    PCM Polarization Energy =               0.0000000000000000
    EFP Energy =                            0.0000000000000000
    Total Energy =                       -344.7035770445016283
    Molecular point group: c1
  Basis Set: CC-PVTZ
  Basis Set:

  -Total Gradient:
     Atom            X                  Y                   Z
    ------   -----------------  -----------------  -----------------
       1        0.000003842332     0.000006145704     0.000012240469
       2       -0.000000128323     0.000080568595    -0.000020523330
       3        0.000058169544    -0.000021771675     0.000002243004
       4       -0.000091495682    -0.000022668423    -0.000009755627
       5        0.000005455656    -0.000000943427    -0.000007454779
       6       -0.000038404634    -0.000011998294     0.000004394483
       7       -0.000006082212     0.000007364882     0.000007335875
       8        0.000020767170    -0.000021840849     0.000008768770
       9        0.000005983972     0.000000332372    -0.000006485040
      10        0.000120207342    -0.000072129546     0.001085169025
      11       -0.000040372765    -0.000012014823    -0.000002382703
      12        0.000097092992    -0.000039332198    -0.001681818962
      13       -0.000960495607     0.000952665780     0.001216870464
      14        0.000782496521    -0.000776973926    -0.000603855245
      15        0.000065436683    -0.000001301942    -0.000004468097
      16       -0.000022472991    -0.000066102232    -0.000000278307

  **** Optimization is complete! (in 4 steps) ****
    Final optimized geometry and variables:
    Molecular point group: c1

    Geometry (in Angstrom), charge = 0, multiplicity = 1:

    H           -3.271134784367     0.550899121333     0.420445790984
    C           -2.230764677483     0.331323389108     0.280587406737
    C           -1.790700494969    -0.983175450376     0.215810497483
    C           -1.310994582267     1.347040758898     0.161647242885
    H           -2.494189051242    -1.789095925200     0.306015164791
    C           -0.458496650610    -1.269251804196     0.038211228460
    H           -1.632756213495     2.370343972362     0.206782396692
    C            0.038017587954     1.075684855807    -0.019624447575
    H           -0.108062460044    -2.281330210120    -0.012587923418
    C            0.466750956819    -0.237543836371    -0.079399310018
    H            0.728101604910     1.888251562563    -0.115112998877
    O            1.745632646161    -0.612859509911    -0.259046497563
    C            2.761471091015     0.344868689255    -0.255025359988
    H            2.717090968989     0.974831876817    -1.136809726280
    H            3.692742540563    -0.199950568294    -0.266989250673
    H            2.725120575478     0.961952464977     0.634909253369

  Mulliken Charges: (a.u.)
   Center  Symbol    Alpha    Beta     Spin     Total
       1     H     0.42441  0.42441  0.00000  0.15118
       2     C     3.10090  3.10090  0.00000 -0.20179
       3     C     3.05801  3.05801  0.00000 -0.11602
       4     C     3.06157  3.06157  0.00000 -0.12314
       5     H     0.42300  0.42300  0.00000  0.15400
       6     C     3.11145  3.11145  0.00000 -0.22289
       7     H     0.42359  0.42359  0.00000  0.15281
       8     C     3.14355  3.14355  0.00000 -0.28709
       9     H     0.42092  0.42092  0.00000  0.15816
      10     C     2.85059  2.85059  0.00000  0.29883
      11     H     0.42254  0.42254  0.00000  0.15491
      12     O     4.15116  4.15116  0.00000 -0.30232
      13     C     3.04474  3.04474  0.00000 -0.08949
      14     H     0.46149  0.46149  0.00000  0.07701
      15     H     0.43918  0.43918  0.00000  0.12164
      16     H     0.46291  0.46291  0.00000  0.07419

   Total alpha = 29.00000, Total beta = 29.00000, Total charge = -0.00000

*** Psi4 exiting successfully. Buy a developer a beer!
