  ==> Input File <==

--------------------------------------------------------------------------
set {
	reference rhf
	basis 6-31G*
}

set_num_threads( 1 )
memory 2 gb

molecule MOL {
0 1

O	 0.749854	 1.307668	 -0.000040
C	 0.576249	 0.131685	 -0.000108
C	 -0.766779	 -0.556801	 -0.000461
O	 1.568443	 -0.749345	 -0.000005
C	 -1.945214	 0.412366	 0.000161
H	 -0.796911	 -1.211249	 -0.867467
H	 -0.796854	 -1.212390	 0.865687
C	 -3.287791	 -0.317055	 0.000105
H	 -1.876087	 1.060580	 -0.866812
H	 -1.875822	 1.059691	 0.867761
H	 -3.394745	 -0.949193	 -0.877058
H	 -4.111778	 0.388953	 0.000015
H	 -3.394954	 -0.949187	 0.877259
C	 1.211189	 -2.119592	 -0.000106
H	 0.633639	 -2.361724	 0.880434
H	 2.140912	 -2.666841	 0.000310
H	 0.634326	 -2.361879	 -0.881035

	symmetry c1
}
set optking {
	frozen_dihedral = ("
		1 2 3 6,
		9 5 3 6
	")
}

ee = energy('scf')
oeprop('DIPOLE', 'QUADRUPOLE', 'MULLIKEN_CHARGES')
f=open( 'psi4out.xyz', 'w' )
f.write( "17  " )
f.write( str(ee) + "\n" )
f.write( MOL.save_string_xyz() )
f.close()
--------------------------------------------------------------------------

    Molecular point group: c1

    Geometry (in Angstrom), charge = 0, multiplicity = 1:

       Center              X                  Y                   Z               Mass
    ------------   -----------------  -----------------  -----------------  -----------------
           O          1.008562926844     1.599019518060     0.000024083312    15.994914619560
           C          0.834957926844     0.423036518060    -0.000043916688    12.000000000000
           C         -0.508070073156    -0.265449481940    -0.000396916688    12.000000000000
           O          1.827151926844    -0.457993481940     0.000059083312    15.994914619560
           C         -1.686505073156     0.703717518060     0.000225083312    12.000000000000
           H         -0.538202073156    -0.919897481940    -0.867402916688     1.007825032070
           H         -0.538145073156    -0.921038481940     0.865751083312     1.007825032070
           C         -3.029082073156    -0.025703481940     0.000169083312    12.000000000000
           H         -1.617378073156     1.351931518060    -0.866747916688     1.007825032070
           H         -1.617113073156     1.351042518060     0.867825083312     1.007825032070
           H         -3.136036073156    -0.657841481940    -0.876993916688     1.007825032070
           H         -3.853069073156     0.680304518060     0.000079083312     1.007825032070
           H         -3.136245073156    -0.657835481940     0.877323083312     1.007825032070
           C          1.469897926844    -1.828240481940    -0.000041916688    12.000000000000
           H          0.892347926844    -2.070372481940     0.880498083312     1.007825032070
           H          2.399620926844    -2.375489481940     0.000374083312     1.007825032070
           H          0.893034926844    -2.070527481940    -0.880970916688     1.007825032070

  Charge       = 0
  Multiplicity = 1
  Basis Set: 6-31G*
  Basis Set:

    Orbital Energies (a.u.)
    -----------------------

    Doubly Occupied:

       1A    -20.609498     2A    -20.542979     3A    -11.375230
       4A    -11.297988     5A    -11.243147     6A    -11.226002
       7A    -11.219172     8A     -1.469492     9A     -1.369315
      10A     -1.084882    11A     -0.990095    12A     -0.978933
      13A     -0.845041    14A     -0.762195    15A     -0.708143
      16A     -0.703781    17A     -0.677337    18A     -0.636858
      19A     -0.603018    20A     -0.580639    21A     -0.570014
      22A     -0.549168    23A     -0.543607    24A     -0.499981
      25A     -0.490891    26A     -0.485134    27A     -0.449242
      28A     -0.429815

  @DF-RHF Final Energy:  -344.87873480563883

   => Energetics <=

    Nuclear Repulsion Energy =            317.7003564104351199
    One-Electron Energy =               -1099.2750366247198599
    Two-Electron Energy =                 436.6959454086452865
    DFT Exchange-Correlation Energy =       0.0000000000000000
    Empirical Dispersion Energy =           0.0000000000000000
    PCM Polarization Energy =               0.0000000000000000
    EFP Energy =                            0.0000000000000000
    Total Energy =                       -344.8787348056394535

  Mulliken Charges: (a.u.)
   Center  Symbol    Alpha    Beta     Spin     Total
       1     O     4.27394  4.27394  0.00000 -0.54789
       2     C     2.58758  2.58758  0.00000  0.82483
       3     C     3.24539  3.24539  0.00000 -0.49078
       4     O     4.30077  4.30077  0.00000 -0.60154
       5     C     3.14641  3.14641  0.00000 -0.29282
       6     H     0.40286  0.40286  0.00000  0.19428
       7     H     0.40288  0.40288  0.00000  0.19423
       8     C     3.24284  3.24284  0.00000 -0.48567
       9     H     0.40888  0.40888  0.00000  0.18223
      10     H     0.40890  0.40890  0.00000  0.18221
      11     H     0.42256  0.42256  0.00000  0.15489
      12     H     0.41355  0.41355  0.00000  0.17289
      13     H     0.42255  0.42255  0.00000  0.15491
      14     C     3.09955  3.09955  0.00000 -0.19909
      15     H     0.41368  0.41368  0.00000  0.17263
      16     H     0.39398  0.39398  0.00000  0.21205
      17     H     0.41368  0.41368  0.00000  0.17264

   Total alpha = 28.00000, Total beta = 28.00000, Total charge =  0.00000
