                              Psi4 1.0.54 Driver

  ==> Input File <==

--------------------------------------------------------------------------
set {
	reference rhf
	basis cc-pvtz
}

set_num_threads( 4 )
memory 2 gb

molecule MOL {
0 1

H	 1.000583	 -2.447585	 1.022331
C	 1.036375	 -1.515789	 1.602096
C	 -0.204505	 -0.669893	 1.528103
O	 2.005836	 -1.240914	 2.220339
C	 -0.554654	 -0.292621	 0.086567
H	 -0.057132	 0.209557	 2.141036
H	 -1.019314	 -1.249085	 1.957639
C	 -1.846385	 0.513195	 -0.016346
H	 0.263161	 0.280276	 -0.341109
H	 -0.645639	 -1.194685	 -0.513162
C	 -3.089953	 -0.365049	 -0.098564
H	 -1.798267	 1.154820	 -0.891143
H	 -1.925398	 1.173265	 0.842889
H	 -3.055079	 -1.012299	 -0.968245
H	 -3.988403	 0.236438	 -0.170014
H	 -3.183055	 -0.995885	 0.779079

	symmetry c1
}
set optking {
	frozen_dihedral = ("
		9 5 8 12
	")
}

ee,wfn = optimize('scf', return_wfn=True)
oeprop( wfn, 'DIPOLE', 'QUADRUPOLE', 'MULLIKEN_CHARGES')
f=open( 'psi4out.xyz', 'w' )
f.write( "16  " )
f.write( str(ee) + "\n" )
f.write( MOL.save_string_xyz() )
f.close()
--------------------------------------------------------------------------

    Molecular point group: c1
  Charge       = 0
  Multiplicity = 1
  Basis Set: CC-PVTZ
  Basis Set:
  @DF-RHF Final Energy:  -270.11621235967004
    Total Energy =                       -270.1162123596702713
    Molecular point group: c1
  Basis Set: CC-PVTZ
  Basis Set:
  Basis Set: CC-PVTZ
  Basis Set:
  @DF-RHF Final Energy:  -270.11641160313212
    Total Energy =                       -270.1164116031321782
  Basis Set: CC-PVTZ
  Basis Set:
  Basis Set: CC-PVTZ
  Basis Set:
  @DF-RHF Final Energy:  -270.11617075225575
    Total Energy =                       -270.1161707522555844
  Basis Set: CC-PVTZ
  Basis Set:
  Basis Set: CC-PVTZ
  Basis Set:
  @DF-RHF Final Energy:  -270.11645724136577
    Total Energy =                       -270.1164572413655378
  Basis Set: CC-PVTZ
  Basis Set:
  Basis Set: CC-PVTZ
  Basis Set:
  @DF-RHF Final Energy:  -270.11646231847612
    Total Energy =                       -270.1164623184760103
  Basis Set: CC-PVTZ
  Basis Set:
  Basis Set: CC-PVTZ
  Basis Set:
  @DF-RHF Final Energy:  -270.11646715198964
    Total Energy =                       -270.1164671519895251
  Basis Set: CC-PVTZ
  Basis Set:
  Charge       = 0
  Multiplicity = 1
  Basis Set: CC-PVTZ
  Basis Set:

    Orbital Energies (a.u.)
    -----------------------

    Doubly Occupied:

       1A    -20.552081     2A    -11.321263     3A    -11.234699
       4A    -11.234053     5A    -11.227557     6A    -11.218379
       7A     -1.406850     8A     -1.097284     9A     -1.018114
      10A     -0.912184    11A     -0.810524    12A     -0.794124
      13A     -0.680684    14A     -0.645431    15A     -0.635311
      16A     -0.607256    17A     -0.574270    18A     -0.565808
      19A     -0.526346    20A     -0.517229    21A     -0.488846
      22A     -0.483628    23A     -0.472155    24A     -0.411805

  @DF-RHF Final Energy:  -270.11646745262988

   => Energetics <=

    Nuclear Repulsion Energy =            231.3529079636052188
    One-Electron Energy =                -824.0669840984076018
    Two-Electron Energy =                 322.5976086821725062
    DFT Exchange-Correlation Energy =       0.0000000000000000
    Empirical Dispersion Energy =           0.0000000000000000
    PCM Polarization Energy =               0.0000000000000000
    EFP Energy =                            0.0000000000000000
    Total Energy =                       -270.1164674526298199
    Molecular point group: c1
  Basis Set: CC-PVTZ
  Basis Set:

  -Total Gradient:
     Atom            X                  Y                   Z
    ------   -----------------  -----------------  -----------------
       1       -0.000000218666     0.000013099570    -0.000000769344
       2       -0.000002926396    -0.000024889232    -0.000004471601
       3        0.000002318970     0.000010471831    -0.000043467273
       4       -0.000011270592     0.000006097075     0.000007542175
       5        0.000750954560     0.002123538707     0.003712563936
       6       -0.000007146887     0.000008442880     0.000001274988
       7        0.000002453943    -0.000012222428     0.000017378836
       8       -0.001431066108    -0.003073118353    -0.002668520707
       9       -0.000410959420    -0.001281751128    -0.002678056077
      10       -0.000010615167    -0.000001544720    -0.000001212486
      11        0.000016875434    -0.000010105989     0.000003631736
      12        0.001089871791     0.002228501395     0.001646032668
      13        0.000006513509     0.000004383402     0.000008124466
      14       -0.000001295656     0.000000555704    -0.000004340507
      15        0.000004784534     0.000009432838     0.000004702728
      16        0.000001726153    -0.000000891551    -0.000000413537

  **** Optimization is complete! (in 7 steps) ****
    Final optimized geometry and variables:
    Molecular point group: c1

    Geometry (in Angstrom), charge = 0, multiplicity = 1:

    H            1.443388311511    -1.835391598821     0.192847157325
    C            1.470842338898    -0.895155484389     0.759197100679
    C            0.232427442585    -0.049109381641     0.652379007397
    O            2.430248992864    -0.611706109227     1.389149355268
    C           -0.081440733108     0.320833688618    -0.799799553393
    H            0.367411491052     0.835512722912     1.260483251325
    H           -0.589215272913    -0.625734760841     1.070691078607
    C           -1.401588175934     1.082805747834    -0.966941050742
    H            0.733580863887     0.908810330331    -1.207934632956
    H           -0.117155545606    -0.583944294052    -1.402239456011
    C           -2.630988716557     0.184326466575    -1.051348989226
    H           -1.340522967102     1.706373387198    -1.852038742250
    H           -1.517611876434     1.774592641988    -0.137221147408
    H           -2.576429573975    -0.469212287545    -1.915279721217
    H           -3.536413909130     0.773205680499    -1.138357430728
    H           -2.732485046810    -0.440429935099    -0.170643595030

  Mulliken Charges: (a.u.)
   Center  Symbol    Alpha    Beta     Spin     Total
       1     H     0.46494  0.46494  0.00000  0.07011
       2     C     2.90849  2.90849  0.00000  0.18302
       3     C     3.07750  3.07750  0.00000 -0.15499
       4     O     4.16375  4.16375  0.00000 -0.32749
       5     C     3.10915  3.10915  0.00000 -0.21831
       6     H     0.44218  0.44218  0.00000  0.11565
       7     H     0.45076  0.45076  0.00000  0.09848
       8     C     3.09055  3.09055  0.00000 -0.18109
       9     H     0.43888  0.43888  0.00000  0.12224
      10     H     0.45323  0.45323  0.00000  0.09353
      11     C     3.14796  3.14796  0.00000 -0.29592
      12     H     0.44483  0.44483  0.00000  0.11035
      13     H     0.45313  0.45313  0.00000  0.09374
      14     H     0.45379  0.45379  0.00000  0.09241
      15     H     0.44541  0.44541  0.00000  0.10919
      16     H     0.45546  0.45546  0.00000  0.08908

   Total alpha = 24.00000, Total beta = 24.00000, Total charge = -0.00000

*** Psi4 exiting successfully. Buy a developer a beer!
