  ==> Input File <==

--------------------------------------------------------------------------
set {
	reference rhf
	basis 6-31G*
}

set_num_threads( 4 )
memory 2 gb

molecule MOL {
0 1

H	 -2.798360	 -0.862255	 -0.071053
N	 -1.863561	 -0.715187	 0.256814
C	 -1.344686	 0.554728	 -0.219830
H	 -1.300452	 -1.461917	 -0.101532
C	 0.081427	 0.741154	 0.254071
H	 -1.362155	 0.656231	 -1.305829
H	 -1.952773	 1.354456	 0.191809
O	 0.874168	 -0.245412	 -0.342030
H	 0.444037	 1.730782	 -0.023037
H	 0.121165	 0.653424	 1.337565
C	 0.801165	 -1.491092	 0.274834
H	 1.450485	 -2.164505	 -0.267933
H	 1.132464	 -1.442323	 1.310616
H	 -0.212567	 -1.885762	 0.254998

	symmetry c1
}
set optking {
	frozen_dihedral = ("
		11 8 5 3
	")
}

ee = optimize('scf')
oeprop('DIPOLE', 'QUADRUPOLE', 'MULLIKEN_CHARGES')
f=open( 'psi4out.xyz', 'w' )
f.write( "14  " )
f.write( str(ee) + "\n" )
f.write( MOL.save_string_xyz() )
f.close()
--------------------------------------------------------------------------

    Molecular point group: c1
  Charge       = 0
  Multiplicity = 1
  Basis Set: 6-31G*
  Basis Set:
  @DF-RHF Final Energy:  -248.08915880266605
    Total Energy =                       -248.0891588026663612
    Molecular point group: c1
  Basis Set: 6-31G*
  Basis Set:
  Basis Set: 6-31G*
  Basis Set:
  @DF-RHF Final Energy:  -248.10986017424091
    Total Energy =                       -248.1098601742409073
  Basis Set: 6-31G*
  Basis Set:
  Basis Set: 6-31G*
  Basis Set:
  @DF-RHF Final Energy:  -248.11620874055745
    Total Energy =                       -248.1162087405574539
  Basis Set: 6-31G*
  Basis Set:
  Basis Set: 6-31G*
  Basis Set:
  @DF-RHF Final Energy:  -248.11692251866151
    Total Energy =                       -248.1169225186615677
  Basis Set: 6-31G*
  Basis Set:
  @DF-RHF Final Energy:  -248.11782623610335
    Total Energy =                       -248.1178262361034967
  @DF-RHF Final Energy:  -248.11808006273520
    Total Energy =                       -248.1180800627352028
  Basis Set: 6-31G*
  Basis Set:
  @DF-RHF Final Energy:  -248.11810227825742
    Total Energy =                       -248.1181022782573109
  Basis Set: 6-31G*
  Basis Set:
  Basis Set: 6-31G*
  Basis Set:
  @DF-RHF Final Energy:  -248.11810570525469
    Total Energy =                       -248.1181057052547203
  Basis Set: 6-31G*
  Basis Set:
  Basis Set: 6-31G*
  Basis Set:
  @DF-RHF Final Energy:  -248.11810678750609
    Total Energy =                       -248.1181067875062354
  Basis Set: 6-31G*
  Basis Set:
  Charge       = 0
  Multiplicity = 1
  Basis Set: 6-31G*
  Basis Set:

    Orbital Energies (a.u.)
    -----------------------

    Doubly Occupied:

       1A    -20.550284     2A    -15.539659     3A    -11.262853
       4A    -11.261067     5A    -11.244449     6A     -1.371583
       7A     -1.180591     8A     -1.000521     9A     -0.911016
      10A     -0.810646    11A     -0.688140    12A     -0.668302
      13A     -0.638583    14A     -0.620985    15A     -0.596814
      16A     -0.542563    17A     -0.534035    18A     -0.508597
      19A     -0.458725    20A     -0.417063    21A     -0.382161

  @DF-RHF Final Energy:  -248.11810736467029

   => Energetics <=

    Nuclear Repulsion Energy =            196.2701466593620410
    One-Electron Energy =                -726.3992280235654562
    Two-Electron Energy =                 282.0109739995330642
    DFT Exchange-Correlation Energy =       0.0000000000000000
    Empirical Dispersion Energy =           0.0000000000000000
    PCM Polarization Energy =               0.0000000000000000
    EFP Energy =                            0.0000000000000000
    Total Energy =                       -248.1181073646703794
    Molecular point group: c1
  Basis Set: 6-31G*
  Basis Set:

  -Total Gradient:
     Atom            X                  Y                   Z
    ------   -----------------  -----------------  -----------------
       1        0.000005839875     0.000012799642     0.000011908089
       2       -0.000009360235    -0.000027733479    -0.000004203188
       3       -0.000264703899    -0.000881782744     0.001067560657
       4       -0.000000393154    -0.000020913829    -0.000000613016
       5       -0.000166616814     0.001140989937    -0.002056375305
       6       -0.000000059842    -0.000007527833     0.000009563350
       7       -0.000000656447     0.000001826082    -0.000001272973
       8        0.001584266613     0.000276724108     0.002106949854
       9       -0.000002247525    -0.000018872407    -0.000023549747
      10        0.000019849645    -0.000010682028    -0.000012218491
      11       -0.001172135649    -0.000477081091    -0.001131003025
      12       -0.000013741043     0.000013082394    -0.000003526251
      13       -0.000001869333    -0.000006041012     0.000007357927
      14        0.000021827807     0.000005212260     0.000029422119

  **** Optimization is complete! (in 10 steps) ****
    Final optimized geometry and variables:
    Molecular point group: c1

    Geometry (in Angstrom), charge = 0, multiplicity = 1:

    H           -2.765020293114    -0.240343431772     0.194965227202
    N           -1.773198053965    -0.360952989284     0.260308423985
    C           -1.084485095718     0.794817368824    -0.301119911325
    H           -1.555323181987    -1.192997844664    -0.250414365725
    C            0.348785441307     0.937900840139     0.193127013685
    H           -1.081111706834     0.807916866262    -1.391318795347
    H           -1.618020083144     1.682568671590     0.025493755825
    O            1.261847336245     0.023422220540    -0.345327044578
    H            0.715960116781     1.914737842146    -0.099727272440
    H            0.355486972133     0.882186709356     1.279402909596
    C            1.290745298611    -1.260500724090     0.199141434420
    H            2.245843908552    -1.696719016106    -0.063054566509
    H            1.197579433544    -1.239079449824     1.281368536426
    H            0.506773367611    -1.897403414346    -0.198231066764

  Mulliken Charges: (a.u.)
   Center  Symbol    Alpha    Beta     Spin     Total
       1     H     0.32977  0.32977  0.00000  0.34045
       2     N     3.92695  3.92695  0.00000 -0.85390
       3     C     3.07804  3.07804  0.00000 -0.15608
       4     H     0.32918  0.32918  0.00000  0.34165
       5     C     2.98720  2.98720  0.00000  0.02559
       6     H     0.42395  0.42395  0.00000  0.15210
       7     H     0.42164  0.42164  0.00000  0.15672
       8     O     4.31026  4.31026  0.00000 -0.62053
       9     H     0.41824  0.41824  0.00000  0.16351
      10     H     0.42457  0.42457  0.00000  0.15087
      11     C     3.07369  3.07369  0.00000 -0.14738
      12     H     0.41561  0.41561  0.00000  0.16878
      13     H     0.42524  0.42524  0.00000  0.14953
      14     H     0.43565  0.43565  0.00000  0.12870

   Total alpha = 21.00000, Total beta = 21.00000, Total charge = -0.00000
