                              Psi4 1.0.54 Driver

  ==> Input File <==

--------------------------------------------------------------------------
set {
	reference rhf
	basis cc-pvtz
}

set_num_threads( 4 )
memory 2 gb

molecule MOL {
0 1

H	 -1.835082	 1.385983	 0.000069
C	 -1.300516	 0.441153	 -0.000028
O	 -0.006604	 0.654344	 -0.000106
O	 -1.828920	 -0.612308	 0.000113
C	 0.852093	 -0.482521	 -0.000161
C	 2.255361	 -0.000460	 0.281192
H	 0.783402	 -0.972022	 -0.961216
H	 0.510539	 -1.178237	 0.753021
H	 2.582596	 0.698022	 -0.478420
H	 2.935649	 -0.843677	 0.288052
H	 2.308357	 0.490798	 1.244429

	symmetry c1
}
set optking {
	frozen_dihedral = ("
		7 5 3 2
	")
}

ee,wfn = optimize('scf', return_wfn=True)
oeprop( wfn, 'DIPOLE', 'QUADRUPOLE', 'MULLIKEN_CHARGES')
f=open( 'psi4out.xyz', 'w' )
f.write( "11  " )
f.write( str(ee) + "\n" )
f.write( MOL.save_string_xyz() )
f.close()
--------------------------------------------------------------------------

    Molecular point group: c1
  Charge       = 0
  Multiplicity = 1
  Basis Set: CC-PVTZ
  Basis Set:
  @DF-RHF Final Energy:  -266.93168002414154
    Total Energy =                       -266.9316800241415422
    Molecular point group: c1
  Basis Set: CC-PVTZ
  Basis Set:
  Basis Set: CC-PVTZ
  Basis Set:
  @DF-RHF Final Energy:  -266.93168908005356
    Total Energy =                       -266.9316890800536726
  Basis Set: CC-PVTZ
  Basis Set:
  Basis Set: CC-PVTZ
  Basis Set:
  @DF-RHF Final Energy:  -266.93138727359593
    Total Energy =                       -266.9313872735959308
  Basis Set: CC-PVTZ
  Basis Set:
  Basis Set: CC-PVTZ
  Basis Set:
  @DF-RHF Final Energy:  -266.93170627873531
    Total Energy =                       -266.9317062787353052
  Basis Set: CC-PVTZ
  Basis Set:
  Charge       = 0
  Multiplicity = 1
  Basis Set: CC-PVTZ
  Basis Set:

    Orbital Energies (a.u.)
    -----------------------

    Doubly Occupied:

       1A    -20.605639     2A    -20.545654     3A    -11.370199
       4A    -11.289954     5A    -11.225074     6A     -1.479383
       7A     -1.377472     8A     -1.053880     9A     -0.903975
      10A     -0.805754    11A     -0.741123    12A     -0.693041
      13A     -0.682285    14A     -0.594370    15A     -0.578028
      16A     -0.558115    17A     -0.521551    18A     -0.513890
      19A     -0.463969    20A     -0.457799

  @DF-RHF Final Energy:  -266.93170855968447

   => Energetics <=

    Nuclear Repulsion Energy =            179.6270331362548234
    One-Electron Energy =                -720.1951759854998727
    Two-Electron Energy =                 273.6364342895606114
    DFT Exchange-Correlation Energy =       0.0000000000000000
    Empirical Dispersion Energy =           0.0000000000000000
    PCM Polarization Energy =               0.0000000000000000
    EFP Energy =                            0.0000000000000000
    Total Energy =                       -266.9317085596844663
    Molecular point group: c1
  Basis Set: CC-PVTZ
  Basis Set:

  -Total Gradient:
     Atom            X                  Y                   Z
    ------   -----------------  -----------------  -----------------
       1        0.000018783894    -0.000005687144    -0.000007713901
       2        0.000008198930     0.000009094662     0.000845687375
       3        0.000093146525     0.000129351252    -0.001269754166
       4        0.000056374587     0.000020566460    -0.000002755314
       5       -0.000856915844    -0.000683175224     0.000752931455
       6       -0.000012564594    -0.000001048321    -0.000006524515
       7        0.000700046571     0.000535462147    -0.000318905554
       8       -0.000004635748    -0.000003427881     0.000004138223
       9        0.000000161828    -0.000001985985     0.000002487272
      10        0.000001107001     0.000001194936    -0.000000394458
      11       -0.000003703148    -0.000000344901     0.000000803582

  **** Optimization is complete! (in 5 steps) ****
    Final optimized geometry and variables:
    Molecular point group: c1

    Geometry (in Angstrom), charge = 0, multiplicity = 1:

    H           -1.827170421792     1.392018391089    -0.047332700153
    C           -1.296201638218     0.445278943477    -0.058473119048
    O           -0.001572509283     0.654548335141    -0.052328551894
    O           -1.828846869485    -0.605884310877    -0.074742388682
    C            0.857905436946    -0.481778697168    -0.044266279239
    C            2.262208477171     0.004491350466     0.226664232513
    H            0.791658074956    -0.971599162807    -1.006195379585
    H            0.520815456219    -1.174653513931     0.711877526654
    H            2.581257516127     0.705688751387    -0.533905220668
    H            2.945385103033    -0.836482556563     0.226121990874
    H            2.321127111901     0.493813284775     1.190590052139

  Mulliken Charges: (a.u.)
   Center  Symbol    Alpha    Beta     Spin     Total
       1     H     0.44816  0.44816  0.00000  0.10368
       2     C     2.84587  2.84587  0.00000  0.30827
       3     O     4.14449  4.14449  0.00000 -0.28898
       4     O     4.19503  4.19503  0.00000 -0.39006
       5     C     2.97282  2.97282  0.00000  0.05436
       6     C     3.13305  3.13305  0.00000 -0.26609
       7     H     0.45446  0.45446  0.00000  0.09109
       8     H     0.45098  0.45098  0.00000  0.09803
       9     H     0.45029  0.45029  0.00000  0.09941
      10     H     0.45432  0.45432  0.00000  0.09136
      11     H     0.45053  0.45053  0.00000  0.09893

   Total alpha = 20.00000, Total beta = 20.00000, Total charge = -0.00000

*** Psi4 exiting successfully. Buy a developer a beer!
