                              Psi4 1.0.54 Driver

  ==> Input File <==

--------------------------------------------------------------------------
set {
	reference rhf
	basis cc-pvtz
}

set_num_threads( 4 )
memory 2 gb

molecule MOL {
0 1

O	 2.863217	 1.361754	 -0.187499
C	 2.833403	 0.178798	 -0.286672
C	 1.535068	 -0.602321	 -0.283086
C	 4.101837	 -0.632572	 -0.424435
C	 0.284546	 0.253615	 -0.140271
H	 1.500839	 -1.184594	 -1.201157
H	 1.595260	 -1.333739	 0.519666
C	 -0.996943	 -0.575177	 -0.141659
H	 0.255691	 0.978069	 -0.946155
H	 0.350296	 0.828898	 0.776168
C	 -2.258482	 0.271340	 0.000669
H	 -1.054943	 -1.151279	 -1.062538
H	 -0.960092	 -1.300830	 0.667866
C	 -3.544441	 -0.550271	 -0.000253
H	 -2.296334	 0.996851	 -0.808228
H	 -2.201804	 0.846995	 0.921286
C	 -4.804551	 0.308747	 0.000556
H	 -3.553737	 -1.201524	 -0.870151
H	 -3.553831	 -1.203282	 0.868313
H	 -4.842050	 0.949078	 -0.874436
H	 -5.698404	 -0.304480	 -0.000254
H	 -4.842277	 0.947103	 0.876982
H	 4.084814	 -1.199361	 -1.348831
H	 4.958712	 0.023237	 -0.416004
H	 4.179755	 -1.345484	 0.389031

	symmetry c1
}
set optking {
	frozen_dihedral = ("
		15 11 14 18
	")
}

ee,wfn = optimize('scf', return_wfn=True)
oeprop( wfn, 'DIPOLE', 'QUADRUPOLE', 'MULLIKEN_CHARGES')
f=open( 'psi4out.xyz', 'w' )
f.write( "25  " )
f.write( str(ee) + "\n" )
f.write( MOL.save_string_xyz() )
f.close()
--------------------------------------------------------------------------

    Molecular point group: c1
  Charge       = 0
  Multiplicity = 1
  Basis Set: CC-PVTZ
  Basis Set:
  @DF-RHF Final Energy:  -387.27454090279616
    Total Energy =                       -387.2745409027959340
    Molecular point group: c1
  Basis Set: CC-PVTZ
  Basis Set:
  Basis Set: CC-PVTZ
  Basis Set:
  @DF-RHF Final Energy:  -387.27455502272085
    Total Energy =                       -387.2745550227205058
  Basis Set: CC-PVTZ
  Basis Set:
  Basis Set: CC-PVTZ
  Basis Set:
  @DF-RHF Final Energy:  -387.27456107627671
    Total Energy =                       -387.2745610762767683
  Basis Set: CC-PVTZ
  Basis Set:
  Basis Set: CC-PVTZ
  Basis Set:
  @DF-RHF Final Energy:  -387.27452374604877
    Total Energy =                       -387.2745237460482031
  Basis Set: CC-PVTZ
  Basis Set:
  Charge       = 0
  Multiplicity = 1
  Basis Set: CC-PVTZ
  Basis Set:

    Orbital Energies (a.u.)
    -----------------------

    Doubly Occupied:

       1A    -20.538893     2A    -11.320537     3A    -11.230198
       4A    -11.226611     5A    -11.215328     6A    -11.214691
       7A    -11.213518     8A    -11.211488     9A    -11.206576
      10A     -1.398905    11A     -1.095200    12A     -1.057657
      13A     -1.015601    14A     -0.970238    15A     -0.891630
      16A     -0.814864    17A     -0.791572    18A     -0.731028
      19A     -0.662699    20A     -0.654352    21A     -0.632898
      22A     -0.626891    23A     -0.596819    24A     -0.585451
      25A     -0.567861    26A     -0.559757    27A     -0.541554
      28A     -0.527361    29A     -0.513138    30A     -0.491882
      31A     -0.490325    32A     -0.473618    33A     -0.464328
      34A     -0.462355    35A     -0.452942    36A     -0.401451

  @DF-RHF Final Energy:  -387.27456351954891

   => Energetics <=

    Nuclear Repulsion Energy =            439.1055357960702850
    One-Electron Energy =               -1395.0597629212854827
    Two-Electron Energy =                 568.6796636056660645
    DFT Exchange-Correlation Energy =       0.0000000000000000
    Empirical Dispersion Energy =           0.0000000000000000
    PCM Polarization Energy =               0.0000000000000000
    EFP Energy =                            0.0000000000000000
    Total Energy =                       -387.2745635195491332
    Molecular point group: c1
  Basis Set: CC-PVTZ
  Basis Set:

  -Total Gradient:
     Atom            X                  Y                   Z
    ------   -----------------  -----------------  -----------------
       1        0.000006082974     0.000090158943     0.000005861621
       2       -0.000027128303    -0.000083618705    -0.000000704894
       3       -0.000005225802     0.000001569537     0.000002647735
       4        0.000011452421     0.000004984059    -0.000001194000
       5       -0.000002388305     0.000008262879    -0.000009655776
       6       -0.000000124553    -0.000000613321    -0.000004437886
       7        0.000000136355    -0.000002678534     0.000001246051
       8        0.000028623843    -0.000015821742     0.000005748773
       9        0.000000540605     0.000007487340    -0.000003924922
      10        0.000001174622     0.000001519451     0.000007669473
      11        0.000676525295    -0.001051865406    -0.000712046683
      12       -0.000001677846    -0.000016209864    -0.000022561584
      13       -0.000001498967    -0.000017126177     0.000025746333
      14       -0.000726334110     0.001100697878    -0.000582594420
      15       -0.000463263234     0.000739410505     0.000692973545
      16       -0.000006336247    -0.000004493590    -0.000005965837
      17       -0.000010163061     0.000013130235     0.000008851551
      18        0.000511481536    -0.000787313965     0.000600975517
      19        0.000005779032     0.000001696662    -0.000003453942
      20       -0.000003785793     0.000022202572    -0.000031896852
      21       -0.000005916746    -0.000014929693     0.000001397194
      22       -0.000004740678     0.000015661159     0.000028058434
      23        0.000001369651    -0.000007332651    -0.000016747180
      24        0.000013500376     0.000004754385    -0.000000982459
      25        0.000001916939    -0.000009531955     0.000014990207

  **** Optimization is complete! (in 5 steps) ****
    Final optimized geometry and variables:
    Molecular point group: c1

    Geometry (in Angstrom), charge = 0, multiplicity = 1:

    O            2.868556523037     1.353682573167    -0.012579061055
    C            2.838627145148     0.171203530811    -0.117119183480
    C            1.539918395005    -0.609442643912    -0.122722735774
    C            4.107322517398    -0.640310008177    -0.252776654992
    C            0.289088921732     0.246503210838     0.017148366473
    H            1.510038485097    -1.188227561610    -1.043137065960
    H            1.595977411006    -1.343859468201     0.677614722475
    C           -0.992720028116    -0.581745557556     0.007216727356
    H            0.264076652743     0.973577363493    -0.786562798943
    H            0.350863153225     0.818821564051     0.935718630236
    C           -2.254457048958     0.264935349687     0.142435328838
    H           -1.045491743530    -1.157067145031    -0.914432064001
    H           -0.961233893040    -1.308144749627     0.816480780308
    C           -3.540985838728    -0.556183314193     0.157125244788
    H           -2.296997799541     0.987022299635    -0.669362880030
    H           -2.196579075081     0.850015110162     1.057240737557
    C           -4.801639167422     0.301074110149     0.178418347435
    H           -3.560193252228    -1.212816832546    -0.708614522206
    H           -3.536024343244    -1.209078478851     1.026059204635
    H           -4.859626156788     0.933639861822    -0.701092928576
    H           -5.694419671705    -0.313225802820     0.203464312006
    H           -4.820384885475     0.947110326357     1.049957540186
    H            4.093894514996    -1.203155226358    -1.179653426506
    H            4.964662408759     0.014866751642    -0.237942278567
    H            4.181242937806    -1.356628220432     0.558101709107

  Mulliken Charges: (a.u.)
   Center  Symbol    Alpha    Beta     Spin     Total
       1     O     4.17076  4.17076  0.00000 -0.34153
       2     C     2.86223  2.86223  0.00000  0.27554
       3     C     3.11399  3.11399  0.00000 -0.22799
       4     C     3.15125  3.15125  0.00000 -0.30250
       5     C     3.08298  3.08298  0.00000 -0.16596
       6     H     0.44560  0.44560  0.00000  0.10879
       7     H     0.44561  0.44561  0.00000  0.10878
       8     C     3.09008  3.09008  0.00000 -0.18016
       9     H     0.44601  0.44601  0.00000  0.10798
      10     H     0.44605  0.44605  0.00000  0.10789
      11     C     3.08630  3.08630  0.00000 -0.17260
      12     H     0.45594  0.45594  0.00000  0.08812
      13     H     0.45602  0.45602  0.00000  0.08796
      14     C     3.08430  3.08430  0.00000 -0.16860
      15     H     0.45408  0.45408  0.00000  0.09184
      16     H     0.45365  0.45365  0.00000  0.09269
      17     C     3.15024  3.15024  0.00000 -0.30049
      18     H     0.45561  0.45561  0.00000  0.08878
      19     H     0.45494  0.45494  0.00000  0.09013
      20     H     0.45482  0.45482  0.00000  0.09036
      21     H     0.44867  0.44867  0.00000  0.10266
      22     H     0.45468  0.45468  0.00000  0.09064
      23     H     0.45042  0.45042  0.00000  0.09917
      24     H     0.43535  0.43535  0.00000  0.12930
      25     H     0.45039  0.45039  0.00000  0.09922

   Total alpha = 36.00000, Total beta = 36.00000, Total charge = -0.00000

*** Psi4 exiting successfully. Buy a developer a beer!
