  ==> Input File <==

--------------------------------------------------------------------------
set {
	reference rhf
	basis cc-pvtz
}

set_num_threads( 4 )
memory 2 gb

molecule MOL {
0 1

H	 -3.268214	 -0.875720	 0.463107
C	 -2.806015	 0.000007	 0.024886
N	 -1.391133	 0.000016	 0.301321
H	 -3.029448	 0.000055	 -1.045738
H	 -3.268126	 0.875758	 0.463150
C	 -0.895464	 -1.317802	 0.634854
C	 -1.029874	 0.959514	 1.322295
H	 -1.369667	 -1.704512	 1.541737
H	 -1.134507	 -1.997522	 -0.174419
C	 0.607981	 -1.290157	 0.837099
H	 -1.367034	 1.942322	 1.014885
H	 -1.513236	 0.728044	 2.276040
C	 0.473571	 0.987159	 1.524539
H	 0.945140	 -2.272965	 1.144509
H	 1.091343	 -1.058686	 -0.116647
N	 0.969240	 -0.330659	 1.858073
H	 0.712614	 1.666879	 2.333813
H	 0.947774	 1.373870	 0.617656
C	 2.384122	 -0.330650	 2.134508
H	 2.701168	 -1.320172	 2.439287
H	 2.602310	 0.353893	 2.944666
H	 2.985546	 -0.034274	 1.270443

	symmetry c1
}
set optking {
	frozen_dihedral = ("
		6 3 2 4
	")
}

ee = optimize('scf')
oeprop('DIPOLE', 'QUADRUPOLE', 'MULLIKEN_CHARGES')
f=open( 'psi4out.xyz', 'w' )
f.write( "22  " )
f.write( str(ee) + "\n" )
f.write( MOL.save_string_xyz() )
f.close()
--------------------------------------------------------------------------

    Molecular point group: c1
  Charge       = 0
  Multiplicity = 1
  Basis Set: CC-PVTZ
  Basis Set:
  @DF-RHF Final Energy:  -344.34501303186954
    Total Energy =                       -344.3450130318694846
    Molecular point group: c1
  Basis Set: CC-PVTZ
  Basis Set:
  Basis Set: CC-PVTZ
  Basis Set:
  @DF-RHF Final Energy:  -344.34562199543001
    Total Energy =                       -344.3456219954298376
  Basis Set: CC-PVTZ
  Basis Set:
  Basis Set: CC-PVTZ
  Basis Set:
  @DF-RHF Final Energy:  -344.34572370271133
    Total Energy =                       -344.3457237027110978
  Basis Set: CC-PVTZ
  Basis Set:
  Basis Set: CC-PVTZ
  Basis Set:
  @DF-RHF Final Energy:  -344.34572658697755
    Total Energy =                       -344.3457265869775483
  Basis Set: CC-PVTZ
  Basis Set:
  Charge       = 0
  Multiplicity = 1
  Basis Set: CC-PVTZ
  Basis Set:

    Orbital Energies (a.u.)
    -----------------------

    Doubly Occupied:

       1A    -15.537124     2A    -15.536086     3A    -11.237311
       4A    -11.237234     5A    -11.236438     6A    -11.236424
       7A    -11.233970     8A    -11.233869     9A     -1.255671
      10A     -1.204119    11A     -1.025234    12A     -0.992062
      13A     -0.912517    14A     -0.867212    15A     -0.836711
      16A     -0.755570    17A     -0.666151    18A     -0.636253
      19A     -0.631200    20A     -0.625003    21A     -0.621765
      22A     -0.581453    23A     -0.550629    24A     -0.549606
      25A     -0.541797    26A     -0.520172    27A     -0.497692
      28A     -0.487819    29A     -0.464913    30A     -0.456239
      31A     -0.351459    32A     -0.346137

  @DF-RHF Final Energy:  -344.34572690358203

   => Energetics <=

    Nuclear Repulsion Energy =            421.5789187741921182
    One-Electron Energy =               -1302.1176073603269288
    Two-Electron Energy =                 536.1929616825526637
    DFT Exchange-Correlation Energy =       0.0000000000000000
    Empirical Dispersion Energy =           0.0000000000000000
    PCM Polarization Energy =               0.0000000000000000
    EFP Energy =                            0.0000000000000000
    Total Energy =                       -344.3457269035822037
    Molecular point group: c1
  Basis Set: CC-PVTZ
  Basis Set:

  -Total Gradient:
     Atom            X                  Y                   Z
    ------   -----------------  -----------------  -----------------
       1        0.000002558104     0.000004454485     0.000011846686
       2       -0.000177083643    -0.005053318284     0.001093405377
       3        0.000846905223     0.000360084055    -0.004113126103
       4       -0.000019364231     0.004147440387     0.000024333269
       5       -0.000008520565     0.000006785350     0.000014791664
       6       -0.000646476904     0.000576813785     0.002987915913
       7       -0.000016714202    -0.000027507982    -0.000050174577
       8       -0.000006506532    -0.000003557402     0.000006387862
       9        0.000001903814    -0.000006733875     0.000004958952
      10        0.000013720738    -0.000019396227     0.000000577644
      11        0.000002119559    -0.000001238519     0.000006102212
      12       -0.000004619278    -0.000000650425     0.000005430520
      13        0.000019217786     0.000017936248    -0.000001226593
      14        0.000003152851    -0.000000954796     0.000001867426
      15       -0.000003184191    -0.000000660384    -0.000000986715
      16       -0.000008267234    -0.000002078375     0.000002860105
      17        0.000001804023    -0.000000582638     0.000001972055
      18       -0.000001792245     0.000000870995    -0.000000323007
      19       -0.000001146461     0.000002645005     0.000003704737
      20        0.000001090411     0.000000136318    -0.000000263753
      21        0.000002451921    -0.000000179407    -0.000000192930
      22       -0.000001248938    -0.000000308313     0.000000139256

  **** Optimization is complete! (in 5 steps) ****
    Final optimized geometry and variables:
    Molecular point group: c1

    Geometry (in Angstrom), charge = 0, multiplicity = 1:

    H           -3.120748735537    -0.692373286274    -0.634565346608
    C           -2.605262145046     0.159318402701    -1.072319593862
    N           -1.184553127978     0.166561658250    -0.771467134103
    H           -2.774600895853     0.162951446524    -2.143419808539
    H           -3.076536415675     1.053529623927    -0.682951251916
    C           -0.684128423222    -1.149741478099    -0.435383255298
    C           -0.821128133199     1.120232956435     0.257093890923
    H           -1.153824409423    -1.531681449302     0.475387628598
    H           -0.927155372358    -1.834790110337    -1.239630901450
    C            0.820338463756    -1.123912078432    -0.242882732229
    H           -1.156697574689     2.105458878553    -0.042403164906
    H           -1.296556335529     0.884368063038     1.213640680018
    C            0.683805905992     1.150685086010     0.449433681210
    H            1.158316149785    -2.107388315046     0.062187000563
    H            1.297999512205    -0.892715536608    -1.199637766321
    N            1.187666287995    -0.165360270566     0.776339042447
    H            0.926096358058     1.829942831832     1.258385830878
    H            1.149389318120     1.541359706738    -0.460387891758
    C            2.604540256041    -0.160647524393     1.040855016674
    H            2.927932337578    -1.149769448532     1.340520570510
    H            2.827168276137     0.522821477803     1.850821199353
    H            3.197800476339     0.139990538284     0.172498704516

  Mulliken Charges: (a.u.)
   Center  Symbol    Alpha    Beta     Spin     Total
       1     H     0.46372  0.46372  0.00000  0.07256
       2     C     3.09404  3.09404  0.00000 -0.18808
       3     N     3.61630  3.61630  0.00000 -0.23261
       4     H     0.44953  0.44953  0.00000  0.10094
       5     H     0.45824  0.45824  0.00000  0.08353
       6     C     3.03639  3.03639  0.00000 -0.07279
       7     C     3.03476  3.03476  0.00000 -0.06951
       8     H     0.46762  0.46762  0.00000  0.06476
       9     H     0.45322  0.45322  0.00000  0.09356
      10     C     3.03708  3.03708  0.00000 -0.07416
      11     H     0.45372  0.45372  0.00000  0.09256
      12     H     0.46830  0.46830  0.00000  0.06340
      13     C     3.03686  3.03686  0.00000 -0.07372
      14     H     0.45403  0.45403  0.00000  0.09194
      15     H     0.46834  0.46834  0.00000  0.06332
      16     N     3.61285  3.61285  0.00000 -0.22569
      17     H     0.45401  0.45401  0.00000  0.09198
      18     H     0.46851  0.46851  0.00000  0.06298
      19     C     3.09843  3.09843  0.00000 -0.19686
      20     H     0.45200  0.45200  0.00000  0.09601
      21     H     0.45201  0.45201  0.00000  0.09598
      22     H     0.47005  0.47005  0.00000  0.05990

   Total alpha = 32.00000, Total beta = 32.00000, Total charge =  0.00000
