  ==> Input File <==

--------------------------------------------------------------------------
set {
	reference rhf
	basis 6-31G*
}

set_num_threads( 4 )
memory 2 gb

molecule MOL {
0 1

H	 -2.900839	 -0.714609	 -1.032411
O	 -2.310168	 -0.871793	 -0.309793
C	 -2.026376	 0.340750	 0.341611
C	 -0.673256	 0.843270	 -0.132153
H	 -2.792215	 1.080697	 0.115987
H	 -2.013526	 0.200402	 1.421792
C	 0.486613	 -0.083066	 0.235839
H	 -0.715586	 0.970948	 -1.210718
H	 -0.508072	 1.829858	 0.297090
C	 1.840406	 0.433480	 -0.254303
H	 0.300215	 -1.068318	 -0.178947
H	 0.519509	 -0.203625	 1.318070
C	 3.000220	 -0.489290	 0.118523
H	 1.809207	 0.553576	 -1.335192
H	 2.021860	 1.424500	 0.157276
H	 2.864959	 -1.479103	 -0.307933
H	 3.946603	 -0.099227	 -0.243630
H	 3.080049	 -0.602997	 1.196117

	symmetry c1
}
set optking {
	frozen_dihedral = ("
		1 2 3 4
	")
}

ee = optimize('scf')
oeprop('DIPOLE', 'QUADRUPOLE', 'MULLIKEN_CHARGES')
f=open( 'psi4out.xyz', 'w' )
f.write( "18  " )
f.write( str(ee) + "\n" )
f.write( MOL.save_string_xyz() )
f.close()
--------------------------------------------------------------------------

    Molecular point group: c1
  Charge       = 0
  Multiplicity = 1
  Basis Set: 6-31G*
  Basis Set:
  @DF-RHF Final Energy:  -271.17738857427344
    Total Energy =                       -271.1773885742733228
    Molecular point group: c1
  Basis Set: 6-31G*
  Basis Set:
  Basis Set: 6-31G*
  Basis Set:
  @DF-RHF Final Energy:  -271.17830122834482
    Total Energy =                       -271.1783012283448215
  Basis Set: 6-31G*
  Basis Set:
  Basis Set: 6-31G*
  Basis Set:
  @DF-RHF Final Energy:  -271.17847933317245
    Total Energy =                       -271.1784793331722767
  Basis Set: 6-31G*
  Basis Set:
  Charge       = 0
  Multiplicity = 1
  Basis Set: 6-31G*
  Basis Set:

    Orbital Energies (a.u.)
    -----------------------

    Doubly Occupied:

       1A    -20.552425     2A    -11.268351     3A    -11.212921
       4A    -11.211922     5A    -11.207346     6A    -11.205193
       7A     -1.358716     8A     -1.075496     9A     -1.008701
      10A     -0.913998    11A     -0.823116    12A     -0.788283
      13A     -0.692703    14A     -0.649695    15A     -0.611242
      16A     -0.595347    17A     -0.574314    18A     -0.550248
      19A     -0.529214    20A     -0.500930    21A     -0.489934
      22A     -0.469189    23A     -0.459404    24A     -0.451279
      25A     -0.423511

  @DF-RHF Final Energy:  -271.17847862804689

   => Energetics <=

    Nuclear Repulsion Energy =            248.6457268713519966
    One-Electron Energy =                -860.4014577453057200
    Two-Electron Energy =                 340.5772522459068909
    DFT Exchange-Correlation Energy =       0.0000000000000000
    Empirical Dispersion Energy =           0.0000000000000000
    PCM Polarization Energy =               0.0000000000000000
    EFP Energy =                            0.0000000000000000
    Total Energy =                       -271.1784786280468893
    Molecular point group: c1
  Basis Set: 6-31G*
  Basis Set:

  -Total Gradient:
     Atom            X                  Y                   Z
    ------   -----------------  -----------------  -----------------
       1       -0.001384637790    -0.000159964629     0.001080992966
       2        0.001745822976     0.000061143766    -0.000978613501
       3       -0.000827389583     0.000712242369    -0.000765302170
       4        0.000538024602    -0.000469411123     0.000791014185
       5       -0.000020513154    -0.000089410878    -0.000024937649
       6       -0.000056898465    -0.000056060468    -0.000011177874
       7       -0.000029939524    -0.000090834005    -0.000038818425
       8        0.000019108388    -0.000014866008    -0.000037814364
       9        0.000008139747    -0.000019168094    -0.000057022239
      10        0.000027326472     0.000049875739     0.000067208454
      11        0.000011488495     0.000056968046    -0.000051457548
      12       -0.000028767137     0.000004375255    -0.000000311046
      13       -0.000001391287     0.000012194079     0.000015542387
      14       -0.000016746104    -0.000028482107     0.000023061243
      15        0.000015324163     0.000031012965    -0.000013694142
      16       -0.000005675556    -0.000000714407     0.000000333384
      17        0.000000822443     0.000001433487     0.000000447973
      18        0.000005901314    -0.000000333986     0.000000548367

  **** Optimization is complete! (in 4 steps) ****
    Final optimized geometry and variables:
    Molecular point group: c1

    Geometry (in Angstrom), charge = 0, multiplicity = 1:

    H           -2.938673942144    -0.767622077931    -0.981547063089
    O           -2.346207228799    -0.899758664843    -0.257079093655
    C           -2.022461092470     0.339016040825     0.329813534132
    C           -0.664641692282     0.853178241527    -0.131963001605
    H           -2.794104047653     1.074991135178     0.117788360225
    H           -2.012805095613     0.186729128463     1.403711464916
    C            0.489575905788    -0.081198556524     0.231166338499
    H           -0.691482860805     1.000702087819    -1.210370157080
    H           -0.499501401133     1.833677818140     0.312587276964
    C            1.849853194869     0.433452879355    -0.242845296629
    H            0.300091961823    -1.060955711137    -0.195776072753
    H            0.513583050894    -0.215092859431     1.311868796940
    C            3.002156642030    -0.498114688279     0.131397628369
    H            1.828719521280     0.563508927306    -1.322941410944
    H            2.032342806655     1.419942828737     0.179024503152
    H            2.864921085951    -1.484135753202    -0.303211823468
    H            3.953117481817    -0.110217725759    -0.220904760452
    H            3.073328936684    -0.620223542873     1.208560567050

  Mulliken Charges: (a.u.)
   Center  Symbol    Alpha    Beta     Spin     Total
       1     H     0.28038  0.28038  0.00000  0.43924
       2     O     4.37084  4.37084  0.00000 -0.74167
       3     C     3.00146  3.00146  0.00000 -0.00291
       4     C     3.15852  3.15852  0.00000 -0.31704
       5     H     0.42853  0.42853  0.00000  0.14294
       6     H     0.41944  0.41944  0.00000  0.16112
       7     C     3.15299  3.15299  0.00000 -0.30597
       8     H     0.42525  0.42525  0.00000  0.14951
       9     H     0.42569  0.42569  0.00000  0.14862
      10     C     3.15134  3.15134  0.00000 -0.30269
      11     H     0.40902  0.40902  0.00000  0.18196
      12     H     0.42552  0.42552  0.00000  0.14896
      13     C     3.23892  3.23892  0.00000 -0.47784
      14     H     0.42383  0.42383  0.00000  0.15233
      15     H     0.42500  0.42500  0.00000  0.14999
      16     H     0.42087  0.42087  0.00000  0.15825
      17     H     0.42042  0.42042  0.00000  0.15916
      18     H     0.42198  0.42198  0.00000  0.15605

   Total alpha = 25.00000, Total beta = 25.00000, Total charge = -0.00000
