  ==> Input File <==

--------------------------------------------------------------------------
set {
	reference rhf
	basis 6-31G*
}

set_num_threads( 4 )
memory 2 gb

molecule MOL {
0 1

O	 -2.734764	 -0.392883	 0.690067
C	 -1.921153	 0.064240	 -0.045697
C	 -2.207468	 0.603811	 -1.420918
O	 -0.632575	 0.154573	 0.251549
H	 -1.634356	 0.052310	 -2.157354
H	 -3.262719	 0.516421	 -1.632213
H	 -1.901983	 1.642180	 -1.477701
C	 0.160891	 -1.019931	 0.106212
C	 1.589627	 -0.672828	 0.480843
H	 0.089836	 -1.367806	 -0.916050
H	 -0.238459	 -1.792301	 0.749618
C	 2.246377	 0.346236	 -0.452210
H	 2.163194	 -1.597435	 0.473358
H	 1.604769	 -0.303424	 1.502885
C	 3.691736	 0.652107	 -0.061850
H	 2.219579	 -0.032311	 -1.472055
H	 1.666466	 1.263317	 -0.447249
H	 4.134505	 1.377213	 -0.737283
H	 4.305508	 -0.243868	 -0.089969
H	 3.748266	 1.059562	 0.943567

	symmetry c1
}
set optking {
	frozen_dihedral = ("
		1 2 4 8
	")
}

ee = optimize('scf')
oeprop('DIPOLE', 'QUADRUPOLE', 'MULLIKEN_CHARGES')
f=open( 'psi4out.xyz', 'w' )
f.write( "20  " )
f.write( str(ee) + "\n" )
f.write( MOL.save_string_xyz() )
f.close()
--------------------------------------------------------------------------

    Molecular point group: c1
  Charge       = 0
  Multiplicity = 1
  Basis Set: 6-31G*
  Basis Set:
  @DF-RHF Final Energy:  -383.92622772005205
    Total Energy =                       -383.9262277200523386
    Molecular point group: c1
  Basis Set: 6-31G*
  Basis Set:
  Basis Set: 6-31G*
  Basis Set:
  @DF-RHF Final Energy:  -383.92463576134463
    Total Energy =                       -383.9246357613446889
  Basis Set: 6-31G*
  Basis Set:
  Basis Set: 6-31G*
  Basis Set:
  @DF-RHF Final Energy:  -383.92725345307332
    Total Energy =                       -383.9272534530733765
  Basis Set: 6-31G*
  Basis Set:
  Basis Set: 6-31G*
  Basis Set:
  @DF-RHF Final Energy:  -383.92752250045248
    Total Energy =                       -383.9275225004528238
  Basis Set: 6-31G*
  Basis Set:
  Basis Set: 6-31G*
  Basis Set:
  @DF-RHF Final Energy:  -383.92752986444054
    Total Energy =                       -383.9275298644402028
  Basis Set: 6-31G*
  Basis Set:
  Basis Set: 6-31G*
  Basis Set:
  @DF-RHF Final Energy:  -383.92753419698801
    Total Energy =                       -383.9275341969881765
  Basis Set: 6-31G*
  Basis Set:
  Charge       = 0
  Multiplicity = 1
  Basis Set: 6-31G*
  Basis Set:

    Orbital Energies (a.u.)
    -----------------------

    Doubly Occupied:

       1A    -20.583665     2A    -20.556140     3A    -11.377261
       4A    -11.292189     5A    -11.236771     6A    -11.227518
       7A    -11.221930     8A    -11.214206     9A     -1.458378
      10A     -1.366264    11A     -1.085006    12A     -1.023497
      13A     -0.987744    14A     -0.881615    15A     -0.810973
      16A     -0.776919    17A     -0.694112    18A     -0.685233
      19A     -0.650389    20A     -0.635501    21A     -0.614956
      22A     -0.593004    23A     -0.576865    24A     -0.559945
      25A     -0.547090    26A     -0.530712    27A     -0.499910
      28A     -0.486477    29A     -0.478527    30A     -0.474418
      31A     -0.447353    32A     -0.437406

  @DF-RHF Final Energy:  -383.92753408587862

   => Energetics <=

    Nuclear Repulsion Energy =            384.4312625588059973
    One-Electron Energy =               -1284.6936476084333663
    Two-Electron Energy =                 516.3348509637487496
    DFT Exchange-Correlation Energy =       0.0000000000000000
    Empirical Dispersion Energy =           0.0000000000000000
    PCM Polarization Energy =               0.0000000000000000
    EFP Energy =                            0.0000000000000000
    Total Energy =                       -383.9275340858786194
    Molecular point group: c1
  Basis Set: 6-31G*
  Basis Set:

  -Total Gradient:
     Atom            X                  Y                   Z
    ------   -----------------  -----------------  -----------------
       1       -0.000674073692     0.004289394057     0.001579534742
       2        0.001311543243    -0.005808696702    -0.004000122917
       3       -0.000003387440    -0.000047486786    -0.000006266595
       4       -0.001252513293     0.000784561238     0.006072985506
       5        0.000000728680    -0.000018763256     0.000005323256
       6       -0.000009741225     0.000003117224    -0.000033286642
       7        0.000006534422    -0.000022187510    -0.000002637181
       8        0.000658588096     0.000807329741    -0.003590730875
       9       -0.000018910017     0.000018473361    -0.000016092196
      10        0.000011548106    -0.000005062223    -0.000000322468
      11       -0.000021385449     0.000002487973     0.000002382458
      12        0.000013099401    -0.000022034700     0.000002527431
      13       -0.000029843352    -0.000008362065    -0.000015077123
      14        0.000015942906    -0.000005612493     0.000005011188
      15       -0.000005337188     0.000024112318     0.000009686976
      16        0.000009077105    -0.000000929384    -0.000000784748
      17       -0.000014149821     0.000002630980    -0.000019247035
      18        0.000000759737     0.000006490963     0.000006185615
      19       -0.000006220088     0.000002049509    -0.000005232646
      20        0.000007739871    -0.000001512245     0.000006163253

  **** Optimization is complete! (in 7 steps) ****
    Final optimized geometry and variables:
    Molecular point group: c1

    Geometry (in Angstrom), charge = 0, multiplicity = 1:

    O           -2.722831733241    -0.346834242292     0.771640321913
    C           -1.949073395863     0.082678009041    -0.011534764450
    C           -2.315459429806     0.634000848002    -1.362844306211
    O           -0.632285974408     0.199346639620     0.267779705053
    H           -1.758398597109     0.118892991682    -2.138345241868
    H           -3.376013446270     0.526763121737    -1.536423920072
    H           -2.035894233754     1.680887517875    -1.406707446885
    C            0.153490900348    -0.980568453895     0.162350069203
    C            1.581475974549    -0.645653464343     0.549279808308
    H            0.109746326378    -1.351438318937    -0.858879888582
    H           -0.257345645354    -1.737321201567     0.819729965866
    C            2.255186662849     0.362471479898    -0.382846814146
    H            2.147232441294    -1.575168878696     0.556807620519
    H            1.580643166087    -0.267701402324     1.567531911218
    C            3.694643042747     0.668714441903     0.028625048528
    H            2.245239581303    -0.026223150308    -1.399568616298
    H            1.676500106698     1.279806180728    -0.395593403666
    H            4.150286127152     1.385771575100    -0.646811474674
    H            4.306953129741    -0.228738508510     0.020526993183
    H            3.734709231400     1.086824654914     1.030282367117

  Mulliken Charges: (a.u.)
   Center  Symbol    Alpha    Beta     Spin     Total
       1     O     4.25227  4.25227  0.00000 -0.50453
       2     C     2.62484  2.62484  0.00000  0.75031
       3     C     3.28549  3.28549  0.00000 -0.57099
       4     O     4.31917  4.31917  0.00000 -0.63834
       5     H     0.40665  0.40665  0.00000  0.18669
       6     H     0.39734  0.39734  0.00000  0.20532
       7     H     0.39791  0.39791  0.00000  0.20418
       8     C     3.00317  3.00317  0.00000 -0.00634
       9     C     3.16329  3.16329  0.00000 -0.32657
      10     H     0.42522  0.42522  0.00000  0.14956
      11     H     0.40675  0.40675  0.00000  0.18650
      12     C     3.15521  3.15521  0.00000 -0.31042
      13     H     0.41907  0.41907  0.00000  0.16187
      14     H     0.40950  0.40950  0.00000  0.18100
      15     C     3.24059  3.24059  0.00000 -0.48118
      16     H     0.42544  0.42544  0.00000  0.14912
      17     H     0.40934  0.40934  0.00000  0.18132
      18     H     0.41755  0.41755  0.00000  0.16489
      19     H     0.42200  0.42200  0.00000  0.15601
      20     H     0.41920  0.41920  0.00000  0.16159

   Total alpha = 32.00000, Total beta = 32.00000, Total charge =  0.00000
