  ==> Input File <==

--------------------------------------------------------------------------
set {
	reference rhf
	basis cc-pvtz
}

set_num_threads( 4 )
memory 2 gb

molecule MOL {
0 1

H	 2.342730	 0.877684	 -1.045694
C	 2.360424	 0.000000	 -0.411793
C	 1.173749	 0.000000	 0.526870
H	 3.286567	 0.000000	 0.151574
H	 2.342730	 -0.877684	 -1.045694
O	 -0.000000	 0.000000	 -0.223739
H	 1.203779	 0.876757	 1.172538
H	 1.203779	 -0.876757	 1.172538
C	 -1.173749	 0.000000	 0.526870
C	 -0.833742	 0.274013	 1.975524
H	 -1.676686	 -0.961635	 0.433040
H	 -1.857694	 0.759391	 0.149992
H	 -0.165525	 -0.486914	 2.358864
H	 -1.733895	 0.278677	 2.579532
H	 -0.346725	 1.235932	 2.075516

	symmetry c1
}
set optking {
	frozen_dihedral = ("
		11 9 6 3
	")
}

ee = optimize('scf')
oeprop('DIPOLE', 'QUADRUPOLE', 'MULLIKEN_CHARGES')
f=open( 'psi4out.xyz', 'w' )
f.write( "15  " )
f.write( str(ee) + "\n" )
f.write( MOL.save_string_xyz() )
f.close()
--------------------------------------------------------------------------

    Molecular point group: c1
  Charge       = 0
  Multiplicity = 1
  Basis Set: CC-PVTZ
  Basis Set:
  @DF-RHF Final Energy:  -232.20765809779527
    Total Energy =                       -232.2076580977951039
    Molecular point group: c1
  Basis Set: CC-PVTZ
  Basis Set:
  Basis Set: CC-PVTZ
  Basis Set:
  @DF-RHF Final Energy:  -232.21103182839752
    Total Energy =                       -232.2110318283973811
  Basis Set: CC-PVTZ
  Basis Set:
  Basis Set: CC-PVTZ
  Basis Set:
  @DF-RHF Final Energy:  -232.21874175867345
    Total Energy =                       -232.2187417586733886
  Basis Set: CC-PVTZ
  Basis Set:
  Basis Set: CC-PVTZ
  Basis Set:
  @DF-RHF Final Energy:  -232.22204280308074
    Total Energy =                       -232.2220428030807398
  Basis Set: CC-PVTZ
  Basis Set:
  @DF-RHF Final Energy:  -232.22263690569213
    Total Energy =                       -232.2226369056921271
  Basis Set: CC-PVTZ
  Basis Set:
  @DF-RHF Final Energy:  -232.22330762349799
    Total Energy =                       -232.2233076234981013
  Basis Set: CC-PVTZ
  Basis Set:
  Basis Set: CC-PVTZ
  Basis Set:
  @DF-RHF Final Energy:  -232.22343118501135
    Total Energy =                       -232.2234311850112363
  Basis Set: CC-PVTZ
  Basis Set:
  Basis Set: CC-PVTZ
  Basis Set:
  @DF-RHF Final Energy:  -232.22344129475078
    Total Energy =                       -232.2234412947505575
  Basis Set: CC-PVTZ
  Basis Set:
  Charge       = 0
  Multiplicity = 1
  Basis Set: CC-PVTZ
  Basis Set:

    Orbital Energies (a.u.)
    -----------------------

    Doubly Occupied:

       1A    -20.538939     2A    -11.266439     3A    -11.264766
       4A    -11.215360     5A    -11.204899     6A     -1.370342
       7A     -1.040910     8A     -0.991653     9A     -0.872603
      10A     -0.795870    11A     -0.674531    12A     -0.663562
      13A     -0.615956    14A     -0.601493    15A     -0.548189
      16A     -0.535041    17A     -0.523037    18A     -0.503048
      19A     -0.499584    20A     -0.451652    21A     -0.401549

  @DF-RHF Final Energy:  -232.22344197749698

   => Energetics <=

    Nuclear Repulsion Energy =            193.2187278008875069
    One-Electron Energy =                -697.7254929377490953
    Two-Electron Energy =                 272.2833231593646133
    DFT Exchange-Correlation Energy =       0.0000000000000000
    Empirical Dispersion Energy =           0.0000000000000000
    PCM Polarization Energy =               0.0000000000000000
    EFP Energy =                            0.0000000000000000
    Total Energy =                       -232.2234419774969751
    Molecular point group: c1
  Basis Set: CC-PVTZ
  Basis Set:

  -Total Gradient:
     Atom            X                  Y                   Z
    ------   -----------------  -----------------  -----------------
       1        0.000007497075     0.000004223214    -0.000010560751
       2       -0.000018737089     0.000017936123    -0.000002886013
       3        0.000048245897     0.002893765315     0.000109087609
       4       -0.000008208275     0.000002182381     0.000003320189
       5       -0.000002741140    -0.000000262497     0.000004184062
       6       -0.000464536600    -0.004148930755    -0.000807854275
       7       -0.000006905551     0.000001658306    -0.000015144559
       8        0.000011163297     0.000006583724     0.000006053246
       9        0.002056067911    -0.000041920472     0.003426850628
      10       -0.000011420124     0.000002385429     0.000028925658
      11       -0.001624746736     0.001256892573    -0.002732090301
      12        0.000013794015     0.000001837246    -0.000013318570
      13       -0.000005365571     0.000006122930    -0.000003577925
      14        0.000004019812     0.000002007883     0.000006400111
      15        0.000001873077    -0.000004481401     0.000000610890

  **** Optimization is complete! (in 9 steps) ****
    Final optimized geometry and variables:
    Molecular point group: c1

    Geometry (in Angstrom), charge = 0, multiplicity = 1:

    H            1.992871055935     0.836375570779    -1.649739984058
    C            2.069394299827    -0.061303074952    -1.048890121223
    C            0.986396205441    -0.084464446124     0.008843412152
    H            3.049263074656    -0.084560179763    -0.584946827867
    H            1.977566450367    -0.917576542529    -1.705234486334
    O           -0.247668438587    -0.052156371526    -0.640673780242
    H            1.102510561301     0.767973297744     0.670921966748
    H            1.084435237836    -0.983739097188     0.613614928001
    C           -1.448084508938    -0.058768365890     0.088221198479
    C           -1.367898803671     0.251377821332     1.574334764841
    H           -1.932030890040    -1.019712438542    -0.064787405764
    H           -2.088538265304     0.678797160189    -0.382544323163
    H           -0.775451390049    -0.472058383454     2.119464932928
    H           -2.372923932302     0.226249111009     1.979588251581
    H           -0.962367213565     1.238272079105     1.759509721511

  Mulliken Charges: (a.u.)
   Center  Symbol    Alpha    Beta     Spin     Total
       1     H     0.45199  0.45199  0.00000  0.09602
       2     C     3.13568  3.13568  0.00000 -0.27135
       3     C     2.96683  2.96683  0.00000  0.06635
       4     H     0.45958  0.45958  0.00000  0.08085
       5     H     0.45160  0.45160  0.00000  0.09680
       6     O     4.18489  4.18489  0.00000 -0.36978
       7     H     0.47051  0.47051  0.00000  0.05898
       8     H     0.47260  0.47260  0.00000  0.05480
       9     C     2.96960  2.96960  0.00000  0.06080
      10     C     3.16587  3.16587  0.00000 -0.33175
      11     H     0.46504  0.46504  0.00000  0.06993
      12     H     0.46089  0.46089  0.00000  0.07822
      13     H     0.45012  0.45012  0.00000  0.09977
      14     H     0.44455  0.44455  0.00000  0.11090
      15     H     0.45027  0.45027  0.00000  0.09946

   Total alpha = 21.00000, Total beta = 21.00000, Total charge = -0.00000
