  ==> Input File <==

--------------------------------------------------------------------------
set {
	reference rhf
	basis 6-31G*
}

set_num_threads( 4 )
memory 2 gb

molecule MOL {
0 1

O	 1.846825	 1.296220	 0.000415
C	 1.705091	 0.115954	 0.001797
C	 0.381791	 -0.609817	 0.001258
O	 2.721346	 -0.737485	 -0.000216
C	 -0.823008	 0.326187	 0.001381
H	 0.371250	 -1.265087	 -0.865474
H	 0.370908	 -1.265746	 0.867490
C	 -2.149452	 -0.435131	 -0.000098
H	 -0.770201	 0.977095	 -0.865636
H	 -0.771220	 0.975655	 0.869608
C	 -3.368779	 0.488503	 -0.000883
H	 -2.193746	 -1.087250	 -0.871175
H	 -2.195311	 -1.087803	 0.870418
C	 -4.342272	 0.192311	 1.139219
H	 -3.887980	 0.397195	 -0.952321
H	 -3.036506	 1.522009	 0.066934
H	 -4.719480	 -0.824687	 1.078863
H	 -5.195285	 0.863184	 1.111845
H	 -3.861057	 0.308633	 2.106283
C	 4.024888	 -0.184556	 -0.001949
H	 4.179030	 0.422472	 -0.882452
H	 4.701782	 -1.024608	 -0.003642
H	 4.181981	 0.421185	 0.878906

	symmetry c1
}
set optking {
	frozen_dihedral = ("
		15 11 8 12
	")
}

ee = optimize('scf')
oeprop('DIPOLE', 'QUADRUPOLE', 'MULLIKEN_CHARGES')
f=open( 'psi4out.xyz', 'w' )
f.write( "23  " )
f.write( str(ee) + "\n" )
f.write( MOL.save_string_xyz() )
f.close()
--------------------------------------------------------------------------

    Molecular point group: c1
  Charge       = 0
  Multiplicity = 1
  Basis Set: 6-31G*
  Basis Set:
  @DF-RHF Final Energy:  -422.97058070742304
    Total Energy =                       -422.9705807074233235
    Molecular point group: c1
  Basis Set: 6-31G*
  Basis Set:
  Basis Set: 6-31G*
  Basis Set:
  @DF-RHF Final Energy:  -422.97076699091178
    Total Energy =                       -422.9707669909121250
  Basis Set: 6-31G*
  Basis Set:
  Basis Set: 6-31G*
  Basis Set:
  @DF-RHF Final Energy:  -422.97005025088094
    Total Energy =                       -422.9700502508816271
  Basis Set: 6-31G*
  Basis Set:
  Basis Set: 6-31G*
  Basis Set:
  @DF-RHF Final Energy:  -422.97087358074555
    Total Energy =                       -422.9708735807452058
  Basis Set: 6-31G*
  Basis Set:
  Basis Set: 6-31G*
  Basis Set:
  @DF-RHF Final Energy:  -422.97088924284259
    Total Energy =                       -422.9708892428428726
  Basis Set: 6-31G*
  Basis Set:
  Charge       = 0
  Multiplicity = 1
  Basis Set: 6-31G*
  Basis Set:

    Orbital Energies (a.u.)
    -----------------------

    Doubly Occupied:

       1A    -20.603596     2A    -20.545394     3A    -11.372269
       4A    -11.280827     5A    -11.235293     6A    -11.219552
       7A    -11.217620     8A    -11.216143     9A    -11.209608
      10A     -1.469292    11A     -1.362733    12A     -1.091702
      13A     -1.041918    14A     -0.986788    15A     -0.931538
      16A     -0.844778    17A     -0.794402    18A     -0.767483
      19A     -0.696707    20A     -0.683476    21A     -0.671828
      22A     -0.645284    23A     -0.612171    24A     -0.598572
      25A     -0.577783    26A     -0.565650    27A     -0.544059
      28A     -0.525687    29A     -0.521872    30A     -0.502976
      31A     -0.492338    32A     -0.469162    33A     -0.460840
      34A     -0.459066    35A     -0.454462    36A     -0.435179

  @DF-RHF Final Energy:  -422.97088899622446

   => Energetics <=

    Nuclear Repulsion Energy =            452.9428740516672747
    One-Electron Energy =               -1473.6114343413310053
    Two-Electron Energy =                 597.6976712934401803
    DFT Exchange-Correlation Energy =       0.0000000000000000
    Empirical Dispersion Energy =           0.0000000000000000
    PCM Polarization Energy =               0.0000000000000000
    EFP Energy =                            0.0000000000000000
    Total Energy =                       -422.9708889962234935
    Molecular point group: c1
  Basis Set: 6-31G*
  Basis Set:

  -Total Gradient:
     Atom            X                  Y                   Z
    ------   -----------------  -----------------  -----------------
       1        0.000018719758    -0.000012263812    -0.000005459810
       2       -0.000011010322    -0.000005112260     0.000013059065
       3       -0.000010920612    -0.000001534135     0.000030681443
       4        0.000007252554     0.000022584443    -0.000010310844
       5       -0.000020296938    -0.000000505593    -0.000035042908
       6       -0.000004646193     0.000008453916     0.000002226715
       7        0.000002646977    -0.000009851559    -0.000001412000
       8       -0.001187029714    -0.001542666616     0.001111583613
       9        0.000008473851    -0.000013834889    -0.000006004451
      10       -0.000010815648     0.000019072008    -0.000008483757
      11        0.001260661736     0.001640838866    -0.000842413420
      12        0.000773328851     0.001045277330    -0.000819172917
      13       -0.000001453878    -0.000009324653    -0.000006712063
      14       -0.000000408998    -0.000002466078    -0.000007266908
      15       -0.000848643869    -0.001136515929     0.000567851056
      16        0.000013696215     0.000000431090     0.000008016533
      17        0.000006032027    -0.000004432597     0.000009594363
      18       -0.000005680690    -0.000003488359    -0.000007710639
      19       -0.000002810428     0.000008480168    -0.000002042791
      20        0.000007534295    -0.000005909574     0.000018003920
      21       -0.000003652699    -0.000000150378    -0.000003118952
      22        0.000004407615     0.000002635444    -0.000002877638
      23        0.000004616103     0.000000283168    -0.000002987608

  **** Optimization is complete! (in 6 steps) ****
    Final optimized geometry and variables:
    Molecular point group: c1

    Geometry (in Angstrom), charge = 0, multiplicity = 1:

    O            1.811642842897     1.241339517328    -0.133107170943
    C            1.669875166847     0.061096039977    -0.133100482226
    C            0.346462634692    -0.664579977642    -0.129990923863
    O            2.686150752101    -0.792333574146    -0.135822292228
    C           -0.858200508935     0.270987999839    -0.128207016716
    H            0.334025639684    -1.320917172748    -0.995957519770
    H            0.337454968494    -1.319769836576     0.736944851975
    C           -2.186411827440    -0.490198031598    -0.121043857580
    H           -0.810253369145     0.919273706974    -0.997655727461
    H           -0.804485378219     0.923797949598     0.737636847465
    C           -3.418892680747     0.441851968783    -0.124814954526
    H           -2.217082809698    -1.144737997495    -0.988738930003
    H           -2.218297881536    -1.139918584705     0.750756706338
    C           -4.408663705120     0.140013721308     1.001579744068
    H           -3.939772282417     0.357842514414    -1.074151237534
    H           -3.097919899984     1.476667884848    -0.044012243711
    H           -4.779082809628    -0.879147909319     0.934724720763
    H           -5.264676304204     0.806766430096     0.962806384536
    H           -3.940425854983     0.257223832747     1.975012809543
    C            3.989709872843    -0.239371132569    -0.138606103489
    H            4.143162348651     0.367587151907    -1.019272333646
    H            4.666649738615    -1.079441118618    -0.140867513018
    H            4.147525244336     0.366375126515     0.742121666105

  Mulliken Charges: (a.u.)
   Center  Symbol    Alpha    Beta     Spin     Total
       1     O     4.28610  4.28610  0.00000 -0.57220
       2     C     2.60518  2.60518  0.00000  0.78965
       3     C     3.20864  3.20864  0.00000 -0.41729
       4     O     4.30722  4.30722  0.00000 -0.61443
       5     C     3.15463  3.15463  0.00000 -0.30926
       6     H     0.40073  0.40073  0.00000  0.19854
       7     H     0.40066  0.40066  0.00000  0.19868
       8     C     3.15702  3.15702  0.00000 -0.31404
       9     H     0.41128  0.41128  0.00000  0.17744
      10     H     0.41173  0.41173  0.00000  0.17653
      11     C     3.15524  3.15524  0.00000 -0.31048
      12     H     0.42132  0.42132  0.00000  0.15736
      13     H     0.42109  0.42109  0.00000  0.15783
      14     C     3.24017  3.24017  0.00000 -0.48034
      15     H     0.41965  0.41965  0.00000  0.16070
      16     H     0.41702  0.41702  0.00000  0.16595
      17     H     0.42172  0.42172  0.00000  0.15656
      18     H     0.41981  0.41981  0.00000  0.16039
      19     H     0.42177  0.42177  0.00000  0.15646
      20     C     3.09242  3.09242  0.00000 -0.18485
      21     H     0.40907  0.40907  0.00000  0.18186
      22     H     0.40844  0.40844  0.00000  0.18312
      23     H     0.40909  0.40909  0.00000  0.18182

   Total alpha = 36.00000, Total beta = 36.00000, Total charge =  0.00000
