                              Psi4 1.0.54 Driver

  ==> Input File <==

--------------------------------------------------------------------------
set {
	reference rhf
	basis cc-pvtz
}

set_num_threads( 4 )
memory 2 gb

molecule MOL {
0 1

H	 -3.258660	 -0.290394	 1.471450
C	 -3.307964	 -0.275695	 0.374072
C	 -2.653809	 0.914422	 -0.273689
O	 -3.855140	 -1.148880	 -0.205112
C	 -1.216901	 1.136108	 0.207794
H	 -2.700131	 0.790676	 -1.347875
H	 -3.256452	 1.781007	 -0.010713
C	 -0.247837	 0.040196	 -0.230469
H	 -0.872882	 2.093195	 -0.169002
H	 -1.209325	 1.218376	 1.291938
C	 1.181757	 0.280428	 0.247371
H	 -0.259600	 -0.030819	 -1.314870
H	 -0.591284	 -0.923375	 0.136958
C	 2.151032	 -0.811012	 -0.202643
H	 1.515939	 1.247397	 -0.115449
H	 1.191514	 0.341223	 1.333422
C	 3.580021	 -0.656538	 0.320835
H	 2.170545	 -0.847575	 -1.289412
H	 1.766632	 -1.772905	 0.124928
C	 4.051799	 -1.786580	 1.232710
H	 3.644934	 0.279788	 0.866246
H	 4.261889	 -0.563722	 -0.520442
H	 3.384627	 -1.907163	 2.080258
H	 4.099998	 -2.735510	 0.712236
H	 5.042348	 -1.578690	 1.620728

	symmetry c1
}
set optking {
	frozen_dihedral = ("
		20 17 14 18
	")
}

ee,wfn = optimize('scf', return_wfn=True)
oeprop( wfn, 'DIPOLE', 'QUADRUPOLE', 'MULLIKEN_CHARGES')
f=open( 'psi4out.xyz', 'w' )
f.write( "25  " )
f.write( str(ee) + "\n" )
f.write( MOL.save_string_xyz() )
f.close()
--------------------------------------------------------------------------

    Molecular point group: c1
  Charge       = 0
  Multiplicity = 1
  Basis Set: CC-PVTZ
  Basis Set:
  @DF-RHF Final Energy:  -387.25606629319998
    Total Energy =                       -387.2560662931999786
    Molecular point group: c1
  Basis Set: CC-PVTZ
  Basis Set:
  Basis Set: CC-PVTZ
  Basis Set:
  @DF-RHF Final Energy:  -387.25648101331205
    Total Energy =                       -387.2564810133125093
  Basis Set: CC-PVTZ
  Basis Set:
  Basis Set: CC-PVTZ
  Basis Set:
  @DF-RHF Final Energy:  -387.25654211972926
    Total Energy =                       -387.2565421197297155
  Basis Set: CC-PVTZ
  Basis Set:
  Basis Set: CC-PVTZ
  Basis Set:
  @DF-RHF Final Energy:  -387.25630495040195
    Total Energy =                       -387.2563049504021819
  Basis Set: CC-PVTZ
  Basis Set:
  Basis Set: CC-PVTZ
  Basis Set:
  @DF-RHF Final Energy:  -387.25654692083197
    Total Energy =                       -387.2565469208319655
  Basis Set: CC-PVTZ
  Basis Set:
  Charge       = 0
  Multiplicity = 1
  Basis Set: CC-PVTZ
  Basis Set:

    Orbital Energies (a.u.)
    -----------------------

    Doubly Occupied:

       1A    -20.551422     2A    -11.321028     3A    -11.233855
       4A    -11.232960     5A    -11.221610     6A    -11.218734
       7A    -11.215569     8A    -11.214458     9A    -11.209018
      10A     -1.406429    11A     -1.104938    12A     -1.069586
      13A     -1.015780    14A     -0.944202    15A     -0.869621
      16A     -0.816806    17A     -0.793538    18A     -0.787717
      19A     -0.667793    20A     -0.664194    21A     -0.634984
      22A     -0.623062    23A     -0.603605    24A     -0.598835
      25A     -0.569178    26A     -0.555138    27A     -0.537493
      28A     -0.522627    29A     -0.511731    30A     -0.499752
      31A     -0.487037    32A     -0.480835    33A     -0.467073
      34A     -0.458255    35A     -0.441051    36A     -0.411929

  @DF-RHF Final Energy:  -387.25654728689858

   => Energetics <=

    Nuclear Repulsion Energy =            437.3135676006478434
    One-Electron Energy =               -1391.2165424569566312
    Two-Electron Energy =                 566.6464275694105481
    DFT Exchange-Correlation Energy =       0.0000000000000000
    Empirical Dispersion Energy =           0.0000000000000000
    PCM Polarization Energy =               0.0000000000000000
    EFP Energy =                            0.0000000000000000
    Total Energy =                       -387.2565472868982397
    Molecular point group: c1
  Basis Set: CC-PVTZ
  Basis Set:

  -Total Gradient:
     Atom            X                  Y                   Z
    ------   -----------------  -----------------  -----------------
       1       -0.000020988071     0.000029588517     0.000013857057
       2        0.000109463211    -0.000023645590     0.000012254565
       3       -0.000051405367    -0.000004039705     0.000012891120
       4       -0.000036213163     0.000000202277    -0.000036647356
       5        0.000014000405    -0.000008275224    -0.000015430560
       6       -0.000001347421     0.000005428125    -0.000002699664
       7       -0.000000299607    -0.000004674819     0.000004886646
       8       -0.000026513701    -0.000007708477    -0.000002801066
       9        0.000000918948     0.000004797655    -0.000006312298
      10        0.000001071286     0.000003612672    -0.000000069045
      11       -0.000001531941    -0.000009982594     0.000007126219
      12        0.000001115107     0.000003811813     0.000002097924
      13       -0.000005275928     0.000002139978     0.000003176148
      14        0.000013091504     0.000390991309    -0.000097073906
      15       -0.000006546852    -0.000008844384    -0.000006117857
      16        0.000017515452    -0.000003145093     0.000003323430
      17       -0.000165527046     0.000083833529     0.000299562049
      18        0.000030320675    -0.000324030720     0.000002702552
      19        0.000002046972     0.000007857279     0.000003544692
      20        0.000123218556    -0.000126214291    -0.000202707386
      21       -0.000005777989    -0.000001417796     0.000003469861
      22        0.000009723478    -0.000013378683     0.000007203116
      23       -0.000001535283     0.000017448725    -0.000010538673
      24       -0.000007325019    -0.000004894421     0.000004803871
      25        0.000007801799    -0.000009460083    -0.000000501439

  **** Optimization is complete! (in 6 steps) ****
    Final optimized geometry and variables:
    Molecular point group: c1

    Geometry (in Angstrom), charge = 0, multiplicity = 1:

    H           -3.250743129428     0.000621372087     1.262085190805
    C           -3.286834707980     0.031791228609     0.164507237573
    C           -2.604365675993     1.219200069392    -0.458486952674
    O           -3.842994472833    -0.822759174369    -0.433621026610
    C           -1.170174220933     1.409499598940     0.043757365876
    H           -2.639293413052     1.111067097990    -1.534799764227
    H           -3.195564810220     2.092251004011    -0.190971349682
    C           -0.215353416554     0.301122150402    -0.394648627604
    H           -0.804057235768     2.364317570396    -0.317667691598
    H           -1.175202190893     1.479454864937     1.128764907840
    C            1.212120377260     0.511968679020     0.100216606551
    H           -0.216771940942     0.240084362984    -1.479730668421
    H           -0.578904634048    -0.659897803522    -0.039771612612
    C            2.175848128766    -0.586505990665    -0.343070531099
    H            1.577269510519     1.472684103509    -0.254776247274
    H            1.212322465274     0.570167562669     1.186435369751
    C            3.616370196895    -0.390768857150     0.173335116724
    H            2.174821455573    -0.639310939884    -1.427084580916
    H            1.795107025110    -1.544342690284    -0.000865766492
    C            4.091301251782    -1.511322516672     1.094102554536
    H            3.687127596222     0.553840156059     0.703313286146
    H            4.300261380364    -0.312247485307    -0.664684690065
    H            3.449058283681    -1.600200250852     1.964452159490
    H            4.083212829349    -2.467147439347     0.581202680205
    H            5.101337737279    -1.331596379562     1.444804240365

  Mulliken Charges: (a.u.)
   Center  Symbol    Alpha    Beta     Spin     Total
       1     H     0.46418  0.46418  0.00000  0.07164
       2     C     2.90472  2.90472  0.00000  0.19056
       3     C     3.08917  3.08917  0.00000 -0.17833
       4     O     4.16625  4.16625  0.00000 -0.33251
       5     C     3.11622  3.11622  0.00000 -0.23244
       6     H     0.44289  0.44289  0.00000  0.11422
       7     H     0.44048  0.44048  0.00000  0.11904
       8     C     3.09157  3.09157  0.00000 -0.18314
       9     H     0.44308  0.44308  0.00000  0.11385
      10     H     0.44988  0.44988  0.00000  0.10024
      11     C     3.09101  3.09101  0.00000 -0.18202
      12     H     0.44994  0.44994  0.00000  0.10012
      13     H     0.44790  0.44790  0.00000  0.10421
      14     C     3.09515  3.09515  0.00000 -0.19031
      15     H     0.45222  0.45222  0.00000  0.09556
      16     H     0.45357  0.45357  0.00000  0.09286
      17     C     3.09022  3.09022  0.00000 -0.18044
      18     H     0.44836  0.44836  0.00000  0.10328
      19     H     0.45301  0.45301  0.00000  0.09399
      20     C     3.14703  3.14703  0.00000 -0.29406
      21     H     0.45483  0.45483  0.00000  0.09034
      22     H     0.44925  0.44925  0.00000  0.10151
      23     H     0.45577  0.45577  0.00000  0.08846
      24     H     0.45390  0.45390  0.00000  0.09220
      25     H     0.44941  0.44941  0.00000  0.10117

   Total alpha = 36.00000, Total beta = 36.00000, Total charge = -0.00000

*** Psi4 exiting successfully. Buy a developer a beer!
