  ==> Input File <==

--------------------------------------------------------------------------
set {
	reference rhf
	basis 6-31G*
}

set_num_threads( 1 )
memory 2 gb

molecule MOL {
0 1

H	 -0.000158	 1.970498	 0.756846
O	 -0.000074	 1.880206	 -0.189275
C	 -0.000015	 0.544847	 -0.545111
C	 -1.278788	 -0.123820	 -0.051541
C	 1.278802	 -0.123718	 -0.051505
H	 -0.000001	 0.490777	 -1.623619
F	 -1.139144	 -0.467460	 1.210979
F	 -2.324658	 0.669827	 -0.144486
F	 -1.532090	 -1.223111	 -0.743634
F	 2.323327	 0.466644	 -0.591854
F	 1.326242	 -1.401483	 -0.363667
F	 1.388946	 -0.015632	 1.262939

	symmetry c1
}
set optking {
	frozen_dihedral = ("
		6 3 2 1
	")
}

ee = energy('scf')
oeprop('DIPOLE', 'QUADRUPOLE', 'MULLIKEN_CHARGES')
f=open( 'psi4out.xyz', 'w' )
f.write( "12  " )
f.write( str(ee) + "\n" )
f.write( MOL.save_string_xyz() )
f.close()
--------------------------------------------------------------------------

    Molecular point group: c1

    Geometry (in Angstrom), charge = 0, multiplicity = 1:

       Center              X                  Y                   Z               Mass
    ------------   -----------------  -----------------  -----------------  -----------------
           H         -0.004969954391     1.978402480000     0.755087798407     1.007825032070
           O         -0.004885954391     1.888110480000    -0.191033201593    15.994914619560
           C         -0.004826954391     0.552751480000    -0.546869201593    12.000000000000
           C         -1.283599954391    -0.115915520000    -0.053299201593    12.000000000000
           C          1.273990045609    -0.115813520000    -0.053263201593    12.000000000000
           H         -0.004812954391     0.498681480000    -1.625377201593     1.007825032070
           F         -1.143955954391    -0.459555520000     1.209220798407    18.998403224000
           F         -2.329469954391     0.677731480000    -0.146244201593    18.998403224000
           F         -1.536901954391    -1.215206520000    -0.745392201593    18.998403224000
           F          2.318515045609     0.474548480000    -0.593612201593    18.998403224000
           F          1.321430045609    -1.393578520000    -0.365425201593    18.998403224000
           F          1.384134045609    -0.007727520000     1.261180798407    18.998403224000

  Charge       = 0
  Multiplicity = 1
  Basis Set: 6-31G*
  Basis Set:

    Orbital Energies (a.u.)
    -----------------------

    Doubly Occupied:

       1A    -26.363036     2A    -26.361681     3A    -26.360957
       4A    -26.360802     5A    -26.358500     6A    -26.357882
       7A    -20.616533     8A    -11.526601     9A    -11.525185
      10A    -11.348526    11A     -1.764807    12A     -1.758273
      13A     -1.661509    14A     -1.659179    15A     -1.655331
      16A     -1.654565    17A     -1.435426    18A     -1.101562
      19A     -0.996807    20A     -0.938163    21A     -0.863757
      22A     -0.862422    23A     -0.851438    24A     -0.844240
      25A     -0.832805    26A     -0.814040    27A     -0.742220
      28A     -0.727816    29A     -0.724967    30A     -0.718278
      31A     -0.688536    32A     -0.685063    33A     -0.683855
      34A     -0.674629    35A     -0.668429    36A     -0.661136
      37A     -0.657342    38A     -0.652879    39A     -0.619819
      40A     -0.548804    41A     -0.506852

  @DF-RHF Final Energy:  -786.27473693915283

   => Energetics <=

    Nuclear Repulsion Energy =            671.3250806124407291
    One-Electron Energy =               -2429.5303636873227333
    Two-Electron Energy =                 971.9305461357305376
    DFT Exchange-Correlation Energy =       0.0000000000000000
    Empirical Dispersion Energy =           0.0000000000000000
    PCM Polarization Energy =               0.0000000000000000
    EFP Energy =                            0.0000000000000000
    Total Energy =                       -786.2747369391515804

  Mulliken Charges: (a.u.)
   Center  Symbol    Alpha    Beta     Spin     Total
       1     H     0.26742  0.26742  0.00000  0.46516
       2     O     4.36096  4.36096  0.00000 -0.72192
       3     C     3.04962  3.04962  0.00000 -0.09923
       4     C     2.44707  2.44707  0.00000  1.10586
       5     C     2.44364  2.44364  0.00000  1.11271
       6     H     0.37549  0.37549  0.00000  0.24902
       7     F     4.67655  4.67655  0.00000 -0.35310
       8     F     4.67236  4.67236  0.00000 -0.34473
       9     F     4.67820  4.67820  0.00000 -0.35641
      10     F     4.67469  4.67469  0.00000 -0.34937
      11     F     4.67351  4.67351  0.00000 -0.34702
      12     F     4.68048  4.68048  0.00000 -0.36097

   Total alpha = 41.00000, Total beta = 41.00000, Total charge =  0.00000
