  ==> Input File <==

--------------------------------------------------------------------------
set {
	reference rhf
	basis cc-pvtz
}

set_num_threads( 4 )
memory 2 gb

molecule MOL {
0 1

H	 -0.939693	 0.000281	 1.681345
O	 -0.046262	 -0.000157	 1.387678
C	 -0.000837	 0.000006	 -0.025491
C	 1.454175	 -0.000709	 -0.490344
C	 -0.740862	 -1.224208	 -0.561036
C	 -0.701951	 1.282513	 -0.451874
H	 1.521345	 0.035804	 -1.571524
H	 1.964246	 -0.899507	 -0.157087
H	 1.978486	 0.854763	 -0.083248
H	 -0.754094	 -1.232445	 -1.644800
H	 -0.260977	 -2.139858	 -0.228819
H	 -1.762987	 -1.230755	 -0.203709
H	 -0.718006	 1.373624	 -1.531563
H	 -0.190824	 2.143561	 -0.040099
H	 -1.722114	 1.290070	 -0.089349

	symmetry c1
}
set optking {
	frozen_dihedral = ("
		4 3 2 1
	")
}

ee = optimize('scf')
oeprop('DIPOLE', 'QUADRUPOLE', 'MULLIKEN_CHARGES')
f=open( 'psi4out.xyz', 'w' )
f.write( "15  " )
f.write( str(ee) + "\n" )
f.write( MOL.save_string_xyz() )
f.close()
--------------------------------------------------------------------------

    Molecular point group: c1
  Charge       = 0
  Multiplicity = 1
  Basis Set: CC-PVTZ
  Basis Set:
  @DF-RHF Final Energy:  -232.24475384867677
    Total Energy =                       -232.2447538486767371
    Molecular point group: c1
  Basis Set: CC-PVTZ
  Basis Set:
  Basis Set: CC-PVTZ
  Basis Set:
  @DF-RHF Final Energy:  -232.24642358280047
    Total Energy =                       -232.2464235828007304
  Basis Set: CC-PVTZ
  Basis Set:
  Basis Set: CC-PVTZ
  Basis Set:
  @DF-RHF Final Energy:  -232.24679753241782
    Total Energy =                       -232.2467975324178724
  Basis Set: CC-PVTZ
  Basis Set:
  Charge       = 0
  Multiplicity = 1
  Basis Set: CC-PVTZ
  Basis Set:

    Orbital Energies (a.u.)
    -----------------------

    Doubly Occupied:

       1A    -20.542208     2A    -11.280730     3A    -11.209328
       4A    -11.209294     5A    -11.203845     6A     -1.365070
       7A     -1.065176     8A     -0.942114     9A     -0.940457
      10A     -0.778498    11A     -0.672680    12A     -0.624302
      13A     -0.622861    14A     -0.575996    15A     -0.557585
      16A     -0.532642    17A     -0.517049    18A     -0.511267
      19A     -0.504759    20A     -0.458848    21A     -0.428742

  @DF-RHF Final Energy:  -232.24679813546564

   => Energetics <=

    Nuclear Repulsion Energy =            200.6915265818666114
    One-Electron Energy =                -712.7897414282091404
    Two-Electron Energy =                 279.8514167108767765
    DFT Exchange-Correlation Energy =       0.0000000000000000
    Empirical Dispersion Energy =           0.0000000000000000
    PCM Polarization Energy =               0.0000000000000000
    EFP Energy =                            0.0000000000000000
    Total Energy =                       -232.2467981354657809
    Molecular point group: c1
  Basis Set: CC-PVTZ
  Basis Set:

  -Total Gradient:
     Atom            X                  Y                   Z
    ------   -----------------  -----------------  -----------------
       1       -0.000048435413     0.000011048783    -0.000013728614
       2        0.000097581041    -0.000025214710    -0.000255146553
       3       -0.000014631499    -0.000046025196    -0.000180851243
       4       -0.000040884292    -0.000094888022     0.000242242729
       5        0.000039615072    -0.000013562970     0.000140547885
       6       -0.000078848969     0.000139752102    -0.000006199940
       7       -0.000028913434     0.000061363644     0.000010168600
       8        0.000018051229    -0.000017140255    -0.000011236373
       9        0.000031854636    -0.000045324850     0.000026855400
      10       -0.000077539289     0.000103405765     0.000035475235
      11        0.000122542846     0.000037059711    -0.000030559759
      12       -0.000013958954    -0.000068470316     0.000033724318
      13        0.000001047764    -0.000090183527     0.000036348867
      14        0.000045409476    -0.000007247575    -0.000009912584
      15       -0.000052890213     0.000055427415    -0.000017727966

  **** Optimization is complete! (in 4 steps) ****
    Final optimized geometry and variables:
    Molecular point group: c1

    Geometry (in Angstrom), charge = 0, multiplicity = 1:

    H           -0.842327154377    -0.047734086658     1.730972147574
    O            0.032803657926    -0.049311089764     1.386618157792
    C           -0.002542194579     0.001066798331    -0.025637973723
    C            1.455054039179    -0.006280816741    -0.465018349606
    C           -0.734977657233    -1.226935691519    -0.562252009508
    C           -0.696560271283     1.285639316193    -0.474896404343
    H            1.533418900782     0.037137804465    -1.544970103831
    H            1.946398804458    -0.906769119869    -0.118760769477
    H            1.976625292630     0.845109708430    -0.046400846574
    H           -0.760011803514    -1.226820778153    -1.645798557679
    H           -0.243525627097    -2.132191182045    -0.228445873254
    H           -1.761049067298    -1.248861544543    -0.207549543131
    H           -0.708633842567     1.367335790766    -1.555526917734
    H           -0.185388741648     2.149704669447    -0.069220137799
    H           -1.725857443330     1.308799938736    -0.129626538539

  Mulliken Charges: (a.u.)
   Center  Symbol    Alpha    Beta     Spin     Total
       1     H     0.39578  0.39578  0.00000  0.20844
       2     O     4.21098  4.21098  0.00000 -0.42196
       3     C     2.87837  2.87837  0.00000  0.24326
       4     C     3.14319  3.14319  0.00000 -0.28638
       5     C     3.14990  3.14990  0.00000 -0.29980
       6     C     3.15019  3.15019  0.00000 -0.30038
       7     H     0.45875  0.45875  0.00000  0.08249
       8     H     0.44844  0.44844  0.00000  0.10312
       9     H     0.44826  0.44826  0.00000  0.10349
      10     H     0.45558  0.45558  0.00000  0.08884
      11     H     0.44662  0.44662  0.00000  0.10676
      12     H     0.45600  0.45600  0.00000  0.08800
      13     H     0.45556  0.45556  0.00000  0.08889
      14     H     0.44647  0.44647  0.00000  0.10706
      15     H     0.45591  0.45591  0.00000  0.08819

   Total alpha = 21.00000, Total beta = 21.00000, Total charge =  0.00000
