  ==> Input File <==

--------------------------------------------------------------------------
set {
	reference rhf
	basis 6-31G*
}

set_num_threads( 1 )
memory 2 gb

molecule MOL {
0 1

O	 -2.042549	 -1.228399	 -0.269030
C	 -1.653912	 -0.146171	 0.050137
C	 -0.332303	 0.024011	 0.778412
C	 -2.438579	 1.106236	 -0.272369
C	 0.845713	 -0.001731	 -0.208243
H	 -0.323783	 0.953829	 1.340327
H	 -0.235459	 -0.796807	 1.480410
C	 2.113122	 -0.600590	 0.403372
H	 1.057669	 1.008277	 -0.554714
H	 0.552613	 -0.575426	 -1.082375
C	 3.283655	 -0.635666	 -0.578376
H	 2.395803	 -0.027030	 1.283454
H	 1.900934	 -1.609306	 0.749835
H	 3.542094	 0.363518	 -0.917335
H	 3.041959	 -1.229750	 -1.454783
H	 4.166998	 -1.067584	 -0.118835
H	 -3.277823	 0.863061	 -0.908988
H	 -1.806773	 1.843019	 -0.759671
H	 -2.802853	 1.554979	 0.648059

	symmetry c1
}
set optking {
	frozen_dihedral = ("
		11 8 5 9,
		5 3 2 4
	")
}

ee = energy('scf')
oeprop('DIPOLE', 'QUADRUPOLE', 'MULLIKEN_CHARGES')
f=open( 'psi4out.xyz', 'w' )
f.write( "19  " )
f.write( str(ee) + "\n" )
f.write( MOL.save_string_xyz() )
f.close()
--------------------------------------------------------------------------

    Molecular point group: c1

    Geometry (in Angstrom), charge = 0, multiplicity = 1:

       Center              X                  Y                   Z               Mass
    ------------   -----------------  -----------------  -----------------  -----------------
           O         -2.016747799765    -1.014546263526    -0.243804031847    15.994914619560
           C         -1.628110799765     0.067681736474     0.075362968153    12.000000000000
           C         -0.306501799765     0.237863736474     0.803637968153    12.000000000000
           C         -2.412777799765     1.320088736474    -0.247143031847    12.000000000000
           C          0.871514200235     0.212121736474    -0.183017031847    12.000000000000
           H         -0.297981799765     1.167681736474     1.365552968153     1.007825032070
           H         -0.209657799765    -0.582954263526     1.505635968153     1.007825032070
           C          2.138923200235    -0.386737263526     0.428597968153    12.000000000000
           H          1.083470200235     1.222129736474    -0.529488031847     1.007825032070
           H          0.578414200235    -0.361573263526    -1.057149031847     1.007825032070
           C          3.309456200235    -0.421813263526    -0.553150031847    12.000000000000
           H          2.421604200235     0.186822736474     1.308679968153     1.007825032070
           H          1.926735200235    -1.395453263526     0.775060968153     1.007825032070
           H          3.567895200235     0.577370736474    -0.892109031847     1.007825032070
           H          3.067760200235    -1.015897263526    -1.429557031847     1.007825032070
           H          4.192799200235    -0.853731263526    -0.093609031847     1.007825032070
           H         -3.252021799765     1.076913736474    -0.883762031847     1.007825032070
           H         -1.780971799765     2.056871736474    -0.734445031847     1.007825032070
           H         -2.777051799765     1.768831736474     0.673284968153     1.007825032070

  Charge       = 0
  Multiplicity = 1
  Basis Set: 6-31G*
  Basis Set:

    Orbital Energies (a.u.)
    -----------------------

    Doubly Occupied:

       1A    -20.547182     2A    -11.324756     3A    -11.229564
       4A    -11.228482     5A    -11.228258     6A    -11.223639
       7A    -11.213580     8A     -1.393232     9A     -1.090664
      10A     -1.028875    11A     -0.983360    12A     -0.889030
      13A     -0.806644    14A     -0.733701    15A     -0.664122
      16A     -0.641025    17A     -0.623823    18A     -0.612469
      19A     -0.581451    20A     -0.574159    21A     -0.553849
      22A     -0.531551    23A     -0.520875    24A     -0.495514
      25A     -0.479811    26A     -0.471305    27A     -0.468281
      28A     -0.396937

  @DF-RHF Final Energy:  -309.06210909168004

   => Energetics <=

    Nuclear Repulsion Energy =            301.8172854718251870
    One-Electron Energy =               -1016.6866853642465003
    Two-Electron Energy =                 405.8072908007417254
    DFT Exchange-Correlation Energy =       0.0000000000000000
    Empirical Dispersion Energy =           0.0000000000000000
    PCM Polarization Energy =               0.0000000000000000
    EFP Energy =                            0.0000000000000000
    Total Energy =                       -309.0621090916796447

  Mulliken Charges: (a.u.)
   Center  Symbol    Alpha    Beta     Spin     Total
       1     O     4.26222  4.26222  0.00000 -0.52445
       2     C     2.74035  2.74035  0.00000  0.51930
       3     C     3.20009  3.20009  0.00000 -0.40017
       4     C     3.28950  3.28950  0.00000 -0.57899
       5     C     3.16101  3.16101  0.00000 -0.32202
       6     H     0.41551  0.41551  0.00000  0.16898
       7     H     0.40015  0.40015  0.00000  0.19970
       8     C     3.15304  3.15304  0.00000 -0.30608
       9     H     0.42007  0.42007  0.00000  0.15986
      10     H     0.40702  0.40702  0.00000  0.18597
      11     C     3.24105  3.24105  0.00000 -0.48211
      12     H     0.42198  0.42198  0.00000  0.15605
      13     H     0.41669  0.41669  0.00000  0.16662
      14     H     0.42175  0.42175  0.00000  0.15651
      15     H     0.41866  0.41866  0.00000  0.16268
      16     H     0.41739  0.41739  0.00000  0.16522
      17     H     0.39717  0.39717  0.00000  0.20566
      18     H     0.40967  0.40967  0.00000  0.18066
      19     H     0.40669  0.40669  0.00000  0.18661

   Total alpha = 28.00000, Total beta = 28.00000, Total charge =  0.00000
