  ==> Input File <==

--------------------------------------------------------------------------
set {
	reference rhf
	basis 6-31G*
}

set_num_threads( 4 )
memory 2 gb

molecule MOL {
0 1

O	 3.855471	 -0.274617	 -0.453666
C	 2.843464	 0.164689	 -0.000222
C	 1.546494	 -0.624492	 -0.000609
C	 2.788372	 1.550251	 0.609974
C	 0.291004	 0.242674	 0.000989
H	 1.557904	 -1.283758	 -0.867573
H	 1.558622	 -1.285963	 0.864672
C	 -0.994322	 -0.586602	 0.000262
H	 0.309117	 0.896430	 -0.865270
H	 0.309661	 0.894078	 0.869017
C	 -2.259874	 0.272531	 0.000494
H	 -1.004862	 -1.240012	 -0.870939
H	 -1.005220	 -1.241071	 0.870675
C	 -3.549786	 -0.549746	 -0.000374
H	 -2.250389	 0.926680	 -0.869574
H	 -2.250838	 0.925513	 0.871430
C	 -4.809590	 0.315458	 -0.000369
H	 -3.560515	 -1.202009	 -0.871156
H	 -3.561123	 -1.202955	 0.869711
H	 -4.844746	 0.956611	 -0.876632
H	 -5.706986	 -0.295590	 -0.001609
H	 -4.845960	 0.954827	 0.877144
H	 2.470676	 1.495269	 1.647116
H	 3.764423	 2.011969	 0.555433
H	 2.065667	 2.167202	 0.083948

	symmetry c1
}
set optking {
	frozen_dihedral = ("
		1 2 3 6
	")
}

ee = optimize('scf')
oeprop('DIPOLE', 'QUADRUPOLE', 'MULLIKEN_CHARGES')
f=open( 'psi4out.xyz', 'w' )
f.write( "25  " )
f.write( str(ee) + "\n" )
f.write( MOL.save_string_xyz() )
f.close()
--------------------------------------------------------------------------

    Molecular point group: c1
  Charge       = 0
  Multiplicity = 1
  Basis Set: 6-31G*
  Basis Set:
  @DF-RHF Final Energy:  -387.13108544662612
    Total Energy =                       -387.1310854466262299
    Molecular point group: c1
  Basis Set: 6-31G*
  Basis Set:
  Basis Set: 6-31G*
  Basis Set:
  @DF-RHF Final Energy:  -387.13137268748733
    Total Energy =                       -387.1313726874871008
  Basis Set: 6-31G*
  Basis Set:
  Basis Set: 6-31G*
  Basis Set:
  @DF-RHF Final Energy:  -387.13257255011598
    Total Energy =                       -387.1325725501154693
  Basis Set: 6-31G*
  Basis Set:
  Basis Set: 6-31G*
  Basis Set:
  @DF-RHF Final Energy:  -387.13219508401903
    Total Energy =                       -387.1321950840188038
  Basis Set: 6-31G*
  Basis Set:
  Basis Set: 6-31G*
  Basis Set:
  @DF-RHF Final Energy:  -387.13295232054554
    Total Energy =                       -387.1329523205459964
  Basis Set: 6-31G*
  Basis Set:
  Basis Set: 6-31G*
  Basis Set:
  @DF-RHF Final Energy:  -387.13296890024549
    Total Energy =                       -387.1329689002450323
  Basis Set: 6-31G*
  Basis Set:
  Charge       = 0
  Multiplicity = 1
  Basis Set: 6-31G*
  Basis Set:

    Orbital Energies (a.u.)
    -----------------------

    Doubly Occupied:

       1A    -20.546098     2A    -11.325172     3A    -11.231261
       4A    -11.230309     5A    -11.227351     6A    -11.224208
       7A    -11.220708     8A    -11.220007     9A    -11.212627
      10A     -1.392462    11A     -1.101609    12A     -1.060887
      13A     -1.010088    14A     -0.971373    15A     -0.898234
      16A     -0.821852    17A     -0.797532    18A     -0.731019
      19A     -0.668657    20A     -0.648138    21A     -0.636067
      22A     -0.622065    23A     -0.598815    24A     -0.589590
      25A     -0.563951    26A     -0.560228    27A     -0.546370
      28A     -0.531342    29A     -0.520851    30A     -0.497344
      31A     -0.489557    32A     -0.473888    33A     -0.469543
      34A     -0.468873    35A     -0.458974    36A     -0.395630

  @DF-RHF Final Energy:  -387.13296920803890

   => Energetics <=

    Nuclear Repulsion Energy =            438.6054184045454463
    One-Electron Energy =               -1393.5514103391274148
    Two-Electron Energy =                 567.8130227265430676
    DFT Exchange-Correlation Energy =       0.0000000000000000
    Empirical Dispersion Energy =           0.0000000000000000
    PCM Polarization Energy =               0.0000000000000000
    EFP Energy =                            0.0000000000000000
    Total Energy =                       -387.1329692080389577
    Molecular point group: c1
  Basis Set: 6-31G*
  Basis Set:

  -Total Gradient:
     Atom            X                  Y                   Z
    ------   -----------------  -----------------  -----------------
       1        0.000466181277    -0.000640063687     0.001545731174
       2       -0.000738398067     0.001171952754    -0.002441752133
       3        0.000975687995    -0.001569705915     0.001717759694
       4        0.000052266713    -0.000027791415     0.000057091115
       5        0.000004056363    -0.000090791503     0.000087039635
       6       -0.000716084385     0.001155640660    -0.000913277168
       7       -0.000025141407    -0.000007986057    -0.000002195987
       8       -0.000030471415     0.000030772038    -0.000014655375
       9        0.000013511784    -0.000007175974     0.000025542161
      10       -0.000013037410    -0.000028782658    -0.000001356275
      11       -0.000013805485    -0.000008501140    -0.000039858096
      12        0.000014035130    -0.000015905735     0.000004709269
      13        0.000000029218     0.000024403872     0.000006770229
      14       -0.000000152318     0.000001400768    -0.000010262966
      15       -0.000004898503     0.000009012626    -0.000002933612
      16        0.000009072193    -0.000008040030    -0.000001788221
      17        0.000002734143     0.000001307323     0.000002654048
      18       -0.000001988483    -0.000000277587    -0.000000717396
      19        0.000002034337    -0.000002318981     0.000001235466
      20        0.000000471229    -0.000000130646    -0.000000251852
      21        0.000002068551    -0.000001155908     0.000001335842
      22       -0.000001067434     0.000001517595     0.000000511168
      23        0.000022466565    -0.000000992082    -0.000013093913
      24       -0.000009228829     0.000000212853     0.000001432520
      25       -0.000010341760     0.000013398832    -0.000009669328

  **** Optimization is complete! (in 7 steps) ****
    Final optimized geometry and variables:
    Molecular point group: c1

    Geometry (in Angstrom), charge = 0, multiplicity = 1:

    O            3.861720095976    -0.418106725788    -0.501281410867
    C            2.899234380463     0.110430242096    -0.033437674096
    C            1.568597348982    -0.628416992465     0.004470268911
    C            2.995366109478     1.486907104970     0.589579416180
    C            0.299163550154     0.228317030309     0.011777869443
    H            1.563656236031    -1.296316393664    -0.849561319016
    H            1.592319535913    -1.256753073991     0.893870960086
    C           -0.971942260808    -0.623360663126    -0.007053090264
    H            0.298482639848     0.887653315793    -0.853879516334
    H            0.282856952729     0.870536297175     0.888326988188
    C           -2.254265756567     0.210321158692    -0.010434421628
    H           -0.958865893569    -1.268518193240    -0.883264280332
    H           -0.973596970054    -1.284244396771     0.857976472429
    C           -3.526508844694    -0.638913483214    -0.030209669748
    H           -2.251510490165     0.872049720863    -0.874992149945
    H           -2.267453630522     0.855392367520     0.866630713428
    C           -4.803953254843     0.199894109166    -0.033126433061
    H           -3.515662387063    -1.282698277178    -0.907032496296
    H           -3.531179959661    -1.300281418251     0.833561858563
    H           -4.845711010872     0.847759974013    -0.904143051455
    H           -5.687852268473    -0.430074120910    -0.047254318009
    H           -4.861309544166     0.830316502865     0.849762352725
    H            2.642859066044     1.467482595559     1.616738973190
    H            4.024988224575     1.815034391542     0.565525866913
    H            2.377863190423     2.198336518167     0.050437394460

  Mulliken Charges: (a.u.)
   Center  Symbol    Alpha    Beta     Spin     Total
       1     O     4.26327  4.26327  0.00000 -0.52653
       2     C     2.73293  2.73293  0.00000  0.53413
       3     C     3.20622  3.20622  0.00000 -0.41243
       4     C     3.29211  3.29211  0.00000 -0.58421
       5     C     3.16315  3.16315  0.00000 -0.32630
       6     H     0.39912  0.39912  0.00000  0.20176
       7     H     0.40470  0.40470  0.00000  0.19060
       8     C     3.15243  3.15243  0.00000 -0.30486
       9     H     0.41859  0.41859  0.00000  0.16282
      10     H     0.41938  0.41938  0.00000  0.16123
      11     C     3.15106  3.15106  0.00000 -0.30212
      12     H     0.42004  0.42004  0.00000  0.15992
      13     H     0.42183  0.42183  0.00000  0.15634
      14     C     3.15195  3.15195  0.00000 -0.30390
      15     H     0.42299  0.42299  0.00000  0.15402
      16     H     0.42372  0.42372  0.00000  0.15256
      17     C     3.23960  3.23960  0.00000 -0.47919
      18     H     0.42198  0.42198  0.00000  0.15604
      19     H     0.42246  0.42246  0.00000  0.15509
      20     H     0.42133  0.42133  0.00000  0.15734
      21     H     0.41831  0.41831  0.00000  0.16339
      22     H     0.42162  0.42162  0.00000  0.15677
      23     H     0.40932  0.40932  0.00000  0.18136
      24     H     0.39572  0.39572  0.00000  0.20856
      25     H     0.40619  0.40619  0.00000  0.18763

   Total alpha = 36.00000, Total beta = 36.00000, Total charge =  0.00000
