  ==> Input File <==

--------------------------------------------------------------------------
set {
	reference rhf
	basis 6-31G*
}

set_num_threads( 4 )
memory 2 gb

molecule MOL {
0 1

O	 0.749854	 1.307668	 -0.000040
C	 0.576249	 0.131685	 -0.000108
C	 -0.766779	 -0.556801	 -0.000461
O	 1.568443	 -0.749345	 -0.000005
C	 -1.945214	 0.412366	 0.000161
H	 -0.796911	 -1.211249	 -0.867467
H	 -0.796854	 -1.212390	 0.865687
C	 -2.792042	 0.284927	 1.265550
H	 -2.558737	 0.230534	 -0.875698
H	 -1.574186	 1.427076	 -0.096153
H	 -3.201818	 -0.716050	 1.368415
H	 -3.623997	 0.981258	 1.246193
H	 -2.206677	 0.494849	 2.156479
C	 2.886820	 -0.232538	 0.000322
H	 3.059106	 0.369571	 -0.880203
H	 3.540187	 -1.091012	 0.000050
H	 3.059019	 0.368956	 0.881266

	symmetry c1
}
set optking {
	frozen_dihedral = ("
		9 5 3 6
	")
}

ee = optimize('scf')
oeprop('DIPOLE', 'QUADRUPOLE', 'MULLIKEN_CHARGES')
f=open( 'psi4out.xyz', 'w' )
f.write( "17  " )
f.write( str(ee) + "\n" )
f.write( MOL.save_string_xyz() )
f.close()
--------------------------------------------------------------------------

    Molecular point group: c1
  Charge       = 0
  Multiplicity = 1
  Basis Set: 6-31G*
  Basis Set:
  @DF-RHF Final Energy:  -344.90175311431017
    Total Energy =                       -344.9017531143100541
    Molecular point group: c1
  Basis Set: 6-31G*
  Basis Set:
  Basis Set: 6-31G*
  Basis Set:
  @DF-RHF Final Energy:  -344.90204894830492
    Total Energy =                       -344.9020489483049232
  Basis Set: 6-31G*
  Basis Set:
  Basis Set: 6-31G*
  Basis Set:
  @DF-RHF Final Energy:  -344.90187614545459
    Total Energy =                       -344.9018761454547075
  Basis Set: 6-31G*
  Basis Set:
  Basis Set: 6-31G*
  Basis Set:
  @DF-RHF Final Energy:  -344.90216007786546
    Total Energy =                       -344.9021600778653465
  Basis Set: 6-31G*
  Basis Set:
  Basis Set: 6-31G*
  Basis Set:
  @DF-RHF Final Energy:  -344.90216452289485
    Total Energy =                       -344.9021645228949637
  Basis Set: 6-31G*
  Basis Set:
  Charge       = 0
  Multiplicity = 1
  Basis Set: 6-31G*
  Basis Set:

    Orbital Energies (a.u.)
    -----------------------

    Doubly Occupied:

       1A    -20.604327     2A    -20.546711     3A    -11.373641
       4A    -11.281364     5A    -11.235779     6A    -11.219916
       7A    -11.212754     8A     -1.470388     9A     -1.363748
      10A     -1.077133    11A     -1.001266    12A     -0.938840
      13A     -0.828649    14A     -0.766710    15A     -0.702504
      16A     -0.681802    17A     -0.672811    18A     -0.625537
      19A     -0.604063    20A     -0.570316    21A     -0.570011
      22A     -0.532072    23A     -0.524529    24A     -0.487756
      25A     -0.485178    26A     -0.475071    27A     -0.457898
      28A     -0.440365

  @DF-RHF Final Energy:  -344.90216541707900

   => Energetics <=

    Nuclear Repulsion Energy =            313.7563506778876672
    One-Electron Energy =               -1091.8147506608479489
    Two-Electron Energy =                 433.1562345658813911
    DFT Exchange-Correlation Energy =       0.0000000000000000
    Empirical Dispersion Energy =           0.0000000000000000
    PCM Polarization Energy =               0.0000000000000000
    EFP Energy =                            0.0000000000000000
    Total Energy =                       -344.9021654170788906
    Molecular point group: c1
  Basis Set: 6-31G*
  Basis Set:

  -Total Gradient:
     Atom            X                  Y                   Z
    ------   -----------------  -----------------  -----------------
       1        0.000029606401    -0.000038348418    -0.000027180051
       2       -0.000087285022     0.000069466325    -0.000005066192
       3        0.000734226307     0.001017678519    -0.000719323152
       4       -0.000027250697     0.000023104756     0.000024255100
       5       -0.000799089351    -0.000979615906     0.000782403344
       6       -0.000536449447    -0.000662492228     0.000500121754
       7       -0.000010252691    -0.000036845774    -0.000016467772
       8        0.000033621058    -0.000059971177     0.000021644320
       9        0.000547481929     0.000650614546    -0.000522721064
      10        0.000060420793     0.000005475333    -0.000004220223
      11        0.000012857700     0.000004944360     0.000012258197
      12        0.000018000956    -0.000000304750    -0.000041772099
      13       -0.000008576683     0.000008790693     0.000002680569
      14        0.000031597544    -0.000006798827    -0.000003650003
      15       -0.000002131447     0.000000083819    -0.000001643291
      16        0.000005458022     0.000005793606    -0.000000667688
      17       -0.000002235376    -0.000001574875    -0.000000651747

  **** Optimization is complete! (in 6 steps) ****
    Final optimized geometry and variables:
    Molecular point group: c1

    Geometry (in Angstrom), charge = 0, multiplicity = 1:

    O            0.699512822015     1.225359462517    -0.160523037429
    C            0.512119313054     0.051844124842    -0.184488007349
    C           -0.833037493510    -0.637948839574    -0.192105355136
    O            1.496522930577    -0.837755476584    -0.203077712496
    C           -2.040715689710     0.314354159777    -0.185643462011
    H           -0.844648483807    -1.301037412411    -1.051042342395
    H           -0.843648707216    -1.297052048216     0.671531805594
    C           -2.890236966228     0.198015308748     1.079710596353
    H           -2.658013045207     0.117202886097    -1.056271417557
    H           -1.686058423236     1.331788068923    -0.287749718140
    H           -3.287283401071    -0.806079683964     1.200779848863
    H           -3.730052888784     0.884595122943     1.047286537939
    H           -2.304891181167     0.433092380350     1.964054278402
    C            2.819785271750    -0.333498468557    -0.193580450835
    H            2.996778671312     0.285380487175    -1.061387504672
    H            3.464926085053    -1.197986155585    -0.212877388108
    H            2.998636518922     0.247401896556     0.699741374752

  Mulliken Charges: (a.u.)
   Center  Symbol    Alpha    Beta     Spin     Total
       1     O     4.28474  4.28474  0.00000 -0.56947
       2     C     2.61354  2.61354  0.00000  0.77291
       3     C     3.20924  3.20924  0.00000 -0.41848
       4     O     4.30493  4.30493  0.00000 -0.60986
       5     C     3.16213  3.16213  0.00000 -0.32425
       6     H     0.39707  0.39707  0.00000  0.20586
       7     H     0.39790  0.39790  0.00000  0.20419
       8     C     3.24238  3.24238  0.00000 -0.48476
       9     H     0.41819  0.41819  0.00000  0.16363
      10     H     0.39350  0.39350  0.00000  0.21300
      11     H     0.42233  0.42233  0.00000  0.15534
      12     H     0.41701  0.41701  0.00000  0.16597
      13     H     0.41863  0.41863  0.00000  0.16274
      14     C     3.09206  3.09206  0.00000 -0.18413
      15     H     0.40892  0.40892  0.00000  0.18217
      16     H     0.40840  0.40840  0.00000  0.18320
      17     H     0.40903  0.40903  0.00000  0.18193

   Total alpha = 28.00000, Total beta = 28.00000, Total charge =  0.00000
