  ==> Input File <==

--------------------------------------------------------------------------
set {
	reference rhf
	basis 6-31G*
}

set_num_threads( 4 )
memory 2 gb

molecule MOL {
0 1

H	 -3.650283	 0.221984	 0.000000
C	 -2.577024	 0.154109	 0.000000
C	 -1.960329	 -1.089307	 0.000000
C	 -1.811733	 1.307557	 0.000000
H	 -2.554473	 -1.985285	 0.000000
C	 -0.581547	 -1.175855	 0.000000
H	 -2.287118	 2.271701	 0.000000
C	 -0.428719	 1.219221	 0.000000
H	 -0.090826	 -2.129898	 0.000000
C	 0.198341	 -0.021559	 0.000000
H	 0.149947	 2.124040	 0.000000
C	 1.691355	 -0.173192	 0.000000
C	 2.378338	 -0.697888	 1.243499
O	 2.331405	 0.115784	 -0.967576
H	 2.186554	 -0.051714	 2.094062
H	 3.441898	 -0.737711	 1.057097
H	 2.020053	 -1.691122	 1.494297

	symmetry c1
}
set optking {
	frozen_dihedral = ("
		13 12 10 8
	")
}

ee = optimize('scf')
oeprop('DIPOLE', 'QUADRUPOLE', 'MULLIKEN_CHARGES')
f=open( 'psi4out.xyz', 'w' )
f.write( "17  " )
f.write( str(ee) + "\n" )
f.write( MOL.save_string_xyz() )
f.close()
--------------------------------------------------------------------------

    Molecular point group: c1
  Charge       = 0
  Multiplicity = 1
  Basis Set: 6-31G*
  Basis Set:
  @DF-RHF Final Energy:  -382.46635694255713
    Total Energy =                       -382.4663569425576952
    Molecular point group: c1
  Basis Set: 6-31G*
  Basis Set:
  Basis Set: 6-31G*
  Basis Set:
  @DF-RHF Final Energy:  -382.46655791351390
    Total Energy =                       -382.4665579135132703
  Basis Set: 6-31G*
  Basis Set:
  Basis Set: 6-31G*
  Basis Set:
  @DF-RHF Final Energy:  -382.46660994812186
    Total Energy =                       -382.4666099481219135
  Basis Set: 6-31G*
  Basis Set:
  Basis Set: 6-31G*
  Basis Set:
  @DF-RHF Final Energy:  -382.46760568054736
    Total Energy =                       -382.4676056805473081
  Basis Set: 6-31G*
  Basis Set:
  @DF-RHF Final Energy:  -382.46763918897113
    Total Energy =                       -382.4676391889714751
  @DF-RHF Final Energy:  -382.46764747592528
    Total Energy =                       -382.4676474759253324
  Basis Set: 6-31G*
  Basis Set:
  @DF-RHF Final Energy:  -382.46764999728430
    Total Energy =                       -382.4676499972838428
  Basis Set: 6-31G*
  Basis Set:
  Basis Set: 6-31G*
  Basis Set:
  @DF-RHF Final Energy:  -382.46760414015620
    Total Energy =                       -382.4676041401557995
  Basis Set: 6-31G*
  Basis Set:
  Basis Set: 6-31G*
  Basis Set:
  @DF-RHF Final Energy:  -382.46764927829918
    Total Energy =                       -382.4676492782996320
  Basis Set: 6-31G*
  Basis Set:
  Charge       = 0
  Multiplicity = 1
  Basis Set: 6-31G*
  Basis Set:

    Orbital Energies (a.u.)
    -----------------------

    Doubly Occupied:

       1A    -20.556407     2A    -11.333691     3A    -11.247262
       4A    -11.245062     5A    -11.242756     6A    -11.241793
       7A    -11.240796     8A    -11.239799     9A    -11.231256
      10A     -1.401401    11A     -1.166092    12A     -1.050711
      13A     -1.026071    14A     -0.998025    15A     -0.859422
      16A     -0.837515    17A     -0.761540    18A     -0.703095
      19A     -0.662402    20A     -0.643694    21A     -0.625340
      22A     -0.620288    23A     -0.599500    24A     -0.589595
      25A     -0.561376    26A     -0.523191    27A     -0.513174
      28A     -0.504799    29A     -0.491406    30A     -0.409651
      31A     -0.344014    32A     -0.341824

  @DF-RHF Final Energy:  -382.46764894971068

   => Energetics <=

    Nuclear Repulsion Energy =            402.7907715737445642
    One-Electron Energy =               -1316.8909437703314325
    Two-Electron Energy =                 531.6325232468768718
    DFT Exchange-Correlation Energy =       0.0000000000000000
    Empirical Dispersion Energy =           0.0000000000000000
    PCM Polarization Energy =               0.0000000000000000
    EFP Energy =                            0.0000000000000000
    Total Energy =                       -382.4676489497099965
    Molecular point group: c1
  Basis Set: 6-31G*
  Basis Set:

  -Total Gradient:
     Atom            X                  Y                   Z
    ------   -----------------  -----------------  -----------------
       1        0.000002250171     0.000001369020    -0.000001713496
       2       -0.000000559178     0.000055265335     0.000007029985
       3        0.000033509576    -0.000039420381     0.000028620896
       4       -0.000049021499    -0.000039876494    -0.000026388767
       5       -0.000002330491    -0.000000265980    -0.000003187567
       6       -0.000026543942    -0.000018913271    -0.000060011744
       7        0.000002456438     0.000004501075     0.000009832117
       8        0.000000831327    -0.000120103539     0.003761018050
       9       -0.000010803334    -0.000001756889     0.000092344570
      10        0.000122487819     0.001518752479    -0.005050221320
      11        0.000005718076    -0.000005377729     0.000063455826
      12       -0.000300626741    -0.004196102857     0.000087774496
      13        0.000210512095     0.003055832269     0.001168650041
      14        0.000038554144    -0.000172284822    -0.000065003848
      15       -0.000032758236    -0.000010317050     0.000001277647
      16       -0.000012959695    -0.000020871991    -0.000012017466
      17        0.000019283465    -0.000010429176    -0.000001459417

  **** Optimization is complete! (in 10 steps) ****
    Final optimized geometry and variables:
    Molecular point group: c1

    Geometry (in Angstrom), charge = 0, multiplicity = 1:

    H           -3.640423192239     0.275704710204     0.012690447484
    C           -2.568683891187     0.191994306561    -0.008200138792
    C           -1.970593097078    -1.057580169561    -0.025865631879
    C           -1.783058941683     1.333540607138    -0.015132420199
    H           -2.576398772402    -1.945842805142    -0.022227573709
    C           -0.589669992139    -1.165395919053    -0.040963492349
    H           -2.243481834537     2.304990089188     0.002806376278
    C           -0.402872215243     1.226730408226    -0.049908738095
    H           -0.132493285741    -2.139638696982    -0.043804481539
    C            0.200427193100    -0.023842614405    -0.071170282266
    H            0.206818669952     2.112118587047    -0.071466280486
    C            1.704550574557    -0.113213607782    -0.061311848314
    C            2.348723291339    -0.640658483264     1.201180560566
    O            2.352855663054     0.292080886652    -0.976276025438
    H            2.114188336436     0.028616326249     2.023824403510
    H            3.420644166198    -0.695410944987     1.069576147495
    H            1.958530156544    -1.618113357186     1.465795340586

  Mulliken Charges: (a.u.)
   Center  Symbol    Alpha    Beta     Spin     Total
       1     H     0.39651  0.39651  0.00000  0.20699
       2     C     3.09822  3.09822  0.00000 -0.19645
       3     C     3.09894  3.09894  0.00000 -0.19787
       4     C     3.09886  3.09886  0.00000 -0.19772
       5     H     0.39627  0.39627  0.00000  0.20747
       6     C     3.10513  3.10513  0.00000 -0.21026
       7     H     0.39582  0.39582  0.00000  0.20837
       8     C     3.10119  3.10119  0.00000 -0.20237
       9     H     0.39556  0.39556  0.00000  0.20889
      10     C     3.03023  3.03023  0.00000 -0.06045
      11     H     0.38892  0.38892  0.00000  0.22216
      12     C     2.74939  2.74939  0.00000  0.50122
      13     C     3.28624  3.28624  0.00000 -0.57248
      14     O     4.25063  4.25063  0.00000 -0.50126
      15     H     0.40288  0.40288  0.00000  0.19424
      16     H     0.39743  0.39743  0.00000  0.20514
      17     H     0.40780  0.40780  0.00000  0.18440

   Total alpha = 32.00000, Total beta = 32.00000, Total charge = -0.00000
