  ==> Input File <==

--------------------------------------------------------------------------
set {
	reference rhf
	basis 6-31G*
}

set_num_threads( 4 )
memory 2 gb

molecule MOL {
0 1

H	 -3.420663	 1.227371	 -1.044276
O	 -3.452007	 0.283848	 -0.965577
C	 -3.181085	 -0.079926	 0.364119
C	 -1.765924	 0.277073	 0.805136
H	 -3.327791	 -1.152017	 0.410903
H	 -3.905698	 0.375695	 1.036898
C	 -0.677594	 -0.417312	 -0.014550
H	 -1.637766	 1.358238	 0.744969
H	 -1.659588	 0.017670	 1.857098
C	 0.738335	 -0.034840	 0.421385
H	 -0.814977	 -0.178223	 -1.064632
H	 -0.802730	 -1.495410	 0.071702
C	 1.822265	 -0.738362	 -0.399735
H	 0.853533	 1.043532	 0.342250
H	 0.871597	 -0.279636	 1.474438
C	 1.317446	 -1.425242	 -1.673905
H	 2.328399	 -1.471663	 0.226199
H	 2.577341	 -0.006335	 -0.678685
C	 0.380673	 -2.609740	 -1.429312
H	 2.177380	 -1.773032	 -2.241219
H	 0.816193	 -0.692353	 -2.303049
H	 0.851096	 -3.353846	 -0.792014
H	 0.120183	 -3.094836	 -2.365081
H	 -0.545239	 -2.304244	 -0.953366

	symmetry c1
}
set optking {
	frozen_dihedral = ("
		17 13 10 7
	")
}

ee = optimize('scf')
oeprop('DIPOLE', 'QUADRUPOLE', 'MULLIKEN_CHARGES')
f=open( 'psi4out.xyz', 'w' )
f.write( "24  " )
f.write( str(ee) + "\n" )
f.write( MOL.save_string_xyz() )
f.close()
--------------------------------------------------------------------------

    Molecular point group: c1
  Charge       = 0
  Multiplicity = 1
  Basis Set: 6-31G*
  Basis Set:
  @DF-RHF Final Energy:  -349.20763824007071
    Total Energy =                       -349.2076382400707644
    Molecular point group: c1
  Basis Set: 6-31G*
  Basis Set:
  Basis Set: 6-31G*
  Basis Set:
  @DF-RHF Final Energy:  -349.22896503121996
    Total Energy =                       -349.2289650312200138
  Basis Set: 6-31G*
  Basis Set:
  Basis Set: 6-31G*
  Basis Set:
  @DF-RHF Final Energy:  -349.23388094801197
    Total Energy =                       -349.2338809480119153
  Basis Set: 6-31G*
  Basis Set:
  Basis Set: 6-31G*
  Basis Set:
  @DF-RHF Final Energy:  -349.23524183556356
    Total Energy =                       -349.2352418355633290
  Basis Set: 6-31G*
  Basis Set:
  @DF-RHF Final Energy:  -349.23577122352810
    Total Energy =                       -349.2357712235279337
  @DF-RHF Final Energy:  -349.23579948408315
    Total Energy =                       -349.2357994840828042
  Basis Set: 6-31G*
  Basis Set:
  @DF-RHF Final Energy:  -349.23599117593261
    Total Energy =                       -349.2359911759328952
  Basis Set: 6-31G*
  Basis Set:
  Basis Set: 6-31G*
  Basis Set:
  @DF-RHF Final Energy:  -349.23600008360114
    Total Energy =                       -349.2360000836012546
  Basis Set: 6-31G*
  Basis Set:
  Basis Set: 6-31G*
  Basis Set:
  @DF-RHF Final Energy:  -349.23600210061505
    Total Energy =                       -349.2360021006148827
  Basis Set: 6-31G*
  Basis Set:
  Charge       = 0
  Multiplicity = 1
  Basis Set: 6-31G*
  Basis Set:

    Orbital Energies (a.u.)
    -----------------------

    Doubly Occupied:

       1A    -20.553946     2A    -11.267920     3A    -11.217512
       4A    -11.213713     5A    -11.213065     6A    -11.212227
       7A    -11.210850     8A    -11.203832     9A     -1.360483
      10A     -1.084725    11A     -1.044777    12A     -0.982953
      13A     -0.919283    14A     -0.849898    15A     -0.808955
      16A     -0.763544    17A     -0.680263    18A     -0.652348
      19A     -0.618911    20A     -0.612912    21A     -0.608435
      22A     -0.582665    23A     -0.555189    24A     -0.539156
      25A     -0.517095    26A     -0.509117    27A     -0.495934
      28A     -0.481115    29A     -0.469750    30A     -0.456258
      31A     -0.444486    32A     -0.441435    33A     -0.420266

  @DF-RHF Final Energy:  -349.23600239122248

   => Energetics <=

    Nuclear Repulsion Energy =            393.5321712221550001
    One-Electron Energy =               -1253.5503033733691609
    Two-Electron Energy =                 510.7821297599916193
    DFT Exchange-Correlation Energy =       0.0000000000000000
    Empirical Dispersion Energy =           0.0000000000000000
    PCM Polarization Energy =               0.0000000000000000
    EFP Energy =                            0.0000000000000000
    Total Energy =                       -349.2360023912224847
    Molecular point group: c1
  Basis Set: 6-31G*
  Basis Set:

  -Total Gradient:
     Atom            X                  Y                   Z
    ------   -----------------  -----------------  -----------------
       1        0.000001726030    -0.000007817525     0.000006312818
       2        0.000031669429    -0.000032377845    -0.000022450435
       3       -0.000008615390     0.000051871224    -0.000007561641
       4       -0.000011474270    -0.000045318769     0.000059813067
       5        0.000004483972     0.000009551406    -0.000000390121
       6       -0.000000944345     0.000006001848     0.000005895960
       7       -0.000028390285     0.002362603895    -0.001949621756
       8        0.000003377682    -0.000014447909    -0.000013691372
       9        0.000008277787    -0.000005494165     0.000003001380
      10        0.000580145101    -0.002763582955     0.003174679977
      11        0.000014541280    -0.000019962662    -0.000013031776
      12       -0.000006859122     0.000003955428    -0.000018661544
      13       -0.003171326351    -0.002329505901    -0.002433660673
      14        0.000017616453     0.000000167958    -0.000004839840
      15       -0.000000503471    -0.000015697848    -0.000008559901
      16       -0.000006934916    -0.000008932118     0.000023444992
      17        0.002546849208     0.002805243021     0.001185793385
      18        0.000020654952     0.000002724039    -0.000013482229
      19       -0.000028828182    -0.000039903565    -0.000013516128
      20        0.000047188291     0.000040255600     0.000002729111
      21       -0.000009863234    -0.000011372456     0.000017833385
      22       -0.000004966279     0.000019829487     0.000007825348
      23       -0.000005685196     0.000016688879     0.000013225074
      24        0.000007860856    -0.000024479066    -0.000001087081

  **** Optimization is complete! (in 10 steps) ****
    Final optimized geometry and variables:
    Molecular point group: c1

    Geometry (in Angstrom), charge = 0, multiplicity = 1:

    H           -2.806295245403     1.929853999311    -0.633072681585
    O           -2.913055594833     1.004203928490    -0.462416417744
    C           -2.604591453490     0.742234068273     0.883137845496
    C           -1.141789760271     1.005699490110     1.222716003088
    H           -2.842994203960    -0.302346212979     1.040769337581
    H           -3.248934545113     1.323937639011     1.540105671381
    C           -0.165594892024     0.143744203444     0.419039458585
    H           -0.923833352410     2.060931808545     1.055962562803
    H           -1.000798951353     0.831998366747     2.288175768273
    C            1.292585090708     0.450002439801     0.777755760242
    H           -0.342874660702     0.307663218506    -0.637106092271
    H           -0.391028095448    -0.901357774875     0.613300359394
    C            2.422260998544    -0.246464121991    -0.032856141880
    H            1.424724327297     1.524879576016     0.674123209128
    H            1.442852859258     0.241408442887     1.833772404846
    C            2.089681647325    -0.900390586845    -1.383593045406
    H            2.925189181157    -0.974117275134     0.599806730716
    H            3.179382044888     0.510092520994    -0.221876728732
    C            1.493747765878    -2.307622319317    -1.301903470288
    H            3.016250811168    -0.965710053528    -1.948743473826
    H            1.436421147415    -0.255117274615    -1.964115044476
    H            2.155905645500    -2.972782836609    -0.754203556668
    H            1.358724641885    -2.723732133490    -2.295876947199
    H            0.529527850339    -2.323165915589    -0.809254654874

  Mulliken Charges: (a.u.)
   Center  Symbol    Alpha    Beta     Spin     Total
       1     H     0.28334  0.28334  0.00000  0.43331
       2     O     4.36830  4.36830  0.00000 -0.73660
       3     C     2.99620  2.99620  0.00000  0.00760
       4     C     3.16879  3.16879  0.00000 -0.33758
       5     H     0.41638  0.41638  0.00000  0.16724
       6     H     0.42806  0.42806  0.00000  0.14388
       7     C     3.15604  3.15604  0.00000 -0.31207
       8     H     0.42838  0.42838  0.00000  0.14325
       9     H     0.42235  0.42235  0.00000  0.15530
      10     C     3.15487  3.15487  0.00000 -0.30974
      11     H     0.41002  0.41002  0.00000  0.17996
      12     H     0.42219  0.42219  0.00000  0.15562
      13     C     3.15694  3.15694  0.00000 -0.31389
      14     H     0.42442  0.42442  0.00000  0.15115
      15     H     0.42192  0.42192  0.00000  0.15617
      16     C     3.15578  3.15578  0.00000 -0.31157
      17     H     0.42227  0.42227  0.00000  0.15545
      18     H     0.42080  0.42080  0.00000  0.15839
      19     C     3.24014  3.24014  0.00000 -0.48028
      20     H     0.42138  0.42138  0.00000  0.15724
      21     H     0.42058  0.42058  0.00000  0.15884
      22     H     0.42340  0.42340  0.00000  0.15320
      23     H     0.42021  0.42021  0.00000  0.15958
      24     H     0.41722  0.41722  0.00000  0.16555

   Total alpha = 33.00000, Total beta = 33.00000, Total charge =  0.00000
