  ==> Input File <==

--------------------------------------------------------------------------
set {
	reference rhf
	basis 6-31G*
}

set_num_threads( 4 )
memory 2 gb

molecule MOL {
0 1

H	 -4.139419	 0.664057	 -0.384538
O	 -3.517110	 -0.026191	 -0.205115
C	 -2.306886	 0.532354	 0.237577
C	 -1.177863	 -0.397191	 -0.171080
H	 -2.156308	 1.517575	 -0.201710
H	 -2.315015	 0.655684	 1.319734
C	 0.198102	 0.111031	 0.262842
H	 -1.208843	 -0.518759	 -1.250427
H	 -1.368741	 -1.376554	 0.258909
C	 1.331804	 -0.827780	 -0.158768
H	 0.361943	 1.100838	 -0.156218
H	 0.217265	 0.229072	 1.345532
C	 2.723619	 -0.410569	 0.329459
H	 1.342964	 -0.912588	 -1.244120
H	 1.116806	 -1.824343	 0.220779
C	 3.243875	 0.895854	 -0.272975
H	 3.424222	 -1.207124	 0.091250
H	 2.714788	 -0.329854	 1.414619
H	 3.251977	 0.848779	 -1.358681
H	 2.637085	 1.747371	 0.016682
H	 4.259473	 1.094070	 0.055697

	symmetry c1
}
set optking {
	frozen_dihedral = ("
		1 2 3 5
	")
}

ee = optimize('scf')
oeprop('DIPOLE', 'QUADRUPOLE', 'MULLIKEN_CHARGES')
f=open( 'psi4out.xyz', 'w' )
f.write( "21  " )
f.write( str(ee) + "\n" )
f.write( MOL.save_string_xyz() )
f.close()
--------------------------------------------------------------------------

    Molecular point group: c1
  Charge       = 0
  Multiplicity = 1
  Basis Set: 6-31G*
  Basis Set:
  @DF-RHF Final Energy:  -310.21179806331264
    Total Energy =                       -310.2117980633127559
    Molecular point group: c1
  Basis Set: 6-31G*
  Basis Set:
  Basis Set: 6-31G*
  Basis Set:
  @DF-RHF Final Energy:  -310.21185941666772
    Total Energy =                       -310.2118594166678349
  Basis Set: 6-31G*
  Basis Set:
  Basis Set: 6-31G*
  Basis Set:
  @DF-RHF Final Energy:  -310.21188709096702
    Total Energy =                       -310.2118870909670250
  Basis Set: 6-31G*
  Basis Set:
  Basis Set: 6-31G*
  Basis Set:
  @DF-RHF Final Energy:  -310.21188329739118
    Total Energy =                       -310.2118832973914095
  Basis Set: 6-31G*
  Basis Set:
  Basis Set: 6-31G*
  Basis Set:
  @DF-RHF Final Energy:  -310.21188737934335
    Total Energy =                       -310.2118873793435796
  Basis Set: 6-31G*
  Basis Set:
  Charge       = 0
  Multiplicity = 1
  Basis Set: 6-31G*
  Basis Set:

    Orbital Energies (a.u.)
    -----------------------

    Doubly Occupied:

       1A    -20.551064     2A    -11.267238     3A    -11.215692
       4A    -11.215233     5A    -11.213706     6A    -11.210569
       7A    -11.208411     8A     -1.357752     9A     -1.086275
      10A     -1.033220    11A     -0.954494    12A     -0.876011
      13A     -0.807957    14A     -0.778989    15A     -0.696013
      16A     -0.656402    17A     -0.623042    18A     -0.604157
      19A     -0.588341    20A     -0.570561    21A     -0.535601
      22A     -0.520772    23A     -0.511191    24A     -0.484726
      25A     -0.481337    26A     -0.461244    27A     -0.456200
      28A     -0.449326    29A     -0.427183

  @DF-RHF Final Energy:  -310.21188820856798

   => Energetics <=

    Nuclear Repulsion Energy =            312.3196983684515544
    One-Electron Energy =               -1039.3777576094246342
    Two-Electron Energy =                 416.8461710324049818
    DFT Exchange-Correlation Energy =       0.0000000000000000
    Empirical Dispersion Energy =           0.0000000000000000
    PCM Polarization Energy =               0.0000000000000000
    EFP Energy =                            0.0000000000000000
    Total Energy =                       -310.2118882085680980
    Molecular point group: c1
  Basis Set: 6-31G*
  Basis Set:

  -Total Gradient:
     Atom            X                  Y                   Z
    ------   -----------------  -----------------  -----------------
       1        0.000497654017     0.000080282836    -0.001678963277
       2       -0.000780375285     0.000084000089     0.002390325371
       3        0.000969090949    -0.000808191949    -0.001924639795
       4       -0.000036374393     0.000003335556     0.000016909033
       5       -0.000693729997     0.000668140642     0.001180772961
       6        0.000014120111    -0.000019182962     0.000008279449
       7       -0.000002226187    -0.000008065703     0.000008519135
       8       -0.000010649344     0.000005562183     0.000005075765
       9        0.000010926956    -0.000002936257    -0.000006855567
      10        0.000014706281     0.000005678885     0.000009040405
      11        0.000006725514    -0.000002582573     0.000000281374
      12       -0.000004641818     0.000002128724    -0.000002201296
      13        0.000011227995    -0.000006514635    -0.000014109861
      14       -0.000003982349    -0.000000079539     0.000004020889
      15        0.000006591973     0.000000006137     0.000001986501
      16        0.000000587897    -0.000003333892     0.000001503549
      17        0.000009742717     0.000000643318     0.000003396851
      18       -0.000005765620     0.000001712789    -0.000004208682
      19       -0.000002206612     0.000000474849    -0.000000339147
      20       -0.000002389325     0.000000015002     0.000002422643
      21        0.000000966526    -0.000001093501    -0.000001216299

  **** Optimization is complete! (in 6 steps) ****
    Final optimized geometry and variables:
    Molecular point group: c1

    Geometry (in Angstrom), charge = 0, multiplicity = 1:

    H           -4.165136002482     0.642687521650    -0.334976941004
    O           -3.529283112971    -0.036683015002    -0.167303484806
    C           -2.306114810505     0.535888881968     0.225119915665
    C           -1.176185227028    -0.393301155810    -0.182731801431
    H           -2.175342088287     1.515469893871    -0.231034739948
    H           -2.295341918465     0.684949044984     1.303605660340
    C            0.198842740581     0.111625128519     0.258077707947
    H           -1.203475662555    -0.515827547444    -1.262128851067
    H           -1.369866038652    -1.372620016195     0.246532480918
    C            1.333283763209    -0.827871503735    -0.160120095802
    H            0.366456132269     1.102259741112    -0.158075304740
    H            0.212840955065     0.227579147361     1.340929186906
    C            2.723597053503    -0.413090704122     0.334460961894
    H            1.349024293686    -0.911336028933    -1.245552486172
    H            1.115383158920    -1.824629879774     0.217215052469
    C            3.247776621415     0.893811302766    -0.263520268013
    H            3.424325838919    -1.209973197582     0.097720832239
    H            2.710387189287    -0.334238043115     1.419683919940
    H            3.259589230231     0.848925178769    -1.349307194786
    H            2.641190382653     1.745586074585     0.025831624866
    H            4.262507486085     1.089951623478     0.069033263830

  Mulliken Charges: (a.u.)
   Center  Symbol    Alpha    Beta     Spin     Total
       1     H     0.28048  0.28048  0.00000  0.43904
       2     O     4.37310  4.37310  0.00000 -0.74620
       3     C     2.99013  2.99013  0.00000  0.01973
       4     C     3.15801  3.15801  0.00000 -0.31603
       5     H     0.43357  0.43357  0.00000  0.13285
       6     H     0.43003  0.43003  0.00000  0.13994
       7     C     3.16225  3.16225  0.00000 -0.32449
       8     H     0.41721  0.41721  0.00000  0.16557
       9     H     0.41408  0.41408  0.00000  0.17183
      10     C     3.15169  3.15169  0.00000 -0.30339
      11     H     0.42235  0.42235  0.00000  0.15530
      12     H     0.42334  0.42334  0.00000  0.15333
      13     C     3.15251  3.15251  0.00000 -0.30501
      14     H     0.42334  0.42334  0.00000  0.15333
      15     H     0.42076  0.42076  0.00000  0.15849
      16     C     3.24116  3.24116  0.00000 -0.48232
      17     H     0.42062  0.42062  0.00000  0.15877
      18     H     0.42335  0.42335  0.00000  0.15330
      19     H     0.42216  0.42216  0.00000  0.15568
      20     H     0.42069  0.42069  0.00000  0.15863
      21     H     0.41917  0.41917  0.00000  0.16166

   Total alpha = 29.00000, Total beta = 29.00000, Total charge =  0.00000
