  ==> Input File <==

--------------------------------------------------------------------------
set {
	reference rhf
	basis cc-pvtz
}

set_num_threads( 4 )
memory 2 gb

molecule MOL {
0 1

O	 -0.988175	 -1.402891	 0.050086
C	 -0.675048	 -0.248293	 -0.009686
C	 -1.742492	 0.826599	 -0.011538
N	 0.622280	 0.144970	 -0.099307
H	 -1.692153	 1.431066	 -0.908439
H	 -2.698310	 0.331559	 0.031353
H	 -1.642148	 1.483784	 0.843455
C	 1.417363	 -0.317636	 -1.217246
C	 1.370360	 0.713190	 0.996711
H	 2.071723	 0.479096	 -1.549291
H	 0.770556	 -0.607948	 -2.025045
H	 2.031813	 -1.170072	 -0.938974
H	 2.092308	 1.419039	 0.606577
H	 0.732245	 1.245390	 1.681159
H	 1.914720	 -0.046166	 1.553571

	symmetry c1
}
set optking {
	frozen_dihedral = ("
		8 4 2 3
	")
}

ee = optimize('scf')
oeprop('DIPOLE', 'QUADRUPOLE', 'MULLIKEN_CHARGES')
f=open( 'psi4out.xyz', 'w' )
f.write( "15  " )
f.write( str(ee) + "\n" )
f.write( MOL.save_string_xyz() )
f.close()
--------------------------------------------------------------------------

    Molecular point group: c1
  Charge       = 0
  Multiplicity = 1
  Basis Set: CC-PVTZ
  Basis Set:
  @DF-RHF Final Energy:  -286.10658710595965
    Total Energy =                       -286.1065871059601591
    Molecular point group: c1
  Basis Set: CC-PVTZ
  Basis Set:
  Basis Set: CC-PVTZ
  Basis Set:
  @DF-RHF Final Energy:  -286.11007419152440
    Total Energy =                       -286.1100741915244043
  Basis Set: CC-PVTZ
  Basis Set:
  Basis Set: CC-PVTZ
  Basis Set:
  @DF-RHF Final Energy:  -286.11133436635771
    Total Energy =                       -286.1113343663578235
  Basis Set: CC-PVTZ
  Basis Set:
  Basis Set: CC-PVTZ
  Basis Set:
  @DF-RHF Final Energy:  -286.11200277783689
    Total Energy =                       -286.1120027778368922
  Basis Set: CC-PVTZ
  Basis Set:
  @DF-RHF Final Energy:  -286.11309030524529
    Total Energy =                       -286.1130903052452368
  @DF-RHF Final Energy:  -286.11501571202439
    Total Energy =                       -286.1150157120243307
  @DF-RHF Final Energy:  -286.11601299660322
    Total Energy =                       -286.1160129966031604
  @DF-RHF Final Energy:  -286.11761981471017
    Total Energy =                       -286.1176198147103378
  @DF-RHF Final Energy:  -286.11858113091614
    Total Energy =                       -286.1185811309161977
  @DF-RHF Final Energy:  -286.12019536415903
    Total Energy =                       -286.1201953641589171
  @DF-RHF Final Energy:  -286.12114899212190
    Total Energy =                       -286.1211489921219595
  @DF-RHF Final Energy:  -286.12168613557157
    Total Energy =                       -286.1216861355717356
  @DF-RHF Final Energy:  -286.12180558543355
    Total Energy =                       -286.1218055854335489
  Basis Set: CC-PVTZ
  Basis Set:
  @DF-RHF Final Energy:  -286.12188578945546
    Total Energy =                       -286.1218857894550638
  Basis Set: CC-PVTZ
  Basis Set:
  Basis Set: CC-PVTZ
  Basis Set:
  @DF-RHF Final Energy:  -286.12194680164896
    Total Energy =                       -286.1219468016491874
  Basis Set: CC-PVTZ
  Basis Set:
  Basis Set: CC-PVTZ
  Basis Set:
  @DF-RHF Final Energy:  -286.12195005669992
    Total Energy =                       -286.1219500567000296
  Basis Set: CC-PVTZ
  Basis Set:
  Charge       = 0
  Multiplicity = 1
  Basis Set: CC-PVTZ
  Basis Set:

    Orbital Energies (a.u.)
    -----------------------

    Doubly Occupied:

       1A    -20.521145     2A    -15.569021     3A    -11.340645
       4A    -11.258047     5A    -11.251699     6A    -11.230698
       7A     -1.399956     8A     -1.242147     9A     -1.013598
      10A     -0.968849    11A     -0.914737    12A     -0.738789
      13A     -0.684142    14A     -0.661086    15A     -0.651259
      16A     -0.596137    17A     -0.581174    18A     -0.573598
      19A     -0.560892    20A     -0.551830    21A     -0.528262
      22A     -0.502526    23A     -0.422582    24A     -0.373523

  @DF-RHF Final Energy:  -286.12195027807013

   => Energetics <=

    Nuclear Repulsion Energy =            253.1624008875267862
    One-Electron Energy =                -890.2960204343013402
    Two-Electron Energy =                 351.0116692687045656
    DFT Exchange-Correlation Energy =       0.0000000000000000
    Empirical Dispersion Energy =           0.0000000000000000
    PCM Polarization Energy =               0.0000000000000000
    EFP Energy =                            0.0000000000000000
    Total Energy =                       -286.1219502780699599
    Molecular point group: c1
  Basis Set: CC-PVTZ
  Basis Set:

  -Total Gradient:
     Atom            X                  Y                   Z
    ------   -----------------  -----------------  -----------------
       1        0.000001009896     0.000021548420     0.000011006101
       2       -0.001866065314    -0.000467035293     0.011522827926
       3        0.001300336087     0.002738865683    -0.008073734167
       4        0.000460420071    -0.010743953353    -0.001721660751
       5       -0.000038073562     0.000032757874    -0.000008366040
       6       -0.000001491827    -0.000004237833     0.000004922253
       7        0.000015052019    -0.000027874215    -0.000014478712
       8        0.000071582859     0.008425721791    -0.001763555571
       9       -0.000042198029    -0.000060912254     0.000060378933
      10        0.000011627879    -0.000011747644     0.000005447261
      11        0.000029624041     0.000008110541    -0.000023145779
      12        0.000021405274     0.000007634904    -0.000036457586
      13        0.000012319595    -0.000017014334     0.000007303376
      14        0.000004518747     0.000051456143     0.000001682285
      15        0.000019932262     0.000046679569     0.000027830471

  **** Optimization is complete! (in 17 steps) ****
    Final optimized geometry and variables:
    Molecular point group: c1

    Geometry (in Angstrom), charge = 0, multiplicity = 1:

    O           -1.215508280104    -1.143361477873    -0.537968220722
    C           -0.704126928293    -0.210628638209    -0.006150130100
    C           -1.511223385789     1.035856658880     0.290301234788
    N            0.669156042108    -0.183882164505     0.214435627739
    H           -1.116661778554     1.856158948037    -0.298595363156
    H           -2.535150142826     0.848116303127     0.012143453380
    H           -1.471155189362     1.330746561153     1.330202355657
    C            1.481801899671    -0.436341440295    -0.965138790113
    C            1.225493552806     0.855837309270     1.054560724748
    H            1.577441788251     0.458040912618    -1.579824841478
    H            1.038502279288    -1.223146909924    -1.551518572328
    H            2.473100718839    -0.747411134163    -0.663290206508
    H            1.255350072648     1.832750688594     0.573052257412
    H            0.674118079215     0.941875714559     1.978638283898
    H            2.240457732512     0.583054376043     1.309624788022

  Mulliken Charges: (a.u.)
   Center  Symbol    Alpha    Beta     Spin     Total
       1     O     4.19397  4.19397  0.00000 -0.38794
       2     C     2.84039  2.84039  0.00000  0.31922
       3     C     3.15867  3.15867  0.00000 -0.31735
       4     N     3.58276  3.58276  0.00000 -0.16552
       5     H     0.44824  0.44824  0.00000  0.10352
       6     H     0.42887  0.42887  0.00000  0.14225
       7     H     0.44811  0.44811  0.00000  0.10378
       8     C     3.09564  3.09564  0.00000 -0.19129
       9     C     3.10401  3.10401  0.00000 -0.20802
      10     H     0.46496  0.46496  0.00000  0.07007
      11     H     0.43127  0.43127  0.00000  0.13746
      12     H     0.45245  0.45245  0.00000  0.09510
      13     H     0.46177  0.46177  0.00000  0.07646
      14     H     0.44693  0.44693  0.00000  0.10613
      15     H     0.44194  0.44194  0.00000  0.11613

   Total alpha = 24.00000, Total beta = 24.00000, Total charge = -0.00000
