  ==> Input File <==

--------------------------------------------------------------------------
set {
	reference rhf
	basis 6-31G*
}

set_num_threads( 4 )
memory 2 gb

molecule MOL {
0 1

H	 -2.275378	 -0.305522	 -0.507417
O	 -1.422729	 -0.573567	 -0.196946
C	 -0.731407	 0.539437	 0.309156
C	 0.680193	 0.672443	 -0.251532
H	 -1.319765	 1.404033	 0.030086
H	 -0.700012	 0.506517	 1.397677
C	 1.599139	 -0.492137	 0.118598
H	 0.616402	 0.758534	 -1.332349
H	 1.107032	 1.602637	 0.117369
H	 1.239738	 -1.428634	 -0.297334
H	 2.601428	 -0.335055	 -0.265730
H	 1.674954	 -0.608418	 1.197020

	symmetry c1
}
set optking {
	frozen_dihedral = ("
		1 2 3 4
	")
}

ee = optimize('scf')
oeprop('DIPOLE', 'QUADRUPOLE', 'MULLIKEN_CHARGES')
f=open( 'psi4out.xyz', 'w' )
f.write( "12  " )
f.write( str(ee) + "\n" )
f.write( MOL.save_string_xyz() )
f.close()
--------------------------------------------------------------------------

    Molecular point group: c1
  Charge       = 0
  Multiplicity = 1
  Basis Set: 6-31G*
  Basis Set:
  @DF-RHF Final Energy:  -193.10701109557556
    Total Energy =                       -193.1070110955756149
    Molecular point group: c1
  Basis Set: 6-31G*
  Basis Set:
  Basis Set: 6-31G*
  Basis Set:
  @DF-RHF Final Energy:  -193.10818404228860
    Total Energy =                       -193.1081840422885421
  Basis Set: 6-31G*
  Basis Set:
  Basis Set: 6-31G*
  Basis Set:
  @DF-RHF Final Energy:  -193.10857032126827
    Total Energy =                       -193.1085703212683029
  Basis Set: 6-31G*
  Basis Set:
  Basis Set: 6-31G*
  Basis Set:
  @DF-RHF Final Energy:  -193.10857582008975
    Total Energy =                       -193.1085758200897828
  Basis Set: 6-31G*
  Basis Set:
  Basis Set: 6-31G*
  Basis Set:
  @DF-RHF Final Energy:  -193.10857835684052
    Total Energy =                       -193.1085783568405532
  Basis Set: 6-31G*
  Basis Set:
  Charge       = 0
  Multiplicity = 1
  Basis Set: 6-31G*
  Basis Set:

    Orbital Energies (a.u.)
    -----------------------

    Doubly Occupied:

       1A    -20.551739     2A    -11.268500     3A    -11.213876
       4A    -11.202139     5A     -1.358284     6A     -1.045834
       7A     -0.917617     8A     -0.801015     9A     -0.701181
      10A     -0.640734    11A     -0.592827    12A     -0.568219
      13A     -0.536941    14A     -0.503938    15A     -0.479404
      16A     -0.465062    17A     -0.428957

  @DF-RHF Final Energy:  -193.10857851807535

   => Energetics <=

    Nuclear Repulsion Energy =            133.1371189681483145
    One-Electron Energy =                -525.9388578894476041
    Two-Electron Energy =                 199.6931604032239704
    DFT Exchange-Correlation Energy =       0.0000000000000000
    Empirical Dispersion Energy =           0.0000000000000000
    PCM Polarization Energy =               0.0000000000000000
    EFP Energy =                            0.0000000000000000
    Total Energy =                       -193.1085785180752907
    Molecular point group: c1
  Basis Set: 6-31G*
  Basis Set:

  -Total Gradient:
     Atom            X                  Y                   Z
    ------   -----------------  -----------------  -----------------
       1        0.000321148924     0.000137499360    -0.000710484270
       2       -0.000467656641    -0.000072994049     0.000736344697
       3        0.000313985227    -0.000342426778     0.000308235574
       4       -0.000162003151     0.000296689308    -0.000326058625
       5       -0.000005563045    -0.000021313699    -0.000008360305
       6        0.000016732248     0.000015134002    -0.000000059668
       7       -0.000002480015     0.000008696802    -0.000009342122
       8       -0.000022089971     0.000001411828     0.000013975385
       9        0.000018324953    -0.000001629522     0.000001962349
      10       -0.000004834586    -0.000018184052    -0.000005260885
      11       -0.000011266630    -0.000010540781    -0.000002409006
      12        0.000005702694     0.000007657582     0.000001456876

  **** Optimization is complete! (in 6 steps) ****
    Final optimized geometry and variables:
    Molecular point group: c1

    Geometry (in Angstrom), charge = 0, multiplicity = 1:

    H           -2.199780969696    -0.401924267536    -0.530158835754
    O           -1.346075776329    -0.614377729275    -0.186599886105
    C           -0.723342451881     0.543070384305     0.321673302766
    C            0.686386701843     0.670149643545    -0.235849096224
    H           -1.297847220675     1.429659756594     0.065371586784
    H           -0.692111052878     0.480892287425     1.406667630966
    C            1.580774662669    -0.514147757060     0.126923640469
    H            0.623388292802     0.766339394204    -1.316368384207
    H            1.122830415759     1.592840540638     0.141561317242
    H            1.163057260335    -1.440891465629    -0.247489966150
    H            2.573495521019    -0.394116339795    -0.295701819427
    H            1.688179835454    -0.605913265200     1.204441908056

  Mulliken Charges: (a.u.)
   Center  Symbol    Alpha    Beta     Spin     Total
       1     H     0.27908  0.27908  0.00000  0.44184
       2     O     4.37232  4.37232  0.00000 -0.74465
       3     C     2.99824  2.99824  0.00000  0.00353
       4     C     3.15548  3.15548  0.00000 -0.31097
       5     H     0.43013  0.43013  0.00000  0.13975
       6     H     0.42579  0.42579  0.00000  0.14842
       7     C     3.24230  3.24230  0.00000 -0.48460
       8     H     0.42019  0.42019  0.00000  0.15962
       9     H     0.42535  0.42535  0.00000  0.14929
      10     H     0.40615  0.40615  0.00000  0.18770
      11     H     0.42123  0.42123  0.00000  0.15754
      12     H     0.42373  0.42373  0.00000  0.15254

   Total alpha = 17.00000, Total beta = 17.00000, Total charge =  0.00000
