                              Psi4 1.0.54 Driver

  ==> Input File <==

--------------------------------------------------------------------------
set {
	reference rhf
	basis cc-pvtz
}

set_num_threads( 4 )
memory 2 gb

molecule MOL {
0 1

O	 1.206894	 1.292872	 0.172886
C	 1.121787	 0.124983	 0.000110
C	 -0.157892	 -0.632821	 -0.244062
O	 2.167739	 -0.685178	 -0.000678
C	 -1.399460	 0.247139	 -0.254168
H	 -0.043087	 -1.161382	 -1.184765
H	 -0.226600	 -1.400734	 0.519515
C	 -2.675609	 -0.551113	 -0.504261
H	 -1.289949	 1.012277	 -1.014505
H	 -1.474059	 0.772193	 0.691506
C	 -3.925939	 0.321444	 -0.518675
H	 -2.593542	 -1.077588	 -1.451535
H	 -2.779811	 -1.316251	 0.260555
H	 -3.867171	 1.075290	 -1.296395
H	 -4.815523	 -0.271100	 -0.698145
H	 -4.054881	 0.834794	 0.428123
C	 3.449556	 -0.089977	 -0.000570
H	 3.585694	 0.522473	 -0.879546
H	 4.155805	 -0.904274	 -0.001389
H	 3.586173	 0.521118	 0.879272

	symmetry c1
}
set optking {
	frozen_dihedral = ("
		1 2 4 17
	")
}

ee,wfn = optimize('scf', return_wfn=True)
oeprop( wfn, 'DIPOLE', 'QUADRUPOLE', 'MULLIKEN_CHARGES')
f=open( 'psi4out.xyz', 'w' )
f.write( "20  " )
f.write( str(ee) + "\n" )
f.write( MOL.save_string_xyz() )
f.close()
--------------------------------------------------------------------------

    Molecular point group: c1
  Charge       = 0
  Multiplicity = 1
  Basis Set: CC-PVTZ
  Basis Set:
  @DF-RHF Final Energy:  -384.08265328571383
    Total Energy =                       -384.0826532857144002
    Molecular point group: c1
  Basis Set: CC-PVTZ
  Basis Set:
  Basis Set: CC-PVTZ
  Basis Set:
  @DF-RHF Final Energy:  -384.08130231718098
    Total Energy =                       -384.0813023171813256
  Basis Set: CC-PVTZ
  Basis Set:
  Basis Set: CC-PVTZ
  Basis Set:
  @DF-RHF Final Energy:  -384.08272721703139
    Total Energy =                       -384.0827272170311062
  Basis Set: CC-PVTZ
  Basis Set:
  Basis Set: CC-PVTZ
  Basis Set:
  @DF-RHF Final Energy:  -384.08273638257930
    Total Energy =                       -384.0827363825795828
  Basis Set: CC-PVTZ
  Basis Set:
  Basis Set: CC-PVTZ
  Basis Set:
  @DF-RHF Final Energy:  -384.08273952607800
    Total Energy =                       -384.0827395260778303
  Basis Set: CC-PVTZ
  Basis Set:
  Basis Set: CC-PVTZ
  Basis Set:
  @DF-RHF Final Energy:  -384.08274146901050
    Total Energy =                       -384.0827414690104433
  Basis Set: CC-PVTZ
  Basis Set:
  Charge       = 0
  Multiplicity = 1
  Basis Set: CC-PVTZ
  Basis Set:

    Orbital Energies (a.u.)
    -----------------------

    Doubly Occupied:

       1A    -20.595954     2A    -20.534510     3A    -11.364832
       4A    -11.278817     5A    -11.234016     6A    -11.218487
       7A    -11.217354     8A    -11.208789     9A     -1.471936
      10A     -1.365980    11A     -1.090039    12A     -1.025430
      13A     -0.969930    14A     -0.886647    15A     -0.804667
      16A     -0.769513    17A     -0.699019    18A     -0.686541
      19A     -0.675921    20A     -0.647033    21A     -0.599320
      22A     -0.592652    23A     -0.580272    24A     -0.541373
      25A     -0.537895    26A     -0.524142    27A     -0.501382
      28A     -0.479088    29A     -0.475084    30A     -0.471556
      31A     -0.459239    32A     -0.440004

  @DF-RHF Final Energy:  -384.08274204355251

   => Energetics <=

    Nuclear Repulsion Energy =            381.6825306038832082
    One-Electron Energy =               -1279.6356997549260086
    Two-Electron Energy =                 513.8704271074905137
    DFT Exchange-Correlation Energy =       0.0000000000000000
    Empirical Dispersion Energy =           0.0000000000000000
    PCM Polarization Energy =               0.0000000000000000
    EFP Energy =                            0.0000000000000000
    Total Energy =                       -384.0827420435523436
    Molecular point group: c1
  Basis Set: CC-PVTZ
  Basis Set:

  -Total Gradient:
     Atom            X                  Y                   Z
    ------   -----------------  -----------------  -----------------
       1       -0.000462029756    -0.000215670444     0.003349790126
       2        0.000647821440     0.000411130184    -0.006397068047
       3        0.000007850579    -0.000013077931     0.000130023257
       4       -0.000282369004    -0.000071483890     0.005499321353
       5        0.000008744888     0.000000468794    -0.000007447209
       6        0.000009918439    -0.000001518601    -0.000009579182
       7        0.000004937830    -0.000001054022    -0.000008856413
       8       -0.000008270678     0.000000245526    -0.000001529717
       9       -0.000001380703    -0.000000067307     0.000002759296
      10       -0.000001658537     0.000006554211     0.000005999808
      11        0.000001752050    -0.000009989136    -0.000000338366
      12        0.000001661023    -0.000002824357    -0.000002159570
      13        0.000000979978    -0.000002252349    -0.000000128157
      14        0.000000247227     0.000005556951     0.000000582170
      15        0.000000978826    -0.000000808444     0.000000515914
      16       -0.000000443488     0.000006497080     0.000001397940
      17        0.000060456780    -0.000149683980    -0.002604939623
      18        0.000002859884     0.000027828998    -0.000008410901
      19        0.000001737492    -0.000026695478     0.000010427388
      20        0.000006205740     0.000036844191     0.000039639933

  **** Optimization is complete! (in 7 steps) ****
    Final optimized geometry and variables:
    Molecular point group: c1

    Geometry (in Angstrom), charge = 0, multiplicity = 1:

    O            1.210312467321     1.292054395461     0.237851448216
    C            1.117041144753     0.118252030094     0.118684016219
    C           -0.166677077252    -0.639865403516    -0.100928492501
    O            2.153486463857    -0.702046475412     0.192287010117
    C           -1.409529173406     0.238056611481    -0.079248419766
    H           -0.070694710949    -1.158682569256    -1.049718205162
    H           -0.217530462543    -1.415553508229     0.655547905305
    C           -2.689244092544    -0.560050883311    -0.311063882146
    H           -1.315816138864     1.010174603455    -0.834323217341
    H           -1.466605439486     0.754381899520     0.872701640455
    C           -3.941147798152     0.310140843184    -0.290355480168
    H           -2.625826784637    -1.076283384128    -1.265408624945
    H           -2.776237230157    -1.333502890942     0.447491436048
    H           -3.899795524496     1.072347584609    -1.061014090887
    H           -4.833217786724    -0.282209796740    -0.457672350454
    H           -4.051432534636     0.813183208579     0.664312546555
    C            3.441467279362    -0.120403226954     0.207069191119
    H            3.591740715992     0.490646030983    -0.671005341095
    H            4.139294293736    -0.941955629102     0.212160992848
    H            3.577370802132     0.489119018836     1.087963139422

  Mulliken Charges: (a.u.)
   Center  Symbol    Alpha    Beta     Spin     Total
       1     O     4.19617  4.19617  0.00000 -0.39235
       2     C     2.80648  2.80648  0.00000  0.38703
       3     C     3.10025  3.10025  0.00000 -0.20050
       4     O     4.14705  4.14705  0.00000 -0.29410
       5     C     3.08138  3.08138  0.00000 -0.16276
       6     H     0.44156  0.44156  0.00000  0.11687
       7     H     0.43919  0.43919  0.00000  0.12162
       8     C     3.08684  3.08684  0.00000 -0.17368
       9     H     0.44612  0.44612  0.00000  0.10776
      10     H     0.44740  0.44740  0.00000  0.10519
      11     C     3.14922  3.14922  0.00000 -0.29845
      12     H     0.45531  0.45531  0.00000  0.08939
      13     H     0.45519  0.45519  0.00000  0.08963
      14     H     0.45385  0.45385  0.00000  0.09230
      15     H     0.44837  0.44837  0.00000  0.10326
      16     H     0.45388  0.45388  0.00000  0.09224
      17     C     3.03758  3.03758  0.00000 -0.07517
      18     H     0.45632  0.45632  0.00000  0.08736
      19     H     0.44532  0.44532  0.00000  0.10935
      20     H     0.45251  0.45251  0.00000  0.09499

   Total alpha = 32.00000, Total beta = 32.00000, Total charge =  0.00000

*** Psi4 exiting successfully. Buy a developer a beer!
