  ==> Input File <==

--------------------------------------------------------------------------
set {
	reference rhf
	basis 6-31G*
}

set_num_threads( 1 )
memory 2 gb

molecule MOL {
0 1

H	 -2.798360	 -0.862255	 -0.071053
N	 -1.863561	 -0.715187	 0.256814
C	 -1.344686	 0.554728	 -0.219830
H	 -1.300452	 -1.461917	 -0.101532
C	 -0.178931	 0.992991	 0.641609
H	 -1.014525	 0.531663	 -1.259283
H	 -2.129844	 1.300759	 -0.144015
O	 0.858657	 0.068919	 0.478551
H	 0.155235	 1.987157	 0.345629
H	 -0.488707	 1.032485	 1.683585
C	 1.969427	 0.304708	 1.283637
H	 2.698361	 -0.465354	 1.070661
H	 2.413540	 1.276302	 1.074469
H	 1.710924	 0.263600	 2.339712

	symmetry c1
}
set optking {
	frozen_dihedral = ("
		8 5 3 6,
		5 8 11 13,
		11 8 5 3
	")
}

ee = energy('scf')
oeprop('DIPOLE', 'QUADRUPOLE', 'MULLIKEN_CHARGES')
f=open( 'psi4out.xyz', 'w' )
f.write( "14  " )
f.write( str(ee) + "\n" )
f.write( MOL.save_string_xyz() )
f.close()
--------------------------------------------------------------------------

    Molecular point group: c1

    Geometry (in Angstrom), charge = 0, multiplicity = 1:

       Center              X                  Y                   Z               Mass
    ------------   -----------------  -----------------  -----------------  -----------------
           H         -2.694835181556    -1.088012936761    -0.559838792626     1.007825032070
           N         -1.760036181556    -0.940944936761    -0.231971792626    14.003074004780
           C         -1.241161181556     0.328970063239    -0.708615792626    12.000000000000
           H         -1.196927181556    -1.687674936761    -0.590317792626     1.007825032070
           C         -0.075406181556     0.767233063239     0.152823207374    12.000000000000
           H         -0.911000181556     0.305905063239    -1.748068792626     1.007825032070
           H         -2.026319181556     1.075001063239    -0.632800792626     1.007825032070
           O          0.962181818444    -0.156838936761    -0.010234792626    15.994914619560
           H          0.258759818444     1.761399063239    -0.143156792626     1.007825032070
           H         -0.385182181556     0.806727063239     1.194799207374     1.007825032070
           C          2.072951818444     0.078950063239     0.794851207374    12.000000000000
           H          2.801885818444    -0.691111936761     0.581875207374     1.007825032070
           H          2.517064818444     1.050544063239     0.585683207374     1.007825032070
           H          1.814448818444     0.037842063239     1.850926207374     1.007825032070

  Charge       = 0
  Multiplicity = 1
  Basis Set: 6-31G*
  Basis Set:

    Orbital Energies (a.u.)
    -----------------------

    Doubly Occupied:

       1A    -20.552610     2A    -15.530198     3A    -11.262748
       4A    -11.261303     5A    -11.241440     6A     -1.376511
       7A     -1.174611     8A     -0.997219     9A     -0.904330
      10A     -0.812803    11A     -0.681164    12A     -0.673457
      13A     -0.639725    14A     -0.615315    15A     -0.604250
      16A     -0.533771    17A     -0.525468    18A     -0.497878
      19A     -0.470910    20A     -0.413233    21A     -0.381296

  @DF-RHF Final Energy:  -248.12374332516984

   => Energetics <=

    Nuclear Repulsion Energy =            194.3685915643631290
    One-Electron Energy =                -722.6841299404375150
    Two-Electron Energy =                 280.1917950509053981
    DFT Exchange-Correlation Energy =       0.0000000000000000
    Empirical Dispersion Energy =           0.0000000000000000
    PCM Polarization Energy =               0.0000000000000000
    EFP Energy =                            0.0000000000000000
    Total Energy =                       -248.1237433251690163

  Mulliken Charges: (a.u.)
   Center  Symbol    Alpha    Beta     Spin     Total
       1     H     0.33261  0.33261  0.00000  0.33478
       2     N     3.92023  3.92023  0.00000 -0.84045
       3     C     3.07648  3.07648  0.00000 -0.15296
       4     H     0.32585  0.32585  0.00000  0.34830
       5     C     2.98093  2.98093  0.00000  0.03815
       6     H     0.42453  0.42453  0.00000  0.15094
       7     H     0.42150  0.42150  0.00000  0.15699
       8     O     4.30895  4.30895  0.00000 -0.61790
       9     H     0.43431  0.43431  0.00000  0.13139
      10     H     0.42439  0.42439  0.00000  0.15122
      11     C     3.07809  3.07809  0.00000 -0.15618
      12     H     0.41323  0.41323  0.00000  0.17354
      13     H     0.43113  0.43113  0.00000  0.13774
      14     H     0.42777  0.42777  0.00000  0.14446

   Total alpha = 21.00000, Total beta = 21.00000, Total charge = -0.00000
