  ==> Input File <==

--------------------------------------------------------------------------
set {
	reference rhf
	basis 6-31G*
}

set_num_threads( 4 )
memory 2 gb

molecule MOL {
0 1

H	 -1.741840	 -1.334510	 1.478855
N	 -0.950030	 -0.723388	 1.423676
C	 -0.563778	 -0.502042	 0.037919
H	 -0.206428	 -1.166426	 1.929176
C	 0.575259	 0.508231	 -0.048326
H	 -1.429406	 -0.110460	 -0.487959
H	 -0.272326	 -1.419809	 -0.479290
C	 1.954651	 -0.143624	 0.035137
H	 0.475158	 1.060484	 -0.977307
H	 0.469181	 1.234488	 0.755973
H	 2.103292	 -0.853109	 -0.774172
H	 2.742821	 0.599562	 -0.030094
H	 2.083613	 -0.679371	 0.971560

	symmetry c1
}
set optking {
	frozen_dihedral = ("
		6 3 5 9
	")
}

ee = optimize('scf')
oeprop('DIPOLE', 'QUADRUPOLE', 'MULLIKEN_CHARGES')
f=open( 'psi4out.xyz', 'w' )
f.write( "13  " )
f.write( str(ee) + "\n" )
f.write( MOL.save_string_xyz() )
f.close()
--------------------------------------------------------------------------

    Molecular point group: c1
  Charge       = 0
  Multiplicity = 1
  Basis Set: 6-31G*
  Basis Set:
  @DF-RHF Final Energy:  -173.27892931565614
    Total Energy =                       -173.2789293156561712
    Molecular point group: c1
  Basis Set: 6-31G*
  Basis Set:
  Basis Set: 6-31G*
  Basis Set:
  @DF-RHF Final Energy:  -173.27925030547445
    Total Energy =                       -173.2792503054743634
  Basis Set: 6-31G*
  Basis Set:
  Basis Set: 6-31G*
  Basis Set:
  @DF-RHF Final Energy:  -173.27934137127377
    Total Energy =                       -173.2793413712736310
  Basis Set: 6-31G*
  Basis Set:
  Charge       = 0
  Multiplicity = 1
  Basis Set: 6-31G*
  Basis Set:

    Orbital Energies (a.u.)
    -----------------------

    Doubly Occupied:

       1A    -15.533160     2A    -11.240161     3A    -11.211737
       4A    -11.210667     5A     -1.176776     6A     -1.032498
       7A     -0.905155     8A     -0.793807     9A     -0.666733
      10A     -0.634679    11A     -0.578895    12A     -0.564471
      13A     -0.557000    14A     -0.483956    15A     -0.477646
      16A     -0.467390    17A     -0.380797

  @DF-RHF Final Energy:  -173.27934224217728

   => Energetics <=

    Nuclear Repulsion Energy =            132.9780294638297278
    One-Electron Energy =                -496.6836902767911397
    Two-Electron Energy =                 190.4263185707840762
    DFT Exchange-Correlation Energy =       0.0000000000000000
    Empirical Dispersion Energy =           0.0000000000000000
    PCM Polarization Energy =               0.0000000000000000
    EFP Energy =                            0.0000000000000000
    Total Energy =                       -173.2793422421773357
    Molecular point group: c1
  Basis Set: 6-31G*
  Basis Set:

  -Total Gradient:
     Atom            X                  Y                   Z
    ------   -----------------  -----------------  -----------------
       1       -0.000041754941    -0.000024474939     0.000026856418
       2       -0.000016198591    -0.000002965447     0.000029897790
       3       -0.002023563181     0.002984574931     0.004746065787
       4        0.000013328726    -0.000010100660    -0.000002390694
       5        0.003106802245    -0.003979115450    -0.003252414494
       6        0.001246033090    -0.001841744991    -0.003499322254
       7       -0.000000177162    -0.000011955835     0.000010718945
       8        0.000008043609    -0.000016469103     0.000023561505
       9       -0.002273186228     0.002872543926     0.001912246784
      10        0.000023399590    -0.000005588825     0.000004394281
      11       -0.000018815401     0.000024646631    -0.000008093209
      12       -0.000008654478     0.000009336396     0.000007164968
      13       -0.000015257279     0.000001313366     0.000001314175

  **** Optimization is complete! (in 4 steps) ****
    Final optimized geometry and variables:
    Molecular point group: c1

    Geometry (in Angstrom), charge = 0, multiplicity = 1:

    H           -1.978134694634    -1.109199999238     1.101391965701
    N           -1.193986495310    -0.487619024230     1.049013995945
    C           -0.827199418667    -0.244408854118    -0.339348429388
    H           -0.442801268391    -0.934519961048     1.539509540875
    C            0.334869776068     0.747942475047    -0.449413889519
    H           -1.693123009209     0.152491318759    -0.858229713076
    H           -0.561339775232    -1.160785753563    -0.874088373293
    C            1.716840278061     0.103392139076    -0.344422493700
    H            0.249045276255     1.301352128146    -1.380765478220
    H            0.213222607759     1.483693286446     0.340287719752
    H            1.881387958055    -0.607440725053    -1.149224918010
    H            2.501777904585     0.851219093166    -0.397191554634
    H            1.839593224499    -0.428220915555     0.595580345548

  Mulliken Charges: (a.u.)
   Center  Symbol    Alpha    Beta     Spin     Total
       1     H     0.33266  0.33266  0.00000  0.33468
       2     N     3.92055  3.92055  0.00000 -0.84110
       3     C     3.06337  3.06337  0.00000 -0.12674
       4     H     0.33424  0.33424  0.00000  0.33152
       5     C     3.15842  3.15842  0.00000 -0.31685
       6     H     0.41851  0.41851  0.00000  0.16298
       7     H     0.43531  0.43531  0.00000  0.12937
       8     C     3.24144  3.24144  0.00000 -0.48288
       9     H     0.42099  0.42099  0.00000  0.15802
      10     H     0.41036  0.41036  0.00000  0.17929
      11     H     0.42162  0.42162  0.00000  0.15675
      12     H     0.41752  0.41752  0.00000  0.16495
      13     H     0.42500  0.42500  0.00000  0.14999

   Total alpha = 17.00000, Total beta = 17.00000, Total charge = -0.00000
