                              Psi4 1.0.54 Driver

  ==> Input File <==

--------------------------------------------------------------------------
set {
	reference rhf
	basis cc-pvtz
}

set_num_threads( 4 )
memory 2 gb

molecule MOL {
0 1

H	 0.984828	 2.693481	 2.391218
O	 1.658602	 2.387465	 1.810611
C	 1.183106	 1.480509	 0.938880
C	 2.075728	 0.945167	 0.021409
C	 -0.135617	 1.078890	 0.933414
H	 3.096655	 1.271351	 0.043055
C	 1.645891	 0.012932	 -0.894850
H	 -0.845518	 1.475108	 1.629367
C	 -0.532034	 0.141680	 0.000000
H	 2.342830	 -0.395319	 -1.600083
C	 0.326200	 -0.406263	 -0.920041
N	 -1.937041	 -0.281114	 0.000000
H	 -0.021665	 -1.128959	 -1.625324
O	 -2.159542	 -1.446261	 0.000000
O	 -2.764978	 0.565773	 0.000000

	symmetry c1
}
set optking {
	frozen_dihedral = ("
		11 9 12 14
	")
}

ee,wfn = optimize('scf', return_wfn=True)
oeprop( wfn, 'DIPOLE', 'QUADRUPOLE', 'MULLIKEN_CHARGES')
f=open( 'psi4out.xyz', 'w' )
f.write( "15  " )
f.write( str(ee) + "\n" )
f.write( MOL.save_string_xyz() )
f.close()
--------------------------------------------------------------------------

    Molecular point group: c1
  Charge       = 0
  Multiplicity = 1
  Basis Set: CC-PVTZ
  Basis Set:
  @DF-RHF Final Energy:  -509.21416621904672
    Total Energy =                       -509.2141662190465468
    Molecular point group: c1
  Basis Set: CC-PVTZ
  Basis Set:
  Basis Set: CC-PVTZ
  Basis Set:
  @DF-RHF Final Energy:  -509.20756381413645
    Total Energy =                       -509.2075638141359377
  Basis Set: CC-PVTZ
  Basis Set:
  Basis Set: CC-PVTZ
  Basis Set:
  @DF-RHF Final Energy:  -509.21334549794943
    Total Energy =                       -509.2133454979493763
  Basis Set: CC-PVTZ
  Basis Set:
  Basis Set: CC-PVTZ
  Basis Set:
  @DF-RHF Final Energy:  -509.21449264075648
    Total Energy =                       -509.2144926407564753
  Basis Set: CC-PVTZ
  Basis Set:
  Basis Set: CC-PVTZ
  Basis Set:
  @DF-RHF Final Energy:  -509.21445501545844
    Total Energy =                       -509.2144550154587250
  Basis Set: CC-PVTZ
  Basis Set:
  Basis Set: CC-PVTZ
  Basis Set:
  @DF-RHF Final Energy:  -509.21463194046351
    Total Energy =                       -509.2146319404633914
  Basis Set: CC-PVTZ
  Basis Set:
  Charge       = 0
  Multiplicity = 1
  Basis Set: CC-PVTZ
  Basis Set:

    Orbital Energies (a.u.)
    -----------------------

    Doubly Occupied:

       1A    -20.609786     2A    -20.598270     3A    -20.597583
       4A    -15.850314     5A    -11.329626     6A    -11.311911
       7A    -11.264549     8A    -11.263836     9A    -11.258780
      10A    -11.253405    11A     -1.645868    12A     -1.442602
      13A     -1.428934    14A     -1.204139    15A     -1.096629
      16A     -1.049508    17A     -0.966990    18A     -0.885014
      19A     -0.832972    20A     -0.794095    21A     -0.764547
      22A     -0.740734    23A     -0.724927    24A     -0.712425
      25A     -0.674657    26A     -0.636352    27A     -0.623014
      28A     -0.597421    29A     -0.564212    30A     -0.549163
      31A     -0.531394    32A     -0.494986    33A     -0.490806
      34A     -0.459626    35A     -0.377892    36A     -0.346583

  @DF-RHF Final Energy:  -509.21463240202377

   => Energetics <=

    Nuclear Repulsion Energy =            504.4333277308218157
    One-Electron Energy =               -1695.3488197256276635
    Two-Electron Energy =                 681.7008595927818533
    DFT Exchange-Correlation Energy =       0.0000000000000000
    Empirical Dispersion Energy =           0.0000000000000000
    PCM Polarization Energy =               0.0000000000000000
    EFP Energy =                            0.0000000000000000
    Total Energy =                       -509.2146324020241082
    Molecular point group: c1
  Basis Set: CC-PVTZ
  Basis Set:

  -Total Gradient:
     Atom            X                  Y                   Z
    ------   -----------------  -----------------  -----------------
       1        0.000000247977    -0.000007287904     0.000003673665
       2        0.000008749633     0.000014937667     0.000008625741
       3       -0.000030519513     0.000010387577    -0.000044454466
       4        0.000009035073    -0.000008251113     0.000004174642
       5       -0.000001392225    -0.000014823183     0.000034725491
       6       -0.000001437301     0.000000438814    -0.000001374482
       7        0.000021424288    -0.000012816904     0.000007840265
       8        0.000005700867    -0.000001370983    -0.000003921434
       9        0.001350544452    -0.005047224267     0.005897464901
      10       -0.000000456820     0.000004590427    -0.000005499004
      11       -0.000943631006     0.003414502652    -0.002770429501
      12       -0.000413659493     0.001792947072    -0.008244188353
      13        0.000003760629     0.000006418840     0.000003319673
      14        0.000036741453    -0.000238250326     0.005115118960
      15       -0.000045108015     0.000085801634    -0.000005076094

  **** Optimization is complete! (in 7 steps) ****
    Final optimized geometry and variables:
    Molecular point group: c1

    Geometry (in Angstrom), charge = 0, multiplicity = 1:

    H            1.118568095614     2.225919493098     2.178752037433
    O            1.791004352052     1.922028188403     1.595553991623
    C            1.315367783678     1.021238701990     0.719345762343
    C            2.203316503569     0.504067671669    -0.213469849898
    C           -0.003547831036     0.615380843001     0.715828904041
    H            3.220306046559     0.842173273579    -0.200583988626
    C            1.772390636314    -0.420317510983    -1.136815088581
    H           -0.719249988750     1.023279593437     1.401563442023
    C           -0.387391383758    -0.335455043097    -0.204811246425
    H            2.463363321383    -0.804924275896    -1.861095446159
    C            0.459112486109    -0.862157961153    -1.144229613149
    N           -1.794399488130    -0.737906165196    -0.224762775992
    H            0.112042080468    -1.591944789035    -1.845440292107
    O           -2.025096359855    -1.898902150038    -0.270167319704
    O           -2.606021644116     0.123927662191    -0.159607090694

  Mulliken Charges: (a.u.)
   Center  Symbol    Alpha    Beta     Spin     Total
       1     H     0.38446  0.38446  0.00000  0.23109
       2     O     4.16747  4.16747  0.00000 -0.33495
       3     C     2.84360  2.84360  0.00000  0.31281
       4     C     3.10234  3.10234  0.00000 -0.20468
       5     C     3.14056  3.14056  0.00000 -0.28112
       6     H     0.41376  0.41376  0.00000  0.17247
       7     C     3.05293  3.05293  0.00000 -0.10586
       8     H     0.41699  0.41699  0.00000  0.16602
       9     C     2.93379  2.93379  0.00000  0.13242
      10     H     0.41625  0.41625  0.00000  0.16750
      11     C     3.10722  3.10722  0.00000 -0.21444
      12     N     3.27626  3.27626  0.00000  0.44748
      13     H     0.40835  0.40835  0.00000  0.18329
      14     O     4.16651  4.16651  0.00000 -0.33301
      15     O     4.16951  4.16951  0.00000 -0.33903

   Total alpha = 36.00000, Total beta = 36.00000, Total charge = -0.00000

*** Psi4 exiting successfully. Buy a developer a beer!
