                              Psi4 1.0.54 Driver

  ==> Input File <==

--------------------------------------------------------------------------
set {
	reference rhf
	basis cc-pvtz
}

set_num_threads( 4 )
memory 2 gb

molecule MOL {
0 1

O	 -2.071633	 -1.227563	 -0.223463
C	 -1.652164	 -0.152425	 0.058082
C	 -0.327811	 0.006324	 0.778296
C	 -2.402515	 1.108629	 -0.298924
C	 0.843231	 -0.001575	 -0.211665
H	 -0.319484	 0.928173	 1.350354
H	 -0.227804	 -0.823091	 1.466705
C	 0.642358	 -0.993163	 -1.353871
H	 1.765535	 -0.241227	 0.311418
H	 0.965220	 0.998614	 -0.613044
C	 1.798764	 -0.995464	 -2.347793
H	 0.514652	 -1.992005	 -0.945790
H	 -0.280760	 -0.755054	 -1.874156
H	 2.731469	 -1.264696	 -1.863427
H	 1.930479	 -0.016775	 -2.796332
H	 1.625017	 -1.705536	 -3.147799
H	 -3.240910	 0.874416	 -0.936711
H	 -1.747554	 1.818823	 -0.790984
H	 -2.760419	 1.579708	 0.610998

	symmetry c1
}
set optking {
	frozen_dihedral = ("
		9 5 3 2
	")
}

ee,wfn = optimize('scf', return_wfn=True)
oeprop( wfn, 'DIPOLE', 'QUADRUPOLE', 'MULLIKEN_CHARGES')
f=open( 'psi4out.xyz', 'w' )
f.write( "19  " )
f.write( str(ee) + "\n" )
f.write( MOL.save_string_xyz() )
f.close()
--------------------------------------------------------------------------

    Molecular point group: c1
  Charge       = 0
  Multiplicity = 1
  Basis Set: CC-PVTZ
  Basis Set:
  @DF-RHF Final Energy:  -309.17052419941007
    Total Energy =                       -309.1705241994101812
    Molecular point group: c1
  Basis Set: CC-PVTZ
  Basis Set:
  Basis Set: CC-PVTZ
  Basis Set:
  @DF-RHF Final Energy:  -309.17275257296012
    Total Energy =                       -309.1727525729601211
  Basis Set: CC-PVTZ
  Basis Set:
  Basis Set: CC-PVTZ
  Basis Set:
  @DF-RHF Final Energy:  -309.17124281750728
    Total Energy =                       -309.1712428175072773
  Basis Set: CC-PVTZ
  Basis Set:
  Basis Set: CC-PVTZ
  Basis Set:
  @DF-RHF Final Energy:  -309.17352696055951
    Total Energy =                       -309.1735269605591725
  Basis Set: CC-PVTZ
  Basis Set:
  @DF-RHF Final Energy:  -309.17395855612523
    Total Energy =                       -309.1739585561251147
  @DF-RHF Final Energy:  -309.17409415278297
    Total Energy =                       -309.1740941527829705
  Basis Set: CC-PVTZ
  Basis Set:
  @DF-RHF Final Energy:  -309.17412853654582
    Total Energy =                       -309.1741285365455951
  Basis Set: CC-PVTZ
  Basis Set:
  Basis Set: CC-PVTZ
  Basis Set:
  @DF-RHF Final Energy:  -309.17414428657025
    Total Energy =                       -309.1741442865706517
  Basis Set: CC-PVTZ
  Basis Set:
  Basis Set: CC-PVTZ
  Basis Set:
  @DF-RHF Final Energy:  -309.17414574698586
    Total Energy =                       -309.1741457469858574
  Basis Set: CC-PVTZ
  Basis Set:
  Charge       = 0
  Multiplicity = 1
  Basis Set: CC-PVTZ
  Basis Set:

    Orbital Energies (a.u.)
    -----------------------

    Doubly Occupied:

       1A    -20.537526     2A    -11.319288     3A    -11.230565
       4A    -11.228177     5A    -11.226507     6A    -11.220298
       7A    -11.212377     8A     -1.397498     9A     -1.092314
      10A     -1.027520    11A     -0.984028    12A     -0.891983
      13A     -0.812822    14A     -0.728866    15A     -0.661378
      16A     -0.646565    17A     -0.623067    18A     -0.618155
      19A     -0.584981    20A     -0.573448    21A     -0.555368
      22A     -0.542677    23A     -0.510855    24A     -0.500075
      25A     -0.486321    26A     -0.473001    27A     -0.466083
      28A     -0.399829

  @DF-RHF Final Energy:  -309.17414612715339

   => Energetics <=

    Nuclear Repulsion Energy =            309.9432750521033881
    One-Electron Energy =               -1033.1317011343639933
    Two-Electron Energy =                 414.0142799551070425
    DFT Exchange-Correlation Energy =       0.0000000000000000
    Empirical Dispersion Energy =           0.0000000000000000
    PCM Polarization Energy =               0.0000000000000000
    EFP Energy =                            0.0000000000000000
    Total Energy =                       -309.1741461271535059
    Molecular point group: c1
  Basis Set: CC-PVTZ
  Basis Set:

  -Total Gradient:
     Atom            X                  Y                   Z
    ------   -----------------  -----------------  -----------------
       1        0.000020728476     0.000004220234     0.000000457343
       2        0.000311205579    -0.003567370212    -0.000044445478
       3       -0.000615792583     0.004088515833    -0.000226395620
       4       -0.000031880629    -0.000001394788     0.000065781920
       5        0.001091439108     0.004094076355     0.001347253525
       6        0.000009606645    -0.000014269234    -0.000000127692
       7       -0.000015359927    -0.000009361486     0.000004249382
       8        0.000007144771    -0.000012708724     0.000001290383
       9       -0.000825876359    -0.004582440385    -0.001095403806
      10       -0.000003629284    -0.000005369655    -0.000014122838
      11        0.000001853996    -0.000007222548    -0.000000273429
      12        0.000007103138     0.000019916492    -0.000010891324
      13        0.000005246929     0.000008713024     0.000003103176
      14       -0.000006567431     0.000000174527    -0.000002206044
      15       -0.000008706123    -0.000004771718     0.000002974515
      16        0.000006529446     0.000004890004     0.000001239883
      17        0.000020830826    -0.000004772867     0.000005749736
      18        0.000014101239    -0.000015502115    -0.000010850667
      19        0.000012022180     0.000004677260    -0.000027382963

  **** Optimization is complete! (in 10 steps) ****
    Final optimized geometry and variables:
    Molecular point group: c1

    Geometry (in Angstrom), charge = 0, multiplicity = 1:

    O           -1.745495867429    -0.907842613117     0.884286310078
    C           -1.159824206408     0.122075942361     0.801704905244
    C            0.280838938880     0.248743014345     1.256900886095
    C           -1.825920979220     1.364935029520     0.257131618673
    C            1.301386465915     0.344628113756     0.106125388592
    H            0.379181799921     1.117815776918     1.899229880313
    H            0.488051005949    -0.631086726604     1.850975906921
    C            1.024316018046    -0.594263773001    -1.069209914468
    H            2.269670188763     0.073568994013     0.512700699162
    H            1.375874166714     1.365770504908    -0.252911402801
    C            2.134479888289    -0.558989580818    -2.113975313962
    H            0.903480375570    -1.606810665266    -0.698058720662
    H            0.082857104941    -0.335774916120    -1.543608827697
    H            3.084558583156    -0.862060017344    -1.686942273956
    H            2.259736243101     0.439207243363    -2.520819926661
    H            1.915022092862    -1.226478276857    -2.938786117239
    H           -2.784405074036     1.113179532172    -0.170193008507
    H           -1.203009246230     1.847265402474    -0.486928041754
    H           -1.968503268405     2.074361075372     1.066012126189

  Mulliken Charges: (a.u.)
   Center  Symbol    Alpha    Beta     Spin     Total
       1     O     4.17823  4.17823  0.00000 -0.35645
       2     C     2.85301  2.85301  0.00000  0.29399
       3     C     3.10743  3.10743  0.00000 -0.21485
       4     C     3.15531  3.15531  0.00000 -0.31062
       5     C     3.11394  3.11394  0.00000 -0.22789
       6     H     0.44168  0.44168  0.00000  0.11665
       7     H     0.43825  0.43825  0.00000  0.12349
       8     C     3.08548  3.08548  0.00000 -0.17096
       9     H     0.44283  0.44283  0.00000  0.11435
      10     H     0.44829  0.44829  0.00000  0.10341
      11     C     3.15097  3.15097  0.00000 -0.30193
      12     H     0.44312  0.44312  0.00000  0.11377
      13     H     0.45150  0.45150  0.00000  0.09701
      14     H     0.45417  0.45417  0.00000  0.09165
      15     H     0.45621  0.45621  0.00000  0.08758
      16     H     0.44584  0.44584  0.00000  0.10833
      17     H     0.43553  0.43553  0.00000  0.12893
      18     H     0.45094  0.45094  0.00000  0.09812
      19     H     0.44728  0.44728  0.00000  0.10544

   Total alpha = 28.00000, Total beta = 28.00000, Total charge = -0.00000

*** Psi4 exiting successfully. Buy a developer a beer!
