  ==> Input File <==

--------------------------------------------------------------------------
set {
	reference rhf
	basis cc-pvtz
}

set_num_threads( 4 )
memory 2 gb

molecule MOL {
0 1

O	 -0.294688	 1.318815	 -0.000872
C	 -0.448732	 0.145721	 -0.000187
C	 -1.780748	 -0.548101	 0.000195
O	 0.550743	 -0.719877	 0.000412
H	 -1.859389	 -1.183260	 -0.872613
H	 -2.570236	 0.185547	 -0.001342
H	 -1.860233	 -1.180337	 0.875064
C	 1.813551	 -0.251068	 0.430062
H	 2.156287	 0.553730	 -0.203073
H	 2.483182	 -1.092588	 0.358505
H	 1.762425	 0.099768	 1.450024

	symmetry c1
}
set optking {
	frozen_dihedral = ("
		8 4 2 1
	")
}

ee = optimize('scf')
oeprop('DIPOLE', 'QUADRUPOLE', 'MULLIKEN_CHARGES')
f=open( 'psi4out.xyz', 'w' )
f.write( "11  " )
f.write( str(ee) + "\n" )
f.write( MOL.save_string_xyz() )
f.close()
--------------------------------------------------------------------------

    Molecular point group: c1
  Charge       = 0
  Multiplicity = 1
  Basis Set: CC-PVTZ
  Basis Set:
  @DF-RHF Final Energy:  -266.93678786713485
    Total Energy =                       -266.9367878671348535
    Molecular point group: c1
  Basis Set: CC-PVTZ
  Basis Set:
  Basis Set: CC-PVTZ
  Basis Set:
  @DF-RHF Final Energy:  -266.93385592192294
    Total Energy =                       -266.9338559219227136
  Basis Set: CC-PVTZ
  Basis Set:
  Basis Set: CC-PVTZ
  Basis Set:
  @DF-RHF Final Energy:  -266.93702018793294
    Total Energy =                       -266.9370201879329443
  Basis Set: CC-PVTZ
  Basis Set:
  Basis Set: CC-PVTZ
  Basis Set:
  @DF-RHF Final Energy:  -266.93705643396129
    Total Energy =                       -266.9370564339610610
  Basis Set: CC-PVTZ
  Basis Set:
  @DF-RHF Final Energy:  -266.93706193899709
    Total Energy =                       -266.9370619389970898
  Basis Set: CC-PVTZ
  Basis Set:
  @DF-RHF Final Energy:  -266.93699116398568
    Total Energy =                       -266.9369911639856809
  Basis Set: CC-PVTZ
  Basis Set:
  Basis Set: CC-PVTZ
  Basis Set:
  @DF-RHF Final Energy:  -266.93707251136698
    Total Energy =                       -266.9370725113668072
  Basis Set: CC-PVTZ
  Basis Set:
  Basis Set: CC-PVTZ
  Basis Set:
  @DF-RHF Final Energy:  -266.93707357368083
    Total Energy =                       -266.9370735736807205
  Basis Set: CC-PVTZ
  Basis Set:
  Charge       = 0
  Multiplicity = 1
  Basis Set: CC-PVTZ
  Basis Set:

    Orbital Energies (a.u.)
    -----------------------

    Doubly Occupied:

       1A    -20.596815     2A    -20.536340     3A    -11.369214
       4A    -11.280966     5A    -11.233452     6A     -1.472937
       7A     -1.368016     8A     -1.036284     9A     -0.954294
      10A     -0.780125    11A     -0.697918    12A     -0.683786
      13A     -0.680652    14A     -0.597559    15A     -0.593577
      16A     -0.563064    17A     -0.530262    18A     -0.521591
      19A     -0.461788    20A     -0.445549

  @DF-RHF Final Energy:  -266.93707368841251

   => Energetics <=

    Nuclear Repulsion Energy =            183.5620416276431399
    One-Electron Energy =                -728.1898555414113616
    Two-Electron Energy =                 277.6907402253555688
    DFT Exchange-Correlation Energy =       0.0000000000000000
    Empirical Dispersion Energy =           0.0000000000000000
    PCM Polarization Energy =               0.0000000000000000
    EFP Energy =                            0.0000000000000000
    Total Energy =                       -266.9370736884126813
    Molecular point group: c1
  Basis Set: CC-PVTZ
  Basis Set:

  -Total Gradient:
     Atom            X                  Y                   Z
    ------   -----------------  -----------------  -----------------
       1       -0.000179425473     0.000322530695    -0.006422746115
       2       -0.000241366261    -0.001232551365     0.011885539448
       3        0.000013021277    -0.000002191900    -0.000003751667
       4        0.001407312934     0.002483668189    -0.010149560409
       5        0.000000119766    -0.000002423080    -0.000000601059
       6       -0.000001463029     0.000003266063    -0.000001704018
       7        0.000003228514    -0.000001570552    -0.000004263546
       8       -0.001015147239    -0.001583903073     0.004721465569
       9        0.000003911787     0.000007048294    -0.000007087674
      10        0.000002143254     0.000000003024    -0.000006975231
      11        0.000007664471     0.000006123702    -0.000010315298

  **** Optimization is complete! (in 9 steps) ****
    Final optimized geometry and variables:
    Molecular point group: c1

    Geometry (in Angstrom), charge = 0, multiplicity = 1:

    O           -0.297064155156     1.330197685359     0.001771215776
    C           -0.442658852350     0.158255499309    -0.058464886451
    C           -1.769648401231    -0.541443019474    -0.122209388133
    O            0.565471942180    -0.698233303113    -0.132536560676
    H           -1.790637969515    -1.210635578354    -0.971943299757
    H           -2.560979420358     0.186571028536    -0.196316198508
    H           -1.900871130944    -1.140063107534     0.770760188368
    C            1.835872193956    -0.241854165296     0.288882894031
    H            2.201741412301     0.537270064999    -0.362632729393
    H            2.489370304490    -1.097973387549     0.247662297978
    H            1.783698210714     0.137361897368     1.299389165102

  Mulliken Charges: (a.u.)
   Center  Symbol    Alpha    Beta     Spin     Total
       1     O     4.19402  4.19402  0.00000 -0.38804
       2     C     2.80185  2.80185  0.00000  0.39630
       3     C     3.13753  3.13753  0.00000 -0.27505
       4     O     4.14960  4.14960  0.00000 -0.29920
       5     H     0.44419  0.44419  0.00000  0.11162
       6     H     0.43806  0.43806  0.00000  0.12389
       7     H     0.44742  0.44742  0.00000  0.10516
       8     C     3.03302  3.03302  0.00000 -0.06603
       9     H     0.45056  0.45056  0.00000  0.09888
      10     H     0.44539  0.44539  0.00000  0.10921
      11     H     0.45837  0.45837  0.00000  0.08325

   Total alpha = 20.00000, Total beta = 20.00000, Total charge = -0.00000
