                              Psi4 1.0.54 Driver

  ==> Input File <==

--------------------------------------------------------------------------
set {
	reference rhf
	basis cc-pvtz
}

set_num_threads( 4 )
memory 2 gb

molecule MOL {
0 1

H	 -2.581819	 2.447025	 0.252214
O	 -1.898050	 1.852222	 0.005503
C	 -2.302264	 0.528872	 0.237390
C	 -1.175688	 -0.398187	 -0.171891
H	 -2.539456	 0.382003	 1.289028
H	 -3.198092	 0.298513	 -0.335548
C	 0.196029	 0.106276	 0.266738
H	 -1.201873	 -0.515469	 -1.250677
H	 -1.365975	 -1.378728	 0.252664
C	 1.330220	 -0.826136	 -0.155230
H	 0.359542	 1.097229	 -0.145561
H	 0.212134	 0.218135	 1.348778
C	 2.719700	 -0.407669	 0.328325
H	 1.339388	 -0.911200	 -1.239363
H	 1.119001	 -1.821953	 0.224128
C	 3.241564	 0.893452	 -0.276737
H	 3.418299	 -1.204729	 0.093035
H	 2.711776	 -0.323368	 1.411960
H	 3.254204	 0.841071	 -1.360784
H	 2.634460	 1.745075	 0.005842
H	 4.254264	 1.092401	 0.054971

	symmetry c1
}
set optking {
	frozen_dihedral = ("
		2 3 4 8
	")
}

ee,wfn = optimize('scf', return_wfn=True)
oeprop( wfn, 'DIPOLE', 'QUADRUPOLE', 'MULLIKEN_CHARGES')
f=open( 'psi4out.xyz', 'w' )
f.write( "21  " )
f.write( str(ee) + "\n" )
f.write( MOL.save_string_xyz() )
f.close()
--------------------------------------------------------------------------

    Molecular point group: c1
  Charge       = 0
  Multiplicity = 1
  Basis Set: CC-PVTZ
  Basis Set:
  @DF-RHF Final Energy:  -310.33028942071195
    Total Energy =                       -310.3302894207118925
    Molecular point group: c1
  Basis Set: CC-PVTZ
  Basis Set:
  Basis Set: CC-PVTZ
  Basis Set:
  @DF-RHF Final Energy:  -310.33084932441011
    Total Energy =                       -310.3308493244100532
  Basis Set: CC-PVTZ
  Basis Set:
  Basis Set: CC-PVTZ
  Basis Set:
  @DF-RHF Final Energy:  -310.33111140988404
    Total Energy =                       -310.3311114098839312
  Basis Set: CC-PVTZ
  Basis Set:
  Basis Set: CC-PVTZ
  Basis Set:
  @DF-RHF Final Energy:  -310.33112167868103
    Total Energy =                       -310.3311216786811428
  Basis Set: CC-PVTZ
  Basis Set:
  Charge       = 0
  Multiplicity = 1
  Basis Set: CC-PVTZ
  Basis Set:

    Orbital Energies (a.u.)
    -----------------------

    Doubly Occupied:

       1A    -20.546119     2A    -11.266283     3A    -11.210764
       4A    -11.208458     5A    -11.206223     6A    -11.203089
       7A    -11.200682     8A     -1.364179     9A     -1.081352
      10A     -1.030078    11A     -0.953845    12A     -0.875953
      13A     -0.801158    14A     -0.773375    15A     -0.704650
      16A     -0.649267    17A     -0.623080    18A     -0.602362
      19A     -0.587589    20A     -0.563335    21A     -0.539174
      22A     -0.520251    23A     -0.500341    24A     -0.494988
      25A     -0.478291    26A     -0.457023    27A     -0.449129
      28A     -0.440083    29A     -0.431249

  @DF-RHF Final Energy:  -310.33112088030367

   => Energetics <=

    Nuclear Repulsion Energy =            318.2310705742538062
    One-Electron Energy =               -1051.5996456630916782
    Two-Electron Energy =                 423.0374542085346548
    DFT Exchange-Correlation Energy =       0.0000000000000000
    Empirical Dispersion Energy =           0.0000000000000000
    PCM Polarization Energy =               0.0000000000000000
    EFP Energy =                            0.0000000000000000
    Total Energy =                       -310.3311208803031604
    Molecular point group: c1
  Basis Set: CC-PVTZ
  Basis Set:

  -Total Gradient:
     Atom            X                  Y                   Z
    ------   -----------------  -----------------  -----------------
       1       -0.000007114486     0.000053114470     0.000007814409
       2        0.001465927528     0.000170407537     0.003534140743
       3       -0.002566159679    -0.001342118261    -0.004498287068
       4        0.004077732513     0.005054385149     0.000442234017
       5       -0.000026916085     0.000013191985    -0.000001340863
       6        0.000002770751     0.000072523668    -0.000017977576
       7       -0.000098707371    -0.000026504781    -0.000066627955
       8       -0.002902480553    -0.003988170960     0.000617160087
       9        0.000004394894    -0.000079288186    -0.000010822220
      10        0.000034044628     0.000031728140    -0.000016699178
      11       -0.000044887606    -0.000001142145    -0.000026901391
      12        0.000024604513     0.000004253977    -0.000001802998
      13       -0.000020495455     0.000021314868     0.000063051542
      14       -0.000011937539     0.000046501932     0.000005085830
      15       -0.000000917769    -0.000002699606    -0.000024554151
      16        0.000021788066    -0.000008101896    -0.000021394719
      17        0.000000011930    -0.000006434526     0.000018582374
      18       -0.000003009216     0.000014675512     0.000014136197
      19       -0.000005884391     0.000010368066    -0.000012717207
      20        0.000056858716    -0.000019675842     0.000005233466
      21        0.000000376610    -0.000018329102    -0.000008313339

  **** Optimization is complete! (in 5 steps) ****
    Final optimized geometry and variables:
    Molecular point group: c1

    Geometry (in Angstrom), charge = 0, multiplicity = 1:

    H           -2.959697641385     2.163311555289     0.175840559771
    O           -2.236630871765     1.609807734912    -0.053671761616
    C           -2.564020278130     0.266442826628     0.190209686805
    C           -1.413333621221    -0.633929944514    -0.232468915265
    H           -2.759014225056     0.126159432209     1.251748084359
    H           -3.464662108923    -0.015072168873    -0.348374860008
    C           -0.036367867529    -0.161057427168     0.220355260140
    H           -1.441292448796    -0.777513327348    -1.308733616398
    H           -1.612475103696    -1.617136135485     0.188998445055
    C            1.069235782820    -1.146024004837    -0.154605937565
    H            0.161347669871     0.811056893460    -0.208833464435
    H           -0.043681454537    -0.024157685451     1.299760776428
    C            2.464607492229    -0.759009521803     0.338768994735
    H            1.093801448540    -1.263519708473    -1.235839877250
    H            0.821011387088    -2.123870339494     0.249911744096
    C            3.043952911021     0.496843085921    -0.307997327692
    H            3.138266537627    -1.589417462781     0.149645305010
    H            2.439815881358    -0.629839438972     1.417745054760
    H            3.075273185081     0.398588389295    -1.388481243972
    H            2.461460907569     1.379278660527    -0.073665006992
    H            4.056806141672     0.673686055666     0.036002410864

  Mulliken Charges: (a.u.)
   Center  Symbol    Alpha    Beta     Spin     Total
       1     H     0.39640  0.39640  0.00000  0.20720
       2     O     4.19635  4.19635  0.00000 -0.39270
       3     C     2.97380  2.97380  0.00000  0.05241
       4     C     3.09345  3.09345  0.00000 -0.18689
       5     H     0.47312  0.47312  0.00000  0.05376
       6     H     0.46625  0.46625  0.00000  0.06750
       7     C     3.08899  3.08899  0.00000 -0.17798
       8     H     0.45314  0.45314  0.00000  0.09371
       9     H     0.45667  0.45667  0.00000  0.08666
      10     C     3.09502  3.09502  0.00000 -0.19003
      11     H     0.44005  0.44005  0.00000  0.11990
      12     H     0.45794  0.45794  0.00000  0.08413
      13     C     3.08947  3.08947  0.00000 -0.17894
      14     H     0.45482  0.45482  0.00000  0.09036
      15     H     0.45171  0.45171  0.00000  0.09658
      16     C     3.15200  3.15200  0.00000 -0.30399
      17     H     0.44971  0.44971  0.00000  0.10058
      18     H     0.45566  0.45566  0.00000  0.08868
      19     H     0.45553  0.45553  0.00000  0.08893
      20     H     0.45203  0.45203  0.00000  0.09594
      21     H     0.44791  0.44791  0.00000  0.10419

   Total alpha = 29.00000, Total beta = 29.00000, Total charge =  0.00000

*** Psi4 exiting successfully. Buy a developer a beer!
