  ==> Input File <==

--------------------------------------------------------------------------
set {
	reference rhf
	basis 6-31G*
}

set_num_threads( 4 )
memory 2 gb

molecule MOL {
0 1

H	 1.905583	 2.071112	 -0.781312
O	 0.985169	 1.968424	 -0.586862
C	 0.702312	 0.627605	 -0.264544
C	 -0.714990	 0.596302	 0.266387
H	 1.383917	 0.263863	 0.499630
H	 0.790290	 -0.011018	 -1.140868
O	 -1.405996	 -0.526611	 -0.195820
H	 -1.257453	 1.468809	 -0.075599
H	 -0.688972	 0.618407	 1.353696
H	 -0.890587	 -1.292708	 0.022039

	symmetry c1
}
set optking {
	frozen_dihedral = ("
		5 3 4 7
	")
}

ee = optimize('scf')
oeprop('DIPOLE', 'QUADRUPOLE', 'MULLIKEN_CHARGES')
f=open( 'psi4out.xyz', 'w' )
f.write( "10  " )
f.write( str(ee) + "\n" )
f.write( MOL.save_string_xyz() )
f.close()
--------------------------------------------------------------------------

    Molecular point group: c1
  Charge       = 0
  Multiplicity = 1
  Basis Set: 6-31G*
  Basis Set:
  @DF-RHF Final Energy:  -228.91459739996503
    Total Energy =                       -228.9145973999650039
    Molecular point group: c1
  Basis Set: 6-31G*
  Basis Set:
  Basis Set: 6-31G*
  Basis Set:
  @DF-RHF Final Energy:  -228.91603488276590
    Total Energy =                       -228.9160348827658709
  Basis Set: 6-31G*
  Basis Set:
  Basis Set: 6-31G*
  Basis Set:
  @DF-RHF Final Energy:  -228.91647499066374
    Total Energy =                       -228.9164749906637155
  Basis Set: 6-31G*
  Basis Set:
  Basis Set: 6-31G*
  Basis Set:
  @DF-RHF Final Energy:  -228.91654363265562
    Total Energy =                       -228.9165436326556176
  Basis Set: 6-31G*
  Basis Set:
  Basis Set: 6-31G*
  Basis Set:
  @DF-RHF Final Energy:  -228.91654675396046
    Total Energy =                       -228.9165467539604606
  Basis Set: 6-31G*
  Basis Set:
  Charge       = 0
  Multiplicity = 1
  Basis Set: 6-31G*
  Basis Set:

    Orbital Energies (a.u.)
    -----------------------

    Doubly Occupied:

       1A    -20.559249     2A    -20.558538     3A    -11.271866
       4A    -11.268389     5A     -1.371813     6A     -1.358447
       7A     -0.995221     8A     -0.845742     9A     -0.708586
      10A     -0.703013    11A     -0.632917    12A     -0.599314
      13A     -0.581150    14A     -0.525169    15A     -0.488190
      16A     -0.442350    17A     -0.438671

  @DF-RHF Final Energy:  -228.91654685997997

   => Energetics <=

    Nuclear Repulsion Energy =            131.0904683322601727
    One-Electron Energy =                -573.3167820297434218
    Two-Electron Energy =                 213.3097668375031901
    DFT Exchange-Correlation Energy =       0.0000000000000000
    Empirical Dispersion Energy =           0.0000000000000000
    PCM Polarization Energy =               0.0000000000000000
    EFP Energy =                            0.0000000000000000
    Total Energy =                       -228.9165468599800590
    Molecular point group: c1
  Basis Set: 6-31G*
  Basis Set:

  -Total Gradient:
     Atom            X                  Y                   Z
    ------   -----------------  -----------------  -----------------
       1       -0.000005149496    -0.000010521388     0.000002708280
       2        0.000004110865     0.000033315415     0.000004811111
       3       -0.000986880168    -0.005238389933    -0.003683693767
       4        0.001864890689    -0.001837057644     0.004811587720
       5        0.000425414246     0.004790472075     0.002012637309
       6        0.000006907165    -0.000010600759     0.000005612370
       7       -0.001297797070     0.002271964295    -0.003164256435
       8       -0.000009644177    -0.000017162479    -0.000002899662
       9       -0.000005365555     0.000002674833     0.000011251112
      10        0.000003513501     0.000015305582     0.000002241963

  **** Optimization is complete! (in 6 steps) ****
    Final optimized geometry and variables:
    Molecular point group: c1

    Geometry (in Angstrom), charge = 0, multiplicity = 1:

    H            1.979275001759     1.455552720263    -0.581823235006
    O            1.077368055439     1.350664267180    -0.314567525263
    C            0.808796933924    -0.008577112075    -0.072004693971
    C           -0.623930293640    -0.100400506142     0.454601002268
    H            1.520679599792    -0.382054273290     0.662257405468
    H            0.886837029375    -0.595430798550    -0.981752061489
    O           -1.313706479063    -1.216543045186    -0.044351584098
    H           -1.156790096066     0.767324758086     0.093928116942
    H           -0.646118916157    -0.076422790132     1.540389319213
    H           -1.034195744402    -1.999992908330     0.407798483707

  Mulliken Charges: (a.u.)
   Center  Symbol    Alpha    Beta     Spin     Total
       1     H     0.27974  0.27974  0.00000  0.44052
       2     O     4.37263  4.37263  0.00000 -0.74526
       3     C     3.00989  3.00989  0.00000 -0.01979
       4     C     3.00878  3.00878  0.00000 -0.01756
       5     H     0.43315  0.43315  0.00000  0.13371
       6     H     0.41874  0.41874  0.00000  0.16252
       7     O     4.36962  4.36962  0.00000 -0.73923
       8     H     0.39931  0.39931  0.00000  0.20138
       9     H     0.42558  0.42558  0.00000  0.14885
      10     H     0.28257  0.28257  0.00000  0.43486

   Total alpha = 17.00000, Total beta = 17.00000, Total charge =  0.00000
