  ==> Input File <==

--------------------------------------------------------------------------
set {
	reference rhf
	basis 6-31G*
}

set_num_threads( 1 )
memory 2 gb

molecule MOL {
0 1

H	 -1.836216	 1.387520	 -0.000064
C	 -1.301823	 0.443321	 -0.000031
O	 -0.003969	 0.658512	 0.000451
O	 -1.829879	 -0.616434	 -0.000857
C	 0.438934	 1.997219	 0.221555
C	 1.951647	 1.988035	 0.177569
H	 0.066844	 2.333747	 1.179478
H	 0.018363	 2.634916	 -0.543793
H	 2.355044	 1.338107	 0.945617
H	 2.330700	 2.991224	 0.342382
H	 2.306493	 1.640748	 -0.785947

	symmetry c1
}
set optking {
	frozen_dihedral = ("
		7 5 3 2
	")
}

ee = energy('scf')
oeprop('DIPOLE', 'QUADRUPOLE', 'MULLIKEN_CHARGES')
f=open( 'psi4out.xyz', 'w' )
f.write( "11  " )
f.write( str(ee) + "\n" )
f.write( MOL.save_string_xyz() )
f.close()
--------------------------------------------------------------------------

    Molecular point group: c1

    Geometry (in Angstrom), charge = 0, multiplicity = 1:

       Center              X                  Y                   Z               Mass
    ------------   -----------------  -----------------  -----------------  -----------------
           H         -1.687845075543     0.492847785441    -0.080148485548     1.007825032070
           C         -1.153452075543    -0.451351214559    -0.080115485548    12.000000000000
           O          0.144401924457    -0.236160214559    -0.079633485548    15.994914619560
           O         -1.681508075543    -1.511106214559    -0.080941485548    15.994914619560
           C          0.587304924457     1.102546785441     0.141470514452    12.000000000000
           C          2.100017924457     1.093362785441     0.097484514452    12.000000000000
           H          0.215214924457     1.439074785441     1.099393514452     1.007825032070
           H          0.166733924457     1.740243785441    -0.623877485548     1.007825032070
           H          2.503414924457     0.443434785441     0.865532514452     1.007825032070
           H          2.479070924457     2.096551785441     0.262297514452     1.007825032070
           H          2.454863924457     0.746075785441    -0.866031485548     1.007825032070

  Charge       = 0
  Multiplicity = 1
  Basis Set: 6-31G*
  Basis Set:

    Orbital Energies (a.u.)
    -----------------------

    Doubly Occupied:

       1A    -20.612929     2A    -20.555850     3A    -11.379508
       4A    -11.309232     5A    -11.236124     6A     -1.473086
       7A     -1.378691     8A     -1.058220     9A     -0.890789
      10A     -0.851645    11A     -0.735335    12A     -0.698100
      13A     -0.667410    14A     -0.598908    15A     -0.576592
      16A     -0.565304    17A     -0.531565    18A     -0.526629
      19A     -0.456955    20A     -0.449140

  @DF-RHF Final Energy:  -266.81810038146159

   => Energetics <=

    Nuclear Repulsion Energy =            176.1363967270010846
    One-Electron Energy =                -712.8049766850243714
    Two-Electron Energy =                 269.8504795765608151
    DFT Exchange-Correlation Energy =       0.0000000000000000
    Empirical Dispersion Energy =           0.0000000000000000
    PCM Polarization Energy =               0.0000000000000000
    EFP Energy =                            0.0000000000000000
    Total Energy =                       -266.8181003814625001

  Mulliken Charges: (a.u.)
   Center  Symbol    Alpha    Beta     Spin     Total
       1     H     0.43712  0.43712  0.00000  0.12576
       2     C     2.71187  2.71187  0.00000  0.57626
       3     O     4.28457  4.28457  0.00000 -0.56914
       4     O     4.25453  4.25453  0.00000 -0.50905
       5     C     3.01257  3.01257  0.00000 -0.02514
       6     C     3.24740  3.24740  0.00000 -0.49481
       7     H     0.41265  0.41265  0.00000  0.17470
       8     H     0.41403  0.41403  0.00000  0.17193
       9     H     0.40467  0.40467  0.00000  0.19067
      10     H     0.41510  0.41510  0.00000  0.16980
      11     H     0.40549  0.40549  0.00000  0.18901

   Total alpha = 20.00000, Total beta = 20.00000, Total charge =  0.00000
