  ==> Input File <==

--------------------------------------------------------------------------
set {
	reference rhf
	basis cc-pvtz
}

set_num_threads( 4 )
memory 2 gb

molecule MOL {
0 1

O	 0.749630	 1.305591	 -0.000460
C	 0.576499	 0.134701	 -0.003900
C	 -0.765656	 -0.550508	 -0.002152
O	 1.564816	 -0.744612	 -0.000631
C	 -1.945526	 0.411052	 0.000603
H	 -0.794329	 -1.203792	 -0.868145
H	 -0.791555	 -1.205429	 0.862701
C	 -3.208902	 -0.232066	 0.562034
H	 -2.125336	 0.758872	 -1.009389
H	 -1.689157	 1.289458	 0.580308
H	 -3.504396	 -1.097409	 -0.022067
H	 -4.035118	 0.468485	 0.554416
H	 -3.063484	 -0.559918	 1.586092
C	 2.884339	 -0.237801	 0.002883
H	 3.064150	 0.362814	 -0.876312
H	 3.533055	 -1.098529	 0.004958
H	 3.059365	 0.363432	 0.882614

	symmetry c1
}
set optking {
	frozen_dihedral = ("
		9 5 3 6
	")
}

ee = optimize('scf')
oeprop('DIPOLE', 'QUADRUPOLE', 'MULLIKEN_CHARGES')
f=open( 'psi4out.xyz', 'w' )
f.write( "17  " )
f.write( str(ee) + "\n" )
f.write( MOL.save_string_xyz() )
f.close()
--------------------------------------------------------------------------

    Molecular point group: c1
  Charge       = 0
  Multiplicity = 1
  Basis Set: CC-PVTZ
  Basis Set:
  @DF-RHF Final Energy:  -345.03367695555164
    Total Energy =                       -345.0336769555519822
    Molecular point group: c1
  Basis Set: CC-PVTZ
  Basis Set:
  Basis Set: CC-PVTZ
  Basis Set:
  @DF-RHF Final Energy:  -345.03371058686679
    Total Energy =                       -345.0337105868665617
  Basis Set: CC-PVTZ
  Basis Set:
  Basis Set: CC-PVTZ
  Basis Set:
  @DF-RHF Final Energy:  -345.03376826576721
    Total Energy =                       -345.0337682657674350
  Basis Set: CC-PVTZ
  Basis Set:
  Basis Set: CC-PVTZ
  Basis Set:
  @DF-RHF Final Energy:  -345.03387476232115
    Total Energy =                       -345.0338747623207496
  Basis Set: CC-PVTZ
  Basis Set:
  Basis Set: CC-PVTZ
  Basis Set:
  @DF-RHF Final Energy:  -345.03390300633981
    Total Energy =                       -345.0339030063396422
  Basis Set: CC-PVTZ
  Basis Set:
  Basis Set: CC-PVTZ
  Basis Set:
  @DF-RHF Final Energy:  -345.03390637961172
    Total Energy =                       -345.0339063796114374
  Basis Set: CC-PVTZ
  Basis Set:
  Charge       = 0
  Multiplicity = 1
  Basis Set: CC-PVTZ
  Basis Set:

    Orbital Energies (a.u.)
    -----------------------

    Doubly Occupied:

       1A    -20.596584     2A    -20.534598     3A    -11.364946
       4A    -11.278731     5A    -11.234565     6A    -11.219726
       7A    -11.212382     8A     -1.472607     9A     -1.366176
      10A     -1.080886    11A     -1.002520    12A     -0.939976
      13A     -0.827778    14A     -0.769018    15A     -0.702114
      16A     -0.686594    17A     -0.676324    18A     -0.637226
      19A     -0.597719    20A     -0.574634    21A     -0.570610
      22A     -0.529450    23A     -0.524405    24A     -0.496954
      25A     -0.487511    26A     -0.479453    27A     -0.460459
      28A     -0.441370

  @DF-RHF Final Energy:  -345.03390735680921

   => Energetics <=

    Nuclear Repulsion Energy =            313.0303899314627643
    One-Electron Energy =               -1090.5979649710493504
    Two-Electron Energy =                 432.5336676827774340
    DFT Exchange-Correlation Energy =       0.0000000000000000
    Empirical Dispersion Energy =           0.0000000000000000
    PCM Polarization Energy =               0.0000000000000000
    EFP Energy =                            0.0000000000000000
    Total Energy =                       -345.0339073568091521
    Molecular point group: c1
  Basis Set: CC-PVTZ
  Basis Set:

  -Total Gradient:
     Atom            X                  Y                   Z
    ------   -----------------  -----------------  -----------------
       1        0.000001927525    -0.000011863835     0.000004352812
       2        0.000017080990     0.000004162243     0.000021692246
       3       -0.002869719158    -0.003500150803     0.002037684795
       4       -0.000009056063     0.000010462726    -0.000011464917
       5        0.003129396382     0.003802488016     0.000232573831
       6        0.001886167888     0.002285996172    -0.001754956278
       7       -0.000005304566     0.000009892726    -0.000000519031
       8       -0.000022707322     0.000000653076     0.000004248753
       9       -0.002132668892    -0.002617233818    -0.000533593450
      10       -0.000001706040     0.000011841444    -0.000003854441
      11        0.000002295140    -0.000002445195     0.000000528394
      12       -0.000001989224    -0.000003191402    -0.000000183235
      13        0.000001406777     0.000008227260    -0.000001248274
      14        0.000003949864    -0.000000371745     0.000005221459
      15       -0.000001333250    -0.000000253171    -0.000000046290
      16        0.000001841453     0.000001382418    -0.000000200154
      17        0.000000418500     0.000000403890    -0.000000236220

  **** Optimization is complete! (in 7 steps) ****
    Final optimized geometry and variables:
    Molecular point group: c1

    Geometry (in Angstrom), charge = 0, multiplicity = 1:

    O            0.750879144414     1.294791997258    -0.091723764282
    C            0.569766512129     0.125265664371    -0.074707097204
    C           -0.775744109781    -0.558056677497    -0.047674396842
    O            1.553797387281    -0.759232221469    -0.080445851730
    C           -1.957274111270     0.407366160541    -0.055072786758
    H           -0.795564298773    -1.209430875134    -0.914775867762
    H           -0.789407715473    -1.201813615140     0.824824717227
    C           -3.238058279562    -0.253325115732     0.448351215309
    H           -2.124841959732     0.756902125911    -1.067392016078
    H           -1.724070066484     1.274354027379     0.547025587826
    H           -3.494281803314    -1.124754110208    -0.145624245233
    H           -4.073141379648     0.435222496627     0.399595903157
    H           -3.134850481098    -0.575874302636     1.479100453200
    C            2.875559313190    -0.259719334261    -0.107067934671
    H            3.042374722776     0.330245999907    -0.996072547944
    H            3.520259819821    -1.123570253301    -0.107312631750
    H            3.070314729831     0.350457955882     0.762403559426

  Mulliken Charges: (a.u.)
   Center  Symbol    Alpha    Beta     Spin     Total
       1     O     4.19619  4.19619  0.00000 -0.39238
       2     C     2.80509  2.80509  0.00000  0.38981
       3     C     3.09802  3.09802  0.00000 -0.19605
       4     O     4.14745  4.14745  0.00000 -0.29490
       5     C     3.08117  3.08117  0.00000 -0.16233
       6     H     0.43912  0.43912  0.00000  0.12175
       7     H     0.44115  0.44115  0.00000  0.11771
       8     C     3.15052  3.15052  0.00000 -0.30103
       9     H     0.45138  0.45138  0.00000  0.09723
      10     H     0.44070  0.44070  0.00000  0.11861
      11     H     0.45597  0.45597  0.00000  0.08806
      12     H     0.44641  0.44641  0.00000  0.10718
      13     H     0.45560  0.45560  0.00000  0.08879
      14     C     3.03708  3.03708  0.00000 -0.07416
      15     H     0.45441  0.45441  0.00000  0.09118
      16     H     0.44538  0.44538  0.00000  0.10923
      17     H     0.45435  0.45435  0.00000  0.09130

   Total alpha = 28.00000, Total beta = 28.00000, Total charge = -0.00000
