  ==> Input File <==

--------------------------------------------------------------------------
set {
	reference rhf
	basis 6-31G*
}

set_num_threads( 1 )
memory 2 gb

molecule MOL {
0 1

H	 -4.031818	 -0.453427	 -0.000094
C	 -2.967712	 -0.297022	 -0.000064
C	 -2.458620	 0.992929	 0.000032
C	 -2.109895	 -1.385637	 -0.000122
H	 -3.124998	 1.836319	 0.000077
C	 -1.090278	 1.193236	 0.000070
H	 -2.506361	 -2.384847	 -0.000198
C	 -0.739812	 -1.187531	 -0.000085
H	 -0.678594	 2.184290	 0.000146
C	 -0.226438	 0.104061	 0.000012
H	 -0.072310	 -2.027032	 -0.000131
C	 1.239129	 0.373821	 0.000060
O	 1.607893	 1.238253	 -0.933414
O	 2.008621	 -0.130256	 0.756795
C	 2.987155	 1.553235	 -1.004789
H	 3.323145	 1.993485	 -0.077381
H	 3.085411	 2.260745	 -1.813262
H	 3.567849	 0.665656	 -1.209527

	symmetry c1
}
set optking {
	frozen_dihedral = ("
		12 13 15 16,
		10 12 13 15
	")
}

ee = energy('scf')
oeprop('DIPOLE', 'QUADRUPOLE', 'MULLIKEN_CHARGES')
f=open( 'psi4out.xyz', 'w' )
f.write( "18  " )
f.write( str(ee) + "\n" )
f.write( MOL.save_string_xyz() )
f.close()
--------------------------------------------------------------------------

    Molecular point group: c1

    Geometry (in Angstrom), charge = 0, multiplicity = 1:

       Center              X                  Y                   Z               Mass
    ------------   -----------------  -----------------  -----------------  -----------------
           H         -3.980419284048    -0.732690656218     0.132268710366     1.007825032070
           C         -2.916313284048    -0.576285656218     0.132298710366    12.000000000000
           C         -2.407221284048     0.713665343782     0.132394710366    12.000000000000
           C         -2.058496284048    -1.664900656218     0.132240710366    12.000000000000
           H         -3.073599284048     1.557055343782     0.132439710366     1.007825032070
           C         -1.038879284048     0.913972343782     0.132432710366    12.000000000000
           H         -2.454962284048    -2.664110656218     0.132164710366     1.007825032070
           C         -0.688413284048    -1.466794656218     0.132277710366    12.000000000000
           H         -0.627195284048     1.905026343782     0.132508710366     1.007825032070
           C         -0.175039284048    -0.175202656218     0.132374710366    12.000000000000
           H         -0.020911284048    -2.306295656218     0.132231710366     1.007825032070
           C          1.290527715952     0.094557343782     0.132422710366    12.000000000000
           O          1.659291715952     0.958989343782    -0.801051289634    15.994914619560
           O          2.060019715952    -0.409519656218     0.889157710366    15.994914619560
           C          3.038553715952     1.273971343782    -0.872426289634    12.000000000000
           H          3.374543715952     1.714221343782     0.054981710366     1.007825032070
           H          3.136809715952     1.981481343782    -1.680899289634     1.007825032070
           H          3.619247715952     0.386392343782    -1.077164289634     1.007825032070

  Charge       = 0
  Multiplicity = 1
  Basis Set: 6-31G*
  Basis Set:

    Orbital Energies (a.u.)
    -----------------------

    Doubly Occupied:

       1A    -20.609333     2A    -20.547083     3A    -11.378959
       4A    -11.283385     5A    -11.249681     6A    -11.245033
       7A    -11.243801     8A    -11.242765     9A    -11.239266
      10A    -11.238997    11A     -1.473974    12A     -1.364597
      13A     -1.166440    14A     -1.049447    15A     -1.026103
      16A     -0.978864    17A     -0.860790    18A     -0.837572
      19A     -0.779189    20A     -0.738436    21A     -0.685893
      22A     -0.678258    23A     -0.674630    24A     -0.630733
      25A     -0.628375    26A     -0.598146    27A     -0.589664
      28A     -0.551812    29A     -0.533989    30A     -0.517669
      31A     -0.507271    32A     -0.501364    33A     -0.458047
      34A     -0.443974    35A     -0.342958    36A     -0.342679

  @DF-RHF Final Energy:  -457.34328579154339

   => Energetics <=

    Nuclear Repulsion Energy =            492.2898052902945665
    One-Electron Energy =               -1598.7879962119602624
    Two-Electron Energy =                 649.1549051301219606
    DFT Exchange-Correlation Energy =       0.0000000000000000
    Empirical Dispersion Energy =           0.0000000000000000
    PCM Polarization Energy =               0.0000000000000000
    EFP Energy =                            0.0000000000000000
    Total Energy =                       -457.3432857915438490

  Mulliken Charges: (a.u.)
   Center  Symbol    Alpha    Beta     Spin     Total
       1     H     0.39605  0.39605  0.00000  0.20789
       2     C     3.09430  3.09430  0.00000 -0.18861
       3     C     3.10264  3.10264  0.00000 -0.20529
       4     C     3.10347  3.10347  0.00000 -0.20695
       5     H     0.39591  0.39591  0.00000  0.20819
       6     C     3.09291  3.09291  0.00000 -0.18583
       7     H     0.39516  0.39516  0.00000  0.20968
       8     C     3.09359  3.09359  0.00000 -0.18717
       9     H     0.38779  0.38779  0.00000  0.22442
      10     C     3.02746  3.02746  0.00000 -0.05492
      11     H     0.38554  0.38554  0.00000  0.22892
      12     C     2.62603  2.62603  0.00000  0.74794
      13     O     4.30061  4.30061  0.00000 -0.60122
      14     O     4.28230  4.28230  0.00000 -0.56459
      15     C     3.09367  3.09367  0.00000 -0.18733
      16     H     0.40806  0.40806  0.00000  0.18388
      17     H     0.40702  0.40702  0.00000  0.18596
      18     H     0.40748  0.40748  0.00000  0.18503

   Total alpha = 36.00000, Total beta = 36.00000, Total charge =  0.00000
