                              Psi4 1.0.54 Driver

  ==> Input File <==

--------------------------------------------------------------------------
set {
	reference rhf
	basis cc-pvtz
}

set_num_threads( 4 )
memory 2 gb

molecule MOL {
0 1

O	 3.219313	 0.959291	 -0.614106
C	 2.698710	 0.058177	 -0.050237
C	 1.246364	 -0.005813	 0.348416
O	 3.344101	 -1.038700	 0.312317
C	 0.453207	 1.232821	 -0.049003
H	 0.839270	 -0.907818	 -0.092281
H	 1.216683	 -0.160521	 1.422434
C	 -0.998367	 1.217982	 0.432195
H	 0.481498	 1.345443	 -1.127236
H	 0.951413	 2.105557	 0.354893
C	 -1.882951	 0.151251	 -0.211235
H	 -1.429490	 2.193659	 0.228843
H	 -1.019755	 1.099323	 1.513279
C	 -3.373821	 0.438980	 -0.055329
H	 -1.640711	 0.078163	 -1.268992
H	 -1.667785	 -0.822513	 0.218909
C	 -4.267366	 -0.623366	 -0.689183
H	 -3.600605	 1.406602	 -0.496483
H	 -3.614537	 0.524014	 1.001880
C	 -5.755139	 -0.327992	 -0.530874
H	 -4.028139	 -0.709333	 -1.745639
H	 -4.043899	 -1.590683	 -0.247348
H	 -6.360466	 -1.100506	 -0.991077
H	 -6.017794	 0.617389	 -0.993882
H	 -6.033396	 -0.269938	 0.516223
C	 4.720529	 -1.114346	 0.001449
H	 4.874321	 -1.055557	 -1.065852
H	 5.057824	 -2.067950	 0.373977
H	 5.264321	 -0.313596	 0.480350

	symmetry c1
}
set optking {
	frozen_dihedral = ("
		15 11 8 5
	")
}

ee,wfn = optimize('scf', return_wfn=True)
oeprop( wfn, 'DIPOLE', 'QUADRUPOLE', 'MULLIKEN_CHARGES')
f=open( 'psi4out.xyz', 'w' )
f.write( "29  " )
f.write( str(ee) + "\n" )
f.write( MOL.save_string_xyz() )
f.close()
--------------------------------------------------------------------------

    Molecular point group: c1
  Charge       = 0
  Multiplicity = 1
  Basis Set: CC-PVTZ
  Basis Set:
  @DF-RHF Final Energy:  -501.22426231416853
    Total Energy =                       -501.2242623141686408
    Molecular point group: c1
  Basis Set: CC-PVTZ
  Basis Set:
  Basis Set: CC-PVTZ
  Basis Set:
  @DF-RHF Final Energy:  -501.22426720540193
    Total Energy =                       -501.2242672054019295
  Basis Set: CC-PVTZ
  Basis Set:
  Basis Set: CC-PVTZ
  Basis Set:
  @DF-RHF Final Energy:  -501.22436490266045
    Total Energy =                       -501.2243649026605681
  Basis Set: CC-PVTZ
  Basis Set:
  Basis Set: CC-PVTZ
  Basis Set:
  @DF-RHF Final Energy:  -501.22436738695092
    Total Energy =                       -501.2243673869511440
  Basis Set: CC-PVTZ
  Basis Set:
  Basis Set: CC-PVTZ
  Basis Set:
  @DF-RHF Final Energy:  -501.22437277944482
    Total Energy =                       -501.2243727794452752
  Basis Set: CC-PVTZ
  Basis Set:
  Basis Set: CC-PVTZ
  Basis Set:
  @DF-RHF Final Energy:  -501.22437826253258
    Total Energy =                       -501.2243782625324684
  Basis Set: CC-PVTZ
  Basis Set:
  Basis Set: CC-PVTZ
  Basis Set:
  @DF-RHF Final Energy:  -501.22438078316623
    Total Energy =                       -501.2243807831664526
  Basis Set: CC-PVTZ
  Basis Set:
  Charge       = 0
  Multiplicity = 1
  Basis Set: CC-PVTZ
  Basis Set:

    Orbital Energies (a.u.)
    -----------------------

    Doubly Occupied:

       1A    -20.595941     2A    -20.533785     3A    -11.364157
       4A    -11.278206     5A    -11.232805     6A    -11.217057
       7A    -11.215395     8A    -11.213987     9A    -11.213834
      10A    -11.212511    11A    -11.207137    12A     -1.471813
      13A     -1.365401    14A     -1.099359    15A     -1.068044
      16A     -1.020356    17A     -0.978071    18A     -0.929209
      19A     -0.862435    20A     -0.800038    21A     -0.791247
      22A     -0.765329    23A     -0.702426    24A     -0.685494
      25A     -0.675899    26A     -0.652226    27A     -0.629352
      28A     -0.606080    29A     -0.594618    30A     -0.582317
      31A     -0.568073    32A     -0.550363    33A     -0.532814
      34A     -0.531197    35A     -0.518219    36A     -0.513323
      37A     -0.495387    38A     -0.478640    39A     -0.470910
      40A     -0.462416    41A     -0.459959    42A     -0.458422
      43A     -0.443986    44A     -0.437276

  @DF-RHF Final Energy:  -501.22438145267245

   => Energetics <=

    Nuclear Repulsion Energy =            611.3034914934033850
    One-Electron Energy =               -1894.0847107462079748
    Two-Electron Energy =                 781.5568378001325982
    DFT Exchange-Correlation Energy =       0.0000000000000000
    Empirical Dispersion Energy =           0.0000000000000000
    PCM Polarization Energy =               0.0000000000000000
    EFP Energy =                            0.0000000000000000
    Total Energy =                       -501.2243814526718779
    Molecular point group: c1
  Basis Set: CC-PVTZ
  Basis Set:

  -Total Gradient:
     Atom            X                  Y                   Z
    ------   -----------------  -----------------  -----------------
       1        0.000006469954     0.000062076863    -0.000028124355
       2       -0.000000950977    -0.000011642374     0.000025084630
       3       -0.000000828806    -0.000020018370    -0.000014470085
       4       -0.000010720545    -0.000041519359     0.000018703794
       5       -0.000404067459     0.001137335775    -0.001287250247
       6       -0.000010863335    -0.000014930725     0.000001684890
       7        0.000009202387     0.000001607646     0.000009500044
       8        0.000970330681    -0.001997358233     0.001969941512
       9       -0.000006779605    -0.000000290782    -0.000012556686
      10       -0.000001224597     0.000013222343     0.000004090936
      11       -0.002190132119     0.002509333278    -0.001218486309
      12        0.000015694136     0.000011105459    -0.000000172817
      13        0.000002572644    -0.000002031622    -0.000004249290
      14        0.000006225761    -0.000003209544     0.000001547929
      15        0.001633069629    -0.001663333175     0.000543984942
      16        0.000005488597    -0.000007703955    -0.000003768697
      17       -0.000003749895     0.000008861279     0.000001062938
      18       -0.000000389420     0.000011722770    -0.000004046370
      19       -0.000004590443     0.000000410469     0.000010158426
      20        0.000009321950    -0.000003362556    -0.000000973810
      21        0.000001722203    -0.000002377341    -0.000013546601
      22        0.000004868944    -0.000009715789     0.000004482638
      23       -0.000002281173    -0.000004882467    -0.000001691130
      24       -0.000003108266     0.000009254970    -0.000004868637
      25       -0.000003578538     0.000001532539     0.000010480353
      26       -0.000025271223     0.000014048261    -0.000007899589
      27        0.000007506312    -0.000000612779    -0.000012618669
      28       -0.000009891027    -0.000006874060     0.000006486575
      29        0.000005954236     0.000009351478     0.000007513687

  **** Optimization is complete! (in 8 steps) ****
    Final optimized geometry and variables:
    Molecular point group: c1

    Geometry (in Angstrom), charge = 0, multiplicity = 1:

    O            3.243048810223     0.877628326561    -0.458433290047
    C            2.697145272246    -0.023692574294     0.080777951392
    C            1.238706459705    -0.065509316838     0.459106833858
    O            3.315514672508    -1.140527754159     0.429157140198
    C            0.476418058750     1.198403061922     0.081553188255
    H            0.816471599185    -0.946857385017    -0.009242169903
    H            1.190583667261    -0.246124973884     1.528415040502
    C           -0.985859439867     1.189128740931     0.527253629677
    H            0.528481315503     1.340592192507    -0.992052585102
    H            0.978218481943     2.051513276979     0.521585391938
    C           -1.854552831244     0.117709762232    -0.135566205498
    H           -1.403547564528     2.165386322809     0.299126356719
    H           -1.041978012968     1.084288477543     1.607976330097
    C           -3.350140727233     0.384733423761     0.001808586372
    H           -1.588668299591     0.035744865556    -1.187010158425
    H           -1.631783308952    -0.853577970749     0.298356485598
    C           -4.222184283255    -0.708083511035    -0.609511052975
    H           -3.588241302069     1.336745466747    -0.466264991577
    H           -3.599392168889     0.494248221894     1.054976338650
    C           -5.715401555484    -0.427745168868    -0.477204265559
    H           -3.969304325007    -0.822569880122    -1.660154214647
    H           -3.991377000929    -1.658524456638    -0.136053208810
    H           -6.305244059157    -1.222085289106    -0.920042104785
    H           -5.984923726775     0.499340939285    -0.972181537627
    H           -6.006529912067    -0.341193011163     0.564433422066
    C            4.693916463431    -1.238207125675     0.133664236525
    H            4.862388699255    -1.161536602860    -0.930307526780
    H            5.007121043471    -2.205703793076     0.491151169685
    H            5.247749401346    -0.458369533725     0.635092592566

  Mulliken Charges: (a.u.)
   Center  Symbol    Alpha    Beta     Spin     Total
       1     O     4.19702  4.19702  0.00000 -0.39403
       2     C     2.80543  2.80543  0.00000  0.38915
       3     C     3.10064  3.10064  0.00000 -0.20128
       4     O     4.14717  4.14717  0.00000 -0.29435
       5     C     3.09289  3.09289  0.00000 -0.18577
       6     H     0.43840  0.43840  0.00000  0.12319
       7     H     0.43999  0.43999  0.00000  0.12002
       8     C     3.10323  3.10323  0.00000 -0.20645
       9     H     0.44604  0.44604  0.00000  0.10792
      10     H     0.43994  0.43994  0.00000  0.12012
      11     C     3.09654  3.09654  0.00000 -0.19308
      12     H     0.44650  0.44650  0.00000  0.10701
      13     H     0.45237  0.45237  0.00000  0.09526
      14     C     3.08503  3.08503  0.00000 -0.17005
      15     H     0.45247  0.45247  0.00000  0.09506
      16     H     0.45361  0.45361  0.00000  0.09278
      17     C     3.08363  3.08363  0.00000 -0.16725
      18     H     0.45381  0.45381  0.00000  0.09239
      19     H     0.45474  0.45474  0.00000  0.09051
      20     C     3.15065  3.15065  0.00000 -0.30130
      21     H     0.45448  0.45448  0.00000  0.09104
      22     H     0.45494  0.45494  0.00000  0.09011
      23     H     0.44835  0.44835  0.00000  0.10330
      24     H     0.45494  0.45494  0.00000  0.09011
      25     H     0.45522  0.45522  0.00000  0.08956
      26     C     3.03806  3.03806  0.00000 -0.07612
      27     H     0.45438  0.45438  0.00000  0.09124
      28     H     0.44528  0.44528  0.00000  0.10945
      29     H     0.45426  0.45426  0.00000  0.09148

   Total alpha = 44.00000, Total beta = 44.00000, Total charge =  0.00000

*** Psi4 exiting successfully. Buy a developer a beer!
