                              Psi4 1.0.54 Driver

  ==> Input File <==

--------------------------------------------------------------------------
set {
	reference rhf
	basis cc-pvtz
}

set_num_threads( 4 )
memory 2 gb

molecule MOL {
0 1

H	 -2.362939	 -1.309000	 -0.383250
C	 -1.359344	 -1.272457	 0.020748
C	 -0.684082	 0.000127	 -0.464918
H	 -0.825835	 -2.151141	 -0.318537
H	 -1.416276	 -1.292399	 1.099455
C	 -1.359089	 1.272668	 0.021259
N	 0.742439	 -0.000109	 0.007333
H	 -0.596914	 0.000345	 -1.538146
H	 -2.362696	 1.309620	 -0.382686
H	 -0.825392	 2.151374	 -0.317674
H	 -1.415983	 1.292181	 1.099973
O	 1.584829	 -0.182753	 -0.805479
O	 0.935762	 0.182531	 1.162997

	symmetry c1
}
set optking {
	frozen_dihedral = ("
		12 7 3 8
	")
}

ee,wfn = optimize('scf', return_wfn=True)
oeprop( wfn, 'DIPOLE', 'QUADRUPOLE', 'MULLIKEN_CHARGES')
f=open( 'psi4out.xyz', 'w' )
f.write( "13  " )
f.write( str(ee) + "\n" )
f.write( MOL.save_string_xyz() )
f.close()
--------------------------------------------------------------------------

    Molecular point group: c1
  Charge       = 0
  Multiplicity = 1
  Basis Set: CC-PVTZ
  Basis Set:
  @DF-RHF Final Energy:  -321.86450615882677
    Total Energy =                       -321.8645061588268845
    Molecular point group: c1
  Basis Set: CC-PVTZ
  Basis Set:
  Basis Set: CC-PVTZ
  Basis Set:
  @DF-RHF Final Energy:  -321.85741658608862
    Total Energy =                       -321.8574165860883340
  Basis Set: CC-PVTZ
  Basis Set:
  Basis Set: CC-PVTZ
  Basis Set:
  @DF-RHF Final Energy:  -321.86415903698037
    Total Energy =                       -321.8641590369805385
  Basis Set: CC-PVTZ
  Basis Set:
  Basis Set: CC-PVTZ
  Basis Set:
  @DF-RHF Final Energy:  -321.86451963808815
    Total Energy =                       -321.8645196380880975
  Basis Set: CC-PVTZ
  Basis Set:
  Basis Set: CC-PVTZ
  Basis Set:
  @DF-RHF Final Energy:  -321.86448588692423
    Total Energy =                       -321.8644858869241716
  Basis Set: CC-PVTZ
  Basis Set:
  Basis Set: CC-PVTZ
  Basis Set:
  @DF-RHF Final Energy:  -321.86458468642201
    Total Energy =                       -321.8645846864218356
  Basis Set: CC-PVTZ
  Basis Set:
  Charge       = 0
  Multiplicity = 1
  Basis Set: CC-PVTZ
  Basis Set:

    Orbital Energies (a.u.)
    -----------------------

    Doubly Occupied:

       1A    -20.590324     2A    -20.587849     3A    -15.832588
       4A    -11.304166     5A    -11.244420     6A    -11.241856
       7A     -1.633903     8A     -1.418216     9A     -1.142619
      10A     -0.974249    11A     -0.957236    12A     -0.816645
      13A     -0.751681    14A     -0.732971    15A     -0.726596
      16A     -0.650528    17A     -0.595203    18A     -0.588614
      19A     -0.570898    20A     -0.529866    21A     -0.522785
      22A     -0.485654    23A     -0.469660    24A     -0.452306

  @DF-RHF Final Energy:  -321.86458500209164

   => Energetics <=

    Nuclear Repulsion Energy =            257.3368979205223468
    One-Electron Energy =                -948.7613035880556254
    Two-Electron Energy =                 369.5598206654418050
    DFT Exchange-Correlation Energy =       0.0000000000000000
    Empirical Dispersion Energy =           0.0000000000000000
    PCM Polarization Energy =               0.0000000000000000
    EFP Energy =                            0.0000000000000000
    Total Energy =                       -321.8645850020914736
    Molecular point group: c1
  Basis Set: CC-PVTZ
  Basis Set:

  -Total Gradient:
     Atom            X                  Y                   Z
    ------   -----------------  -----------------  -----------------
       1       -0.000003245138    -0.000007166379     0.000000167264
       2        0.000002037081     0.000027653903    -0.000023399555
       3        0.000007197015    -0.000488651285     0.000076432420
       4       -0.000000417345    -0.000007930631     0.000002991568
       5        0.000002270325     0.000006275012    -0.000006959968
       6       -0.000028759072     0.000052028423     0.000017574269
       7        0.000152225353     0.000403166527    -0.000078018165
       8        0.000024078644     0.000273195825     0.000004082660
       9        0.000002816317     0.000001918939    -0.000000925976
      10        0.000002575649    -0.000004772513    -0.000002502517
      11       -0.000000797446    -0.000002031278    -0.000006714856
      12       -0.000086004969    -0.000257944777     0.000020905245
      13       -0.000073976410     0.000004258235    -0.000003632386

  **** Optimization is complete! (in 7 steps) ****
    Final optimized geometry and variables:
    Molecular point group: c1

    Geometry (in Angstrom), charge = 0, multiplicity = 1:

    H           -2.352634524745    -1.319426424934    -0.355615422413
    C           -1.345008063832    -1.270523375071     0.036412041544
    C           -0.685333624109     0.006608119572    -0.462675236228
    H           -0.805916954357    -2.145384429314    -0.303239129555
    H           -1.391053896083    -1.282808086356     1.116350832736
    C           -1.373684389884     1.274471565724     0.012518856007
    N            0.742823243346     0.004687532173     0.005164777703
    H           -0.600941820295    -0.005051710024    -1.536158903744
    H           -2.374555447188     1.298890143325    -0.399593786454
    H           -0.846456345228     2.156601348574    -0.327526209214
    H           -1.438401299314     1.301804111496     1.090146589916
    O            1.580091793513    -0.190827338138    -0.810108001478
    O            0.941536398024     0.178512378635     1.161084879870

  Mulliken Charges: (a.u.)
   Center  Symbol    Alpha    Beta     Spin     Total
       1     H     0.44870  0.44870  0.00000  0.10260
       2     C     3.14366  3.14366  0.00000 -0.28733
       3     C     3.00766  3.00766  0.00000 -0.01532
       4     H     0.43977  0.43977  0.00000  0.12047
       5     H     0.43983  0.43983  0.00000  0.12033
       6     C     3.14472  3.14472  0.00000 -0.28943
       7     N     3.27524  3.27524  0.00000  0.44952
       8     H     0.42480  0.42480  0.00000  0.15041
       9     H     0.44953  0.44953  0.00000  0.10094
      10     H     0.44128  0.44128  0.00000  0.11743
      11     H     0.43813  0.43813  0.00000  0.12374
      12     O     4.16912  4.16912  0.00000 -0.33825
      13     O     4.17755  4.17755  0.00000 -0.35510

   Total alpha = 24.00000, Total beta = 24.00000, Total charge =  0.00000

*** Psi4 exiting successfully. Buy a developer a beer!
