  ==> Input File <==

--------------------------------------------------------------------------
set {
	reference rhf
	basis 6-31G*
}

set_num_threads( 1 )
memory 2 gb

molecule MOL {
0 1

O	 0.967018	 1.393844	 -0.652172
C	 -0.114198	 1.300104	 -0.167965
C	 -1.062328	 2.447149	 0.054935
O	 -0.632575	 0.154573	 0.251549
H	 -1.296113	 2.529294	 1.110181
H	 -0.611954	 3.363352	 -0.296592
H	 -1.990529	 2.262876	 -0.473500
C	 0.160891	 -1.019931	 0.106212
C	 1.589627	 -0.672828	 0.480843
H	 0.089836	 -1.367806	 -0.916050
H	 -0.238459	 -1.792301	 0.749618
C	 2.246377	 0.346236	 -0.452210
H	 2.163194	 -1.597435	 0.473358
H	 1.604769	 -0.303424	 1.502885
C	 3.691736	 0.652107	 -0.061850
H	 2.219579	 -0.032311	 -1.472055
H	 1.666466	 1.263317	 -0.447249
H	 4.134505	 1.377213	 -0.737283
H	 4.305508	 -0.243868	 -0.089969
H	 3.748266	 1.059562	 0.943567

	symmetry c1
}
set optking {
	frozen_dihedral = ("
		16 12 9 8,
		12 9 8 10,
		1 2 4 8
	")
}

ee = energy('scf')
oeprop('DIPOLE', 'QUADRUPOLE', 'MULLIKEN_CHARGES')
f=open( 'psi4out.xyz', 'w' )
f.write( "20  " )
f.write( str(ee) + "\n" )
f.write( MOL.save_string_xyz() )
f.close()
--------------------------------------------------------------------------

    Molecular point group: c1

    Geometry (in Angstrom), charge = 0, multiplicity = 1:

       Center              X                  Y                   Z               Mass
    ------------   -----------------  -----------------  -----------------  -----------------
           O          0.110624839082     0.808315621823    -0.595844337966    15.994914619560
           C         -0.970591160918     0.714575621823    -0.111637337966    12.000000000000
           C         -1.918721160918     1.861620621823     0.111262662034    12.000000000000
           O         -1.488968160918    -0.430955378177     0.307876662034    15.994914619560
           H         -2.152506160918     1.943765621823     1.166508662034     1.007825032070
           H         -1.468347160918     2.777823621823    -0.240264337966     1.007825032070
           H         -2.846922160918     1.677347621823    -0.417172337966     1.007825032070
           C         -0.695502160918    -1.605459378177     0.162539662034    12.000000000000
           C          0.733233839082    -1.258356378177     0.537170662034    12.000000000000
           H         -0.766557160918    -1.953334378177    -0.859722337966     1.007825032070
           H         -1.094852160918    -2.377829378177     0.805945662034     1.007825032070
           C          1.389983839082    -0.239292378177    -0.395882337966    12.000000000000
           H          1.306800839082    -2.182963378177     0.529685662034     1.007825032070
           H          0.748375839082    -0.888952378177     1.559212662034     1.007825032070
           C          2.835342839082     0.066578621823    -0.005522337966    12.000000000000
           H          1.363185839082    -0.617839378177    -1.415727337966     1.007825032070
           H          0.810072839082     0.677788621823    -0.390921337966     1.007825032070
           H          3.278111839082     0.791684621823    -0.680955337966     1.007825032070
           H          3.449114839082    -0.829396378177    -0.033641337966     1.007825032070
           H          2.891872839082     0.474033621823     0.999894662034     1.007825032070

  Charge       = 0
  Multiplicity = 1
  Basis Set: 6-31G*
  Basis Set:

    Orbital Energies (a.u.)
    -----------------------

    Doubly Occupied:

       1A    -20.611794     2A    -20.590052     3A    -11.381158
       4A    -11.288021     5A    -11.241347     6A    -11.210611
       7A    -11.171259     8A    -11.138593     9A     -1.594891
      10A     -1.436726    11A     -1.138803    12A     -1.026926
      13A     -1.010294    14A     -0.944703    15A     -0.883379
      16A     -0.761929    17A     -0.741760    18A     -0.721780
      19A     -0.690848    20A     -0.633877    21A     -0.617126
      22A     -0.597673    23A     -0.573631    24A     -0.565670
      25A     -0.543675    26A     -0.531220    27A     -0.520268
      28A     -0.502511    29A     -0.476494    30A     -0.442034
      31A     -0.432544    32A     -0.167189

  @DF-RHF Final Energy:  -383.37930357285285

   => Energetics <=

    Nuclear Repulsion Energy =            425.1617528025727211
    One-Electron Energy =               -1364.7040613739536639
    Two-Electron Energy =                 556.1630049985277537
    DFT Exchange-Correlation Energy =       0.0000000000000000
    Empirical Dispersion Energy =           0.0000000000000000
    PCM Polarization Energy =               0.0000000000000000
    EFP Energy =                            0.0000000000000000
    Total Energy =                       -383.3793035728532459

  Mulliken Charges: (a.u.)
   Center  Symbol    Alpha    Beta     Spin     Total
       1     O     4.16137  4.16137  0.00000 -0.32275
       2     C     2.66728  2.66728  0.00000  0.66543
       3     C     3.27020  3.27020  0.00000 -0.54040
       4     O     4.30340  4.30340  0.00000 -0.60679
       5     H     0.40613  0.40613  0.00000  0.18774
       6     H     0.40225  0.40225  0.00000  0.19549
       7     H     0.39595  0.39595  0.00000  0.20810
       8     C     3.01023  3.01023  0.00000 -0.02046
       9     C     3.19080  3.19080  0.00000 -0.38160
      10     H     0.41297  0.41297  0.00000  0.17405
      11     H     0.40320  0.40320  0.00000  0.19359
      12     C     3.21105  3.21105  0.00000 -0.42210
      13     H     0.41748  0.41748  0.00000  0.16504
      14     H     0.41899  0.41899  0.00000  0.16201
      15     C     3.22143  3.22143  0.00000 -0.44287
      16     H     0.42992  0.42992  0.00000  0.14016
      17     H     0.36281  0.36281  0.00000  0.27438
      18     H     0.43145  0.43145  0.00000  0.13710
      19     H     0.44532  0.44532  0.00000  0.10936
      20     H     0.43774  0.43774  0.00000  0.12453

   Total alpha = 32.00000, Total beta = 32.00000, Total charge = -0.00000
