                              Psi4 1.0.54 Driver

  ==> Input File <==

--------------------------------------------------------------------------
set {
	reference rhf
	basis cc-pvtz
}

set_num_threads( 4 )
memory 2 gb

molecule MOL {
0 1

O	 1.762128	 1.192921	 -0.495463
C	 1.704209	 0.119472	 -0.000093
C	 0.501586	 -0.457135	 0.701949
O	 2.715427	 -0.733672	 0.000025
C	 -0.697272	 0.479868	 0.734961
H	 0.257347	 -1.390578	 0.205481
H	 0.815335	 -0.729493	 1.704358
C	 -1.895188	 -0.135162	 1.452424
H	 -0.971907	 0.744588	 -0.279816
H	 -0.413186	 1.406559	 1.220584
C	 -3.107615	 0.790355	 1.496140
H	 -2.173416	 -1.065385	 0.961990
H	 -1.612136	 -0.401271	 2.468448
C	 -4.305055	 0.175534	 2.212760
H	 -3.391789	 1.056019	 0.481831
H	 -2.831317	 1.719143	 1.987232
H	 -4.627261	 -0.738068	 1.724140
H	 -5.147244	 0.857653	 2.225610
H	 -4.062484	 -0.069339	 3.241561
C	 4.020999	 -0.192556	 0.000019
H	 4.182809	 0.412891	 -0.879449
H	 4.692590	 -1.035653	 0.000152
H	 4.182726	 0.413087	 0.879368

	symmetry c1
}
set optking {
	frozen_dihedral = ("
		1 2 4 20
	")
}

ee,wfn = optimize('scf', return_wfn=True)
oeprop( wfn, 'DIPOLE', 'QUADRUPOLE', 'MULLIKEN_CHARGES')
f=open( 'psi4out.xyz', 'w' )
f.write( "23  " )
f.write( str(ee) + "\n" )
f.write( MOL.save_string_xyz() )
f.close()
--------------------------------------------------------------------------

    Molecular point group: c1
  Charge       = 0
  Multiplicity = 1
  Basis Set: CC-PVTZ
  Basis Set:
  @DF-RHF Final Energy:  -423.12606088130326
    Total Energy =                       -423.1260608813034878
    Molecular point group: c1
  Basis Set: CC-PVTZ
  Basis Set:
  Basis Set: CC-PVTZ
  Basis Set:
  @DF-RHF Final Energy:  -422.92920337284170
    Total Energy =                       -422.9292033728415845
  Basis Set: CC-PVTZ
  Basis Set:
  Basis Set: CC-PVTZ
  Basis Set:
  @DF-RHF Final Energy:  -423.06234890358485
    Total Energy =                       -423.0623489035845068
  Basis Set: CC-PVTZ
  Basis Set:
  Basis Set: CC-PVTZ
  Basis Set:
  @DF-RHF Final Energy:  -423.12099552144491
    Total Energy =                       -423.1209955214444562
  Basis Set: CC-PVTZ
  Basis Set:
  @DF-RHF Final Energy:  -423.05643365677207
    Total Energy =                       -423.0564336567719010
  @DF-RHF Final Energy:  -423.12082655943908
    Total Energy =                       -423.1208265594395925
  @DF-RHF Final Energy:  -423.12595623312404
    Total Energy =                       -423.1259562331242705
  @DF-RHF Final Energy:  -423.12647090806826
    Total Energy =                       -423.1264709080689954
  @DF-RHF Final Energy:  -423.12655962087013
    Total Energy =                       -423.1265596208700117
  @DF-RHF Final Energy:  -423.12657427742425
    Total Energy =                       -423.1265742774241971
  @DF-RHF Final Energy:  -423.12657721627471
    Total Energy =                       -423.1265772162737449
  @DF-RHF Final Energy:  -423.11291616808631
    Total Energy =                       -423.1129161680867128
  @DF-RHF Final Energy:  -423.12493466158327
    Total Energy =                       -423.1249346615830973
  @DF-RHF Final Energy:  -423.12585412163469
    Total Energy =                       -423.1258541216344611
  @DF-RHF Final Energy:  -423.12648727123934
    Total Energy =                       -423.1264872712388296
  Basis Set: CC-PVTZ
  Basis Set:
  @DF-RHF Final Energy:  -423.12651700662025
    Total Energy =                       -423.1265170066200199
  Basis Set: CC-PVTZ
  Basis Set:
  Basis Set: CC-PVTZ
  Basis Set:
  @DF-RHF Final Energy:  -423.12657678175236
    Total Energy =                       -423.1265767817524193
  Basis Set: CC-PVTZ
  Basis Set:
  Basis Set: CC-PVTZ
  Basis Set:
  @DF-RHF Final Energy:  -423.12657796913840
    Total Energy =                       -423.1265779691379976
  Basis Set: CC-PVTZ
  Basis Set:
  Charge       = 0
  Multiplicity = 1
  Basis Set: CC-PVTZ
  Basis Set:

    Orbital Energies (a.u.)
    -----------------------

    Doubly Occupied:

       1A    -20.591911     2A    -20.536382     3A    -11.365348
       4A    -11.280419     5A    -11.234211     6A    -11.217456
       7A    -11.216102     8A    -11.214713     9A    -11.207932
      10A     -1.469126    11A     -1.366463    12A     -1.094665
      13A     -1.044375    14A     -0.986869    15A     -0.934055
      16A     -0.845314    17A     -0.795832    18A     -0.768451
      19A     -0.698598    20A     -0.684355    21A     -0.675501
      22A     -0.652404    23A     -0.610572    24A     -0.602423
      25A     -0.574902    26A     -0.565455    27A     -0.554179
      28A     -0.528425    29A     -0.518740    30A     -0.508382
      31A     -0.485101    32A     -0.470665    33A     -0.467518
      34A     -0.465168    35A     -0.457107    36A     -0.436682

  @DF-RHF Final Energy:  -423.12657810018356

   => Energetics <=

    Nuclear Repulsion Energy =            452.6281468149705915
    One-Electron Energy =               -1473.2578488597214346
    Two-Electron Energy =                 597.5031239445673918
    DFT Exchange-Correlation Energy =       0.0000000000000000
    Empirical Dispersion Energy =           0.0000000000000000
    PCM Polarization Energy =               0.0000000000000000
    EFP Energy =                            0.0000000000000000
    Total Energy =                       -423.1265781001834512
    Molecular point group: c1
  Basis Set: CC-PVTZ
  Basis Set:

  -Total Gradient:
     Atom            X                  Y                   Z
    ------   -----------------  -----------------  -----------------
       1       -0.004663235524     0.002160524720    -0.006779024570
       2        0.007756740044    -0.005311337147     0.012479598817
       3       -0.000026626194    -0.000005902768    -0.000043532655
       4       -0.004554419030     0.007578708814    -0.010385539524
       5        0.000005086019    -0.000011936686    -0.000022138389
       6       -0.000010841772    -0.000010274414    -0.000013868804
       7       -0.000017292848     0.000013238974    -0.000004545387
       8        0.000003410796    -0.000003898708     0.000025193090
       9       -0.000000368627    -0.000003898025     0.000002714120
      10        0.000000161264    -0.000004666954     0.000010458766
      11        0.000003762048    -0.000001374722     0.000005152199
      12        0.000003956721     0.000002424507     0.000001323747
      13        0.000003910591     0.000011676394     0.000001083234
      14       -0.000007202960     0.000012343822    -0.000016848838
      15       -0.000004159697    -0.000006457638     0.000008362032
      16        0.000003390583    -0.000008909764    -0.000001142284
      17       -0.000001210196    -0.000005859596    -0.000001881681
      18       -0.000006649634     0.000002494620    -0.000002330335
      19        0.000009169938     0.000008992838    -0.000001951095
      20        0.001472898076    -0.004438279542     0.004729623846
      21       -0.000002934310     0.000030017212    -0.000016803063
      22        0.000017950893    -0.000006395522    -0.000017673592
      23        0.000014503832    -0.000001230415     0.000043770370

  **** Optimization is complete! (in 19 steps) ****
    Final optimized geometry and variables:
    Molecular point group: c1

    Geometry (in Angstrom), charge = 0, multiplicity = 1:

    O            1.501540358954     1.671555119728    -0.332208801402
    C            1.483848349429     0.539632076706    -0.672845057938
    C            0.403083581054    -0.455306181486    -0.339894951286
    O            2.401693436106     0.009371707954    -1.474719615744
    C           -0.786043635653     0.147213498426     0.394069975309
    H            0.100246765986    -0.925700112232    -1.269049615571
    H            0.868940842852    -1.240433575854     0.248734378319
    C           -1.854113083927    -0.891846652158     0.722060619458
    H           -1.215782907146     0.937431071494    -0.211693331615
    H           -0.440553993005     0.621440287029     1.305372346138
    C           -3.056195329446    -0.304710496818     1.455966913129
    H           -2.193033557064    -1.366289917787    -0.196183971105
    H           -1.416811439529    -1.682320388647     1.328074640933
    C           -4.124345530729    -1.342895401362     1.782382611918
    H           -3.493712650545     0.484904339616     0.851640662273
    H           -2.719132571706     0.167178064029     2.374579386415
    H           -4.506176314190    -1.809097460960     0.880108823234
    H           -4.962703509584    -0.893326329535     2.301801521180
    H           -3.726131401515    -2.128725968488     2.415747601160
    C            3.704660128003     0.554435888922    -1.419776553201
    H            3.714178382154     1.575529070618    -1.769943803722
    H            4.315526198089    -0.061942284743    -2.059184088462
    H            4.083228247654     0.522178059680    -0.407230127560

  Mulliken Charges: (a.u.)
   Center  Symbol    Alpha    Beta     Spin     Total
       1     O     4.19128  4.19128  0.00000 -0.38255
       2     C     2.80463  2.80463  0.00000  0.39074
       3     C     3.10242  3.10242  0.00000 -0.20484
       4     O     4.15135  4.15135  0.00000 -0.30270
       5     C     3.08460  3.08460  0.00000 -0.16920
       6     H     0.43791  0.43791  0.00000  0.12419
       7     H     0.44356  0.44356  0.00000  0.11288
       8     C     3.08892  3.08892  0.00000 -0.17785
       9     H     0.44692  0.44692  0.00000  0.10616
      10     H     0.44534  0.44534  0.00000  0.10933
      11     C     3.08401  3.08401  0.00000 -0.16803
      12     H     0.45553  0.45553  0.00000  0.08894
      13     H     0.45596  0.45596  0.00000  0.08808
      14     C     3.15038  3.15038  0.00000 -0.30076
      15     H     0.45321  0.45321  0.00000  0.09358
      16     H     0.45325  0.45325  0.00000  0.09350
      17     H     0.45525  0.45525  0.00000  0.08949
      18     H     0.44770  0.44770  0.00000  0.10460
      19     H     0.45539  0.45539  0.00000  0.08922
      20     C     3.03746  3.03746  0.00000 -0.07491
      21     H     0.44867  0.44867  0.00000  0.10266
      22     H     0.44527  0.44527  0.00000  0.10947
      23     H     0.46100  0.46100  0.00000  0.07801

   Total alpha = 36.00000, Total beta = 36.00000, Total charge = -0.00000

*** Psi4 exiting successfully. Buy a developer a beer!
