  ==> Input File <==

--------------------------------------------------------------------------
set {
	reference rhf
	basis cc-pvtz
}

set_num_threads( 4 )
memory 2 gb

molecule MOL {
0 1

H	 -3.941973	 0.934228	 -0.390224
C	 -3.240162	 0.342701	 0.161016
C	 -2.105997	 -0.000418	 -0.398703
H	 -3.485368	 0.047206	 1.162193
O	 -1.189946	 -0.765863	 0.237511
H	 -1.846458	 0.297311	 -1.398265
C	 0.026572	 -0.995256	 -0.379403
C	 1.057223	 0.049888	 -0.004615
H	 -0.054361	 -1.010670	 -1.459674
H	 0.397526	 -1.952058	 -0.044198
F	 0.445115	 1.156482	 0.366671
F	 1.813624	 -0.343663	 0.997624
F	 1.847793	 0.344508	 -1.007937

	symmetry c1
}
set optking {
	frozen_dihedral = ("
		11 8 7 9
	")
}

ee = optimize('scf')
oeprop('DIPOLE', 'QUADRUPOLE', 'MULLIKEN_CHARGES')
f=open( 'psi4out.xyz', 'w' )
f.write( "13  " )
f.write( str(ee) + "\n" )
f.write( MOL.save_string_xyz() )
f.close()
--------------------------------------------------------------------------

    Molecular point group: c1
  Charge       = 0
  Multiplicity = 1
  Basis Set: CC-PVTZ
  Basis Set:
  @DF-RHF Final Energy:  -527.73640009794531
    Total Energy =                       -527.7364000979457614
    Molecular point group: c1
  Basis Set: CC-PVTZ
  Basis Set:
  Basis Set: CC-PVTZ
  Basis Set:
  @DF-RHF Final Energy:  -527.73732430216012
    Total Energy =                       -527.7373243021597773
  Basis Set: CC-PVTZ
  Basis Set:
  Basis Set: CC-PVTZ
  Basis Set:
  @DF-RHF Final Energy:  -527.73750997379898
    Total Energy =                       -527.7375099737992059
  Basis Set: CC-PVTZ
  Basis Set:
  Basis Set: CC-PVTZ
  Basis Set:
  @DF-RHF Final Energy:  -527.73753332099932
    Total Energy =                       -527.7375333209988639
  Basis Set: CC-PVTZ
  Basis Set:
  @DF-RHF Final Energy:  -527.73753852304242
    Total Energy =                       -527.7375385230426446
  @DF-RHF Final Energy:  -527.73754138647951
    Total Energy =                       -527.7375413864792790
  Basis Set: CC-PVTZ
  Basis Set:
  @DF-RHF Final Energy:  -527.73754251320520
    Total Energy =                       -527.7375425132053124
  Basis Set: CC-PVTZ
  Basis Set:
  Basis Set: CC-PVTZ
  Basis Set:
  @DF-RHF Final Energy:  -527.73752356732007
    Total Energy =                       -527.7375235673200677
  Basis Set: CC-PVTZ
  Basis Set:
  Basis Set: CC-PVTZ
  Basis Set:
  @DF-RHF Final Energy:  -527.73754259637099
    Total Energy =                       -527.7375425963707585
  Basis Set: CC-PVTZ
  Basis Set:
  Charge       = 0
  Multiplicity = 1
  Basis Set: CC-PVTZ
  Basis Set:

    Orbital Energies (a.u.)
    -----------------------

    Doubly Occupied:

       1A    -26.342221     2A    -26.340606     3A    -26.336399
       4A    -20.604164     5A    -11.499175     6A    -11.319698
       7A    -11.298722     8A    -11.214238     9A     -1.750667
      10A     -1.648229    11A     -1.643273    12A     -1.445001
      13A     -1.085732    14A     -1.019670    15A     -0.932597
      16A     -0.844130    17A     -0.838496    18A     -0.828061
      19A     -0.796016    20A     -0.732692    21A     -0.721586
      22A     -0.703337    23A     -0.679845    24A     -0.669239
      25A     -0.661126    26A     -0.650016    27A     -0.635786
      28A     -0.587400    29A     -0.565108    30A     -0.529872
      31A     -0.516524    32A     -0.357057

  @DF-RHF Final Energy:  -527.73754301754798

   => Energetics <=

    Nuclear Repulsion Energy =            412.7159544435638168
    One-Electron Energy =               -1549.3136365272264356
    Two-Electron Energy =                 608.8601390661145842
    DFT Exchange-Correlation Energy =       0.0000000000000000
    Empirical Dispersion Energy =           0.0000000000000000
    PCM Polarization Energy =               0.0000000000000000
    EFP Energy =                            0.0000000000000000
    Total Energy =                       -527.7375430175480915
    Molecular point group: c1
  Basis Set: CC-PVTZ
  Basis Set:

  -Total Gradient:
     Atom            X                  Y                   Z
    ------   -----------------  -----------------  -----------------
       1       -0.000000983120     0.000000169545     0.000000549446
       2       -0.000009649789     0.000011738193    -0.000002191275
       3       -0.000015729694    -0.000031647809     0.000012918771
       4        0.000002037328     0.000000550757     0.000000214892
       5       -0.000010000326     0.000015038639    -0.000003980617
       6       -0.000000968131     0.000000808199    -0.000002385844
       7       -0.004180150729     0.003770459385     0.001264184128
       8        0.000943950792     0.000726724493    -0.005104335687
       9        0.003400666465    -0.003395737458    -0.000020226488
      10       -0.000000368771    -0.000006984948    -0.000007670615
      11       -0.000099450300    -0.001102668064     0.003854705296
      12        0.000018557585    -0.000003062006    -0.000016884782
      13       -0.000047911303     0.000014611075     0.000025102775

  **** Optimization is complete! (in 10 steps) ****
    Final optimized geometry and variables:
    Molecular point group: c1

    Geometry (in Angstrom), charge = 0, multiplicity = 1:

    H           -3.958611785796     0.928262679583    -0.375527006127
    C           -3.277328038226     0.297451205198     0.157608434819
    C           -2.105179905015     0.028567972281    -0.362873736777
    H           -3.572711855643    -0.095201680056     1.110735439026
    O           -1.206598693572    -0.770791579896     0.256157189246
    H           -1.796810153971     0.422865505345    -1.314217790027
    C            0.006491552976    -0.995492039361    -0.362626074234
    C            1.064312921592     0.056166262216    -0.019141392469
    H           -0.068549411281    -1.062867368280    -1.440791581413
    H            0.381257751921    -1.942814660038    -0.006146073129
    F            0.535706907425     1.211339936924     0.304038891022
    F            1.807104583549    -0.327187178068     0.999030914549
    F            1.874693275674     0.244988036268    -1.040469790931

  Mulliken Charges: (a.u.)
   Center  Symbol    Alpha    Beta     Spin     Total
       1     H     0.42535  0.42535  0.00000  0.14929
       2     C     3.19659  3.19659  0.00000 -0.39317
       3     C     2.95598  2.95598  0.00000  0.08803
       4     H     0.42503  0.42503  0.00000  0.14994
       5     O     4.14083  4.14083  0.00000 -0.28167
       6     H     0.43490  0.43490  0.00000  0.13020
       7     C     3.03220  3.03220  0.00000 -0.06440
       8     C     2.67151  2.67151  0.00000  0.65699
       9     H     0.45506  0.45506  0.00000  0.08989
      10     H     0.43642  0.43642  0.00000  0.12715
      11     F     4.60449  4.60449  0.00000 -0.20898
      12     F     4.61013  4.61013  0.00000 -0.22027
      13     F     4.61150  4.61150  0.00000 -0.22300

   Total alpha = 32.00000, Total beta = 32.00000, Total charge = -0.00000
