  ==> Input File <==

--------------------------------------------------------------------------
set {
	reference rhf
	basis 6-31G*
}

set_num_threads( 4 )
memory 2 gb

molecule MOL {
0 1

H	 2.591676	 2.013956	 0.335017
O	 3.341076	 1.666752	 -0.126416
C	 3.569581	 0.339145	 0.272707
C	 2.539767	 -0.640285	 -0.279495
H	 4.553106	 0.084646	 -0.100901
H	 3.608576	 0.269204	 1.359154
C	 1.140299	 -0.043329	 -0.446821
H	 2.895362	 -1.010932	 -1.237378
H	 2.490267	 -1.495139	 0.392920
C	 0.117828	 -1.065541	 -0.951254
H	 1.189151	 0.792802	 -1.138822
H	 0.801763	 0.359093	 0.508056
C	 -1.319160	 -0.541510	 -1.055165
H	 0.435396	 -1.440068	 -1.922711
H	 0.124300	 -1.921701	 -0.279950
C	 -1.534135	 0.544678	 -2.112739
H	 -1.973334	 -1.380733	 -1.282268
H	 -1.636093	 -0.166425	 -0.083207
C	 -3.000441	 0.959499	 -2.251689
H	 -1.170565	 0.186100	 -3.074689
H	 -0.941852	 1.424131	 -1.871773
C	 -3.216944	 2.048183	 -3.302192
H	 -3.598448	 0.087510	 -2.507639
H	 -3.368255	 1.308956	 -1.289152
H	 -2.888761	 1.716980	 -4.283428
H	 -4.265542	 2.318870	 -3.378397
H	 -2.660538	 2.948073	 -3.055262

	symmetry c1
}
set optking {
	frozen_dihedral = ("
		8 4 3 2
	")
}

ee = optimize('scf')
oeprop('DIPOLE', 'QUADRUPOLE', 'MULLIKEN_CHARGES')
f=open( 'psi4out.xyz', 'w' )
f.write( "27  " )
f.write( str(ee) + "\n" )
f.write( MOL.save_string_xyz() )
f.close()
--------------------------------------------------------------------------

    Molecular point group: c1
  Charge       = 0
  Multiplicity = 1
  Basis Set: 6-31G*
  Basis Set:
  @DF-RHF Final Energy:  -388.27741490395192
    Total Energy =                       -388.2774149039529448
    Molecular point group: c1
  Basis Set: 6-31G*
  Basis Set:
  Basis Set: 6-31G*
  Basis Set:
  @DF-RHF Final Energy:  -388.27788329643829
    Total Energy =                       -388.2778832964381763
  Basis Set: 6-31G*
  Basis Set:
  Basis Set: 6-31G*
  Basis Set:
  @DF-RHF Final Energy:  -388.27809209516226
    Total Energy =                       -388.2780920951624921
  Basis Set: 6-31G*
  Basis Set:
  Basis Set: 6-31G*
  Basis Set:
  @DF-RHF Final Energy:  -388.27808450480660
    Total Energy =                       -388.2780845048066567
  Basis Set: 6-31G*
  Basis Set:
  Basis Set: 6-31G*
  Basis Set:
  @DF-RHF Final Energy:  -388.27810015627927
    Total Energy =                       -388.2781001562799474
  Basis Set: 6-31G*
  Basis Set:
  Basis Set: 6-31G*
  Basis Set:
  @DF-RHF Final Energy:  -388.27809834621013
    Total Energy =                       -388.2780983462107542
  Basis Set: 6-31G*
  Basis Set:
  Basis Set: 6-31G*
  Basis Set:
  @DF-RHF Final Energy:  -388.27810115244699
    Total Energy =                       -388.2781011524475616
  Basis Set: 6-31G*
  Basis Set:
  Charge       = 0
  Multiplicity = 1
  Basis Set: 6-31G*
  Basis Set:

    Orbital Energies (a.u.)
    -----------------------

    Doubly Occupied:

       1A    -20.551970     2A    -11.267719     3A    -11.218883
       4A    -11.216745     5A    -11.216072     6A    -11.215265
       7A    -11.215085     8A    -11.213189     9A    -11.208428
      10A     -1.359069    11A     -1.094239    12A     -1.059978
      13A     -1.009884    14A     -0.948162    15A     -0.888786
      16A     -0.819652    17A     -0.800055    18A     -0.777137
      19A     -0.692868    20A     -0.648808    21A     -0.636264
      22A     -0.616152    23A     -0.601637    24A     -0.585068
      25A     -0.576852    26A     -0.554301    27A     -0.542845
      28A     -0.528312    29A     -0.504639    30A     -0.493057
      31A     -0.483262    32A     -0.473175    33A     -0.468598
      34A     -0.460435    35A     -0.447071    36A     -0.442535
      37A     -0.422684

  @DF-RHF Final Energy:  -388.27810163503290

   => Energetics <=

    Nuclear Repulsion Energy =            460.7485467336288707
    One-Electron Energy =               -1439.5355388115981441
    Two-Electron Energy =                 590.5088904429364902
    DFT Exchange-Correlation Energy =       0.0000000000000000
    Empirical Dispersion Energy =           0.0000000000000000
    PCM Polarization Energy =               0.0000000000000000
    EFP Energy =                            0.0000000000000000
    Total Energy =                       -388.2781016350327263
    Molecular point group: c1
  Basis Set: 6-31G*
  Basis Set:

  -Total Gradient:
     Atom            X                  Y                   Z
    ------   -----------------  -----------------  -----------------
       1       -0.000000058695     0.000000308708    -0.000000831121
       2       -0.002788897398     0.000729277982     0.003699961803
       3        0.004457708575    -0.002072648405    -0.004417649182
       4       -0.004196279234     0.005858155706    -0.002066303051
       5        0.000000031210    -0.000013577418     0.000008301145
       6       -0.000001853610    -0.000003130328    -0.000003604054
       7       -0.000018835296     0.000017330987     0.000005861698
       8        0.002533915889    -0.004512943619     0.002771489977
       9        0.000003935104     0.000011863944    -0.000008047886
      10        0.000005479900    -0.000010883864    -0.000002966191
      11       -0.000001852092    -0.000005047009     0.000006085142
      12        0.000003258397     0.000005381420     0.000004847776
      13        0.000004976246     0.000002150355    -0.000005173029
      14        0.000004358268    -0.000006627537    -0.000000272379
      15       -0.000011600258    -0.000002580543    -0.000000063264
      16        0.000000320475     0.000003737565     0.000005221734
      17        0.000000174683    -0.000001009935     0.000001543807
      18        0.000003597376     0.000002261813    -0.000001433695
      19        0.000000043060    -0.000000187075    -0.000000068930
      20        0.000003667255     0.000002391432     0.000000753154
      21       -0.000000356184    -0.000000823574     0.000005022219
      22       -0.000001294329    -0.000004539654    -0.000003857946
      23       -0.000001737368    -0.000000731336     0.000002725813
      24        0.000001441348     0.000002432606    -0.000000657780
      25        0.000000726523     0.000001199403    -0.000000992946
      26       -0.000000378428    -0.000000908965    -0.000001135956
      27       -0.000000491414    -0.000000852661     0.000001243140

  **** Optimization is complete! (in 8 steps) ****
    Final optimized geometry and variables:
    Molecular point group: c1

    Geometry (in Angstrom), charge = 0, multiplicity = 1:

    H            2.416309326308     1.625657204487     1.445718151350
    O            3.192692250286     1.273527093812     1.035855256988
    C            3.351923282362    -0.069881069775     1.415295071957
    C            2.307230333640    -1.024677807410     0.817137554182
    H            4.345588189420    -0.356942840628     1.099561253153
    H            3.327476458689    -0.142848127766     2.501489518782
    C            0.905125677388    -0.433782812001     0.671783173078
    H            2.660628675592    -1.411677106519    -0.135361981762
    H            2.258079415948    -1.896161206348     1.468850014888
    C           -0.113599500816    -1.460566980307     0.169417929208
    H            0.946167432306     0.411716739272    -0.005580503939
    H            0.569616889738    -0.049378196579     1.636485731020
    C           -1.552347781647    -0.940516427225     0.068932924652
    H            0.203021743000    -1.831429626071    -0.803853479374
    H           -0.103241468186    -2.318487377375     0.838314464989
    C           -1.773595712770     0.140551561945    -0.992543793471
    H           -2.205482147393    -1.782207874071    -0.151987565421
    H           -1.866625651393    -0.562169916954     1.040585698935
    C           -3.240654897435     0.555033108936    -1.124403645682
    H           -1.416304572248    -0.223403041448    -1.954808125865
    H           -1.179140961986     1.020712205685    -0.760371426773
    C           -3.463818026629     1.635690259019    -2.181776795350
    H           -3.841043377250    -0.318531279940    -1.369357939797
    H           -3.601619964774     0.912266762995    -0.162082116985
    H           -3.142984518272     1.296468373188    -3.162688061282
    H           -4.512740522775     1.906674096005    -2.252552502845
    H           -2.904737101041     2.536842304561    -1.945965505726

  Mulliken Charges: (a.u.)
   Center  Symbol    Alpha    Beta     Spin     Total
       1     H     0.27955  0.27955  0.00000  0.44090
       2     O     4.37004  4.37004  0.00000 -0.74009
       3     C     2.99607  2.99607  0.00000  0.00787
       4     C     3.16683  3.16683  0.00000 -0.33367
       5     H     0.41391  0.41391  0.00000  0.17218
       6     H     0.43137  0.43137  0.00000  0.13726
       7     C     3.16546  3.16546  0.00000 -0.33093
       8     H     0.41719  0.41719  0.00000  0.16562
       9     H     0.42383  0.42383  0.00000  0.15234
      10     C     3.15264  3.15264  0.00000 -0.30527
      11     H     0.41047  0.41047  0.00000  0.17906
      12     H     0.43048  0.43048  0.00000  0.13904
      13     C     3.15351  3.15351  0.00000 -0.30702
      14     H     0.42186  0.42186  0.00000  0.15629
      15     H     0.42192  0.42192  0.00000  0.15617
      16     C     3.15259  3.15259  0.00000 -0.30518
      17     H     0.42139  0.42139  0.00000  0.15721
      18     H     0.42479  0.42479  0.00000  0.15042
      19     C     3.15122  3.15122  0.00000 -0.30243
      20     H     0.42367  0.42367  0.00000  0.15266
      21     H     0.42261  0.42261  0.00000  0.15478
      22     C     3.23916  3.23916  0.00000 -0.47833
      23     H     0.42311  0.42311  0.00000  0.15378
      24     H     0.42356  0.42356  0.00000  0.15288
      25     H     0.42149  0.42149  0.00000  0.15703
      26     H     0.41946  0.41946  0.00000  0.16108
      27     H     0.42182  0.42182  0.00000  0.15636

   Total alpha = 37.00000, Total beta = 37.00000, Total charge = -0.00000
