  ==> Input File <==

--------------------------------------------------------------------------
set {
	reference rhf
	basis 6-31G*
}

set_num_threads( 4 )
memory 2 gb

molecule MOL {
0 1

O	 -2.052363	 -2.015538	 0.649843
C	 -1.421264	 -1.843794	 -0.348482
C	 -0.889235	 -0.467034	 -0.705952
C	 -1.092736	 -2.984117	 -1.286089
C	 0.379448	 -0.143569	 0.099626
H	 -1.662292	 0.255915	 -0.469244
H	 -0.680017	 -0.402496	 -1.769948
C	 1.631333	 -0.777471	 -0.511575
H	 0.482768	 0.934507	 0.149241
H	 0.263088	 -0.495696	 1.123449
C	 2.915987	 -0.544314	 0.291766
H	 1.766672	 -0.399098	 -1.523130
H	 1.471257	 -1.849544	 -0.605828
C	 3.373361	 0.914346	 0.347591
H	 3.708709	 -1.142521	 -0.150311
H	 2.780642	 -0.921148	 1.303579
H	 3.506512	 1.320010	 -0.651625
H	 4.322697	 0.999599	 0.867103
H	 2.660624	 1.545032	 0.868198
H	 -1.599339	 -2.833639	 -2.235812
H	 -1.411570	 -3.922391	 -0.853918
H	 -0.027017	 -3.016467	 -1.493454

	symmetry c1
}
set optking {
	frozen_dihedral = ("
		6 3 5 8
	")
}

ee = optimize('scf')
oeprop('DIPOLE', 'QUADRUPOLE', 'MULLIKEN_CHARGES')
f=open( 'psi4out.xyz', 'w' )
f.write( "22  " )
f.write( str(ee) + "\n" )
f.write( MOL.save_string_xyz() )
f.close()
--------------------------------------------------------------------------

    Molecular point group: c1
  Charge       = 0
  Multiplicity = 1
  Basis Set: 6-31G*
  Basis Set:
  @DF-RHF Final Energy:  -348.09421840310290
    Total Energy =                       -348.0942184031027864
    Molecular point group: c1
  Basis Set: 6-31G*
  Basis Set:
  Basis Set: 6-31G*
  Basis Set:
  @DF-RHF Final Energy:  -348.09542939682700
    Total Energy =                       -348.0954293968271713
  Basis Set: 6-31G*
  Basis Set:
  Basis Set: 6-31G*
  Basis Set:
  @DF-RHF Final Energy:  -348.09473402191145
    Total Energy =                       -348.0947340219111084
  Basis Set: 6-31G*
  Basis Set:
  Basis Set: 6-31G*
  Basis Set:
  @DF-RHF Final Energy:  -348.09633112073556
    Total Energy =                       -348.0963311207358402
  Basis Set: 6-31G*
  Basis Set:
  @DF-RHF Final Energy:  -348.09683440574088
    Total Energy =                       -348.0968344057405375
  @DF-RHF Final Energy:  -348.09771871700775
    Total Energy =                       -348.0977187170075240
  @DF-RHF Final Energy:  -348.09867614954157
    Total Energy =                       -348.0986761495413475
  @DF-RHF Final Energy:  -348.09925467573049
    Total Energy =                       -348.0992546757300374
  @DF-RHF Final Energy:  -348.09942416033624
    Total Energy =                       -348.0994241603358432
  @DF-RHF Final Energy:  -348.09947108634628
    Total Energy =                       -348.0994710863461137
  Basis Set: 6-31G*
  Basis Set:
  @DF-RHF Final Energy:  -348.09951876871031
    Total Energy =                       -348.0995187687103680
  Basis Set: 6-31G*
  Basis Set:
  Basis Set: 6-31G*
  Basis Set:
  @DF-RHF Final Energy:  -348.09952268568344
    Total Energy =                       -348.0995226856833824
  Basis Set: 6-31G*
  Basis Set:
  Basis Set: 6-31G*
  Basis Set:
  @DF-RHF Final Energy:  -348.09952409161400
    Total Energy =                       -348.0995240916134890
  Basis Set: 6-31G*
  Basis Set:
  Charge       = 0
  Multiplicity = 1
  Basis Set: 6-31G*
  Basis Set:

    Orbital Energies (a.u.)
    -----------------------

    Doubly Occupied:

       1A    -20.551283     2A    -11.327410     3A    -11.232229
       4A    -11.228956     5A    -11.216533     6A    -11.212581
       7A    -11.211653     8A    -11.206769     9A     -1.396671
      10A     -1.087964    11A     -1.041690    12A     -1.000280
      13A     -0.932726    14A     -0.854472    15A     -0.780643
      16A     -0.728905    17A     -0.666071    18A     -0.632214
      19A     -0.628587    20A     -0.611135    21A     -0.601525
      22A     -0.579198    23A     -0.562697    24A     -0.547205
      25A     -0.522044    26A     -0.514100    27A     -0.496733
      28A     -0.488117    29A     -0.461507    30A     -0.458376
      31A     -0.447520    32A     -0.401412

  @DF-RHF Final Energy:  -348.09952500183903

   => Energetics <=

    Nuclear Repulsion Energy =            377.9297302000391596
    One-Electron Energy =               -1220.8000936161915888
    Two-Electron Energy =                 494.7708384143133458
    DFT Exchange-Correlation Energy =       0.0000000000000000
    Empirical Dispersion Energy =           0.0000000000000000
    PCM Polarization Energy =               0.0000000000000000
    EFP Energy =                            0.0000000000000000
    Total Energy =                       -348.0995250018391403
    Molecular point group: c1
  Basis Set: 6-31G*
  Basis Set:

  -Total Gradient:
     Atom            X                  Y                   Z
    ------   -----------------  -----------------  -----------------
       1        0.000010270415    -0.000042417274     0.000023778082
       2        0.000022344455     0.000022704871     0.000058772012
       3       -0.000745064620    -0.000728397771     0.001466982867
       4       -0.000020550450     0.000037890253    -0.000015095973
       5       -0.000100338698    -0.001125700187     0.000859364080
       6        0.000651348517     0.000901390275    -0.001444131415
       7        0.000000570923     0.000019377820    -0.000021958849
       8        0.000185771029     0.000918091672    -0.000888182877
       9       -0.000013714260    -0.000017045351    -0.000016421282
      10        0.000009904519    -0.000008460149    -0.000009082242
      11       -0.000014486545    -0.000000659386     0.000005453677
      12       -0.000009986604     0.000005811349    -0.000004583027
      13       -0.000003353408     0.000030551569     0.000005243265
      14        0.000012376453    -0.000000218294     0.000009601887
      15       -0.000008152126    -0.000000214992    -0.000001600225
      16        0.000002088700     0.000000224227     0.000001362579
      17       -0.000005266026    -0.000000047022    -0.000002167459
      18        0.000003312354     0.000009910892    -0.000004803116
      19        0.000001594080     0.000000089304     0.000003381174
      20        0.000029722957    -0.000013318085    -0.000024848932
      21        0.000003091423     0.000010232196     0.000001766553
      22       -0.000011483082    -0.000019795915    -0.000002830778

  **** Optimization is complete! (in 14 steps) ****
    Final optimized geometry and variables:
    Molecular point group: c1

    Geometry (in Angstrom), charge = 0, multiplicity = 1:

    O           -1.241703090125    -1.634205637487     0.727647031586
    C           -1.607419553308    -1.112906703128    -0.281207148977
    C           -1.150937557069     0.276382761681    -0.692270893299
    C           -2.563929243842    -1.810510769444    -1.225986624726
    C           -0.041361509945     0.867998432803     0.177879983165
    H           -2.029495813603     0.920034073760    -0.684113809133
    H           -0.842731728031     0.238701694797    -1.736073469958
    C            1.344034892772     0.308508321393    -0.158711199479
    H           -0.043022972482     1.945142208502     0.041467757887
    H           -0.270325174645     0.679288900845     1.220830032315
    C            2.466170939867     0.802043088088     0.761041588363
    H            1.590239583471     0.559236294441    -1.190150216206
    H            1.306669189678    -0.775391920737    -0.102043981696
    C            2.752345756475     2.302144571533     0.668928377907
    H            3.374826803401     0.258119748339     0.515139137829
    H            2.225550769282     0.540939550974     1.789018521093
    H            2.979694337418     2.594783508774    -0.352928479754
    H            3.605005709397     2.570133059703     1.285268391224
    H            1.910244304571     2.898529024511     1.004433523793
    H           -3.381389943655    -1.155351224915    -1.510100526987
    H           -2.954265188255    -2.703610845416    -0.758122426746
    H           -2.039412015746    -2.086230903053    -2.136908734172

  Mulliken Charges: (a.u.)
   Center  Symbol    Alpha    Beta     Spin     Total
       1     O     4.26254  4.26254  0.00000 -0.52507
       2     C     2.73515  2.73515  0.00000  0.52970
       3     C     3.21252  3.21252  0.00000 -0.42505
       4     C     3.28709  3.28709  0.00000 -0.57418
       5     C     3.15347  3.15347  0.00000 -0.30695
       6     H     0.40550  0.40550  0.00000  0.18900
       7     H     0.41110  0.41110  0.00000  0.17780
       8     C     3.15620  3.15620  0.00000 -0.31240
       9     H     0.41930  0.41930  0.00000  0.16139
      10     H     0.40564  0.40564  0.00000  0.18872
      11     C     3.15339  3.15339  0.00000 -0.30679
      12     H     0.42821  0.42821  0.00000  0.14358
      13     H     0.41185  0.41185  0.00000  0.17630
      14     C     3.24163  3.24163  0.00000 -0.48326
      15     H     0.42099  0.42099  0.00000  0.15802
      16     H     0.41914  0.41914  0.00000  0.16171
      17     H     0.42349  0.42349  0.00000  0.15303
      18     H     0.41893  0.41893  0.00000  0.16213
      19     H     0.42068  0.42068  0.00000  0.15864
      20     H     0.41031  0.41031  0.00000  0.17938
      21     H     0.39656  0.39656  0.00000  0.20689
      22     H     0.40630  0.40630  0.00000  0.18740

   Total alpha = 32.00000, Total beta = 32.00000, Total charge =  0.00000
