  ==> Input File <==

--------------------------------------------------------------------------
set {
	reference rhf
	basis 6-31G*
}

set_num_threads( 4 )
memory 2 gb

molecule MOL {
0 1

H	 2.004279	 -0.039420	 -1.115903
O	 1.654024	 -0.625927	 -0.460906
C	 1.135793	 0.118896	 0.612333
C	 0.031547	 1.023609	 0.088541
H	 1.915668	 0.729681	 1.063582
H	 0.754543	 -0.542641	 1.387006
C	 -1.134819	 0.293262	 -0.585751
H	 0.474374	 1.714721	 -0.623187
H	 -0.338529	 1.620940	 0.920081
C	 -1.917817	 -0.639439	 0.339494
H	 -0.758119	 -0.268455	 -1.433105
H	 -1.813832	 1.041889	 -0.986690
H	 -2.777680	 -1.057197	 -0.174994
H	 -1.310268	 -1.471279	 0.680599
H	 -2.283753	 -0.111424	 1.216626

	symmetry c1
}
set optking {
	frozen_dihedral = ("
		1 2 3 4
	")
}

ee = optimize('scf')
oeprop('DIPOLE', 'QUADRUPOLE', 'MULLIKEN_CHARGES')
f=open( 'psi4out.xyz', 'w' )
f.write( "15  " )
f.write( str(ee) + "\n" )
f.write( MOL.save_string_xyz() )
f.close()
--------------------------------------------------------------------------

    Molecular point group: c1
  Charge       = 0
  Multiplicity = 1
  Basis Set: 6-31G*
  Basis Set:
  @DF-RHF Final Energy:  -232.14192241417214
    Total Energy =                       -232.1419224141721429
    Molecular point group: c1
  Basis Set: 6-31G*
  Basis Set:
  Basis Set: 6-31G*
  Basis Set:
  @DF-RHF Final Energy:  -232.14349963450238
    Total Energy =                       -232.1434996345021773
  Basis Set: 6-31G*
  Basis Set:
  Basis Set: 6-31G*
  Basis Set:
  @DF-RHF Final Energy:  -232.14388293690035
    Total Energy =                       -232.1438829369001837
  Basis Set: 6-31G*
  Basis Set:
  Basis Set: 6-31G*
  Basis Set:
  @DF-RHF Final Energy:  -232.14385383629968
    Total Energy =                       -232.1438538362998543
  Basis Set: 6-31G*
  Basis Set:
  Basis Set: 6-31G*
  Basis Set:
  @DF-RHF Final Energy:  -232.14388967599515
    Total Energy =                       -232.1438896759951831
  Basis Set: 6-31G*
  Basis Set:
  Charge       = 0
  Multiplicity = 1
  Basis Set: 6-31G*
  Basis Set:

    Orbital Energies (a.u.)
    -----------------------

    Doubly Occupied:

       1A    -20.554135     2A    -11.267405     3A    -11.218841
       4A    -11.214856     5A    -11.207070     6A     -1.360642
       7A     -1.067369     8A     -0.971185     9A     -0.876352
      10A     -0.788426    11A     -0.678319    12A     -0.641834
      13A     -0.631548    14A     -0.581686    15A     -0.564266
      16A     -0.539590    17A     -0.504515    18A     -0.485003
      19A     -0.472145    20A     -0.455770    21A     -0.427600

  @DF-RHF Final Energy:  -232.14389008939136

   => Energetics <=

    Nuclear Repulsion Energy =            191.6426009886463078
    One-Electron Energy =                -694.5558705362808496
    Two-Electron Energy =                 270.7693794582432929
    DFT Exchange-Correlation Energy =       0.0000000000000000
    Empirical Dispersion Energy =           0.0000000000000000
    PCM Polarization Energy =               0.0000000000000000
    EFP Energy =                            0.0000000000000000
    Total Energy =                       -232.1438900893912205
    Molecular point group: c1
  Basis Set: 6-31G*
  Basis Set:

  -Total Gradient:
     Atom            X                  Y                   Z
    ------   -----------------  -----------------  -----------------
       1       -0.000342149487    -0.000006504303    -0.000164973753
       2        0.000498676348     0.000058571498     0.000157150593
       3       -0.000300475281    -0.000254158959     0.000017969533
       4        0.000179544543     0.000168027704    -0.000046083191
       5       -0.000012794317     0.000011318184     0.000001616703
       6       -0.000017117259     0.000008759641     0.000010045730
       7        0.000005211644     0.000009415142     0.000006977652
       8       -0.000008677655    -0.000013102539     0.000004249316
       9       -0.000018182356     0.000011619558     0.000003872365
      10        0.000003324352    -0.000008221726     0.000002873088
      11       -0.000001804960     0.000002510700     0.000002843267
      12        0.000012530574     0.000007056510     0.000003355249
      13        0.000000344188    -0.000002688280    -0.000002143062
      14        0.000011383854     0.000006200001     0.000003440365
      15       -0.000009814189     0.000001196871    -0.000001193855

  **** Optimization is complete! (in 6 steps) ****
    Final optimized geometry and variables:
    Molecular point group: c1

    Geometry (in Angstrom), charge = 0, multiplicity = 1:

    H            2.047591579895    -0.124581269043    -1.096642691825
    O            1.692737897013    -0.680102546232    -0.416174970383
    C            1.141670473029     0.120853519565     0.597787227505
    C            0.016165752332     1.023657215666     0.101255652623
    H            1.914839261593     0.728985268752     1.064338069919
    H            0.781434827920    -0.566655924504     1.350887812639
    C           -1.146157614255     0.289994278372    -0.576450449568
    H            0.434506481868     1.745808242920    -0.599777520674
    H           -0.354358945592     1.602767862923     0.945499986897
    C           -1.919834510360    -0.651376454134     0.347623006997
    H           -0.768184082683    -0.270901712018    -1.425075537001
    H           -1.830790072992     1.033499689367    -0.976973910873
    H           -2.774885535500    -1.077076040494    -0.168108542046
    H           -1.303500849059    -1.476375966652     0.688192381249
    H           -2.291546086475    -0.126326799198     1.223884083017

  Mulliken Charges: (a.u.)
   Center  Symbol    Alpha    Beta     Spin     Total
       1     H     0.28333  0.28333  0.00000  0.43333
       2     O     4.36855  4.36855  0.00000 -0.73710
       3     C     2.99636  2.99636  0.00000  0.00729
       4     C     3.17252  3.17252  0.00000 -0.34504
       5     H     0.42807  0.42807  0.00000  0.14386
       6     H     0.41461  0.41461  0.00000  0.17078
       7     C     3.15026  3.15026  0.00000 -0.30053
       8     H     0.42641  0.42641  0.00000  0.14717
       9     H     0.42195  0.42195  0.00000  0.15610
      10     C     3.24381  3.24381  0.00000 -0.48761
      11     H     0.41433  0.41433  0.00000  0.17133
      12     H     0.42196  0.42196  0.00000  0.15609
      13     H     0.41840  0.41840  0.00000  0.16319
      14     H     0.41529  0.41529  0.00000  0.16943
      15     H     0.42415  0.42415  0.00000  0.15170

   Total alpha = 21.00000, Total beta = 21.00000, Total charge =  0.00000
