  ==> Input File <==

--------------------------------------------------------------------------
set {
	reference rhf
	basis 6-31G*
}

set_num_threads( 4 )
memory 2 gb

molecule MOL {
0 1

O	 -2.821601	 1.309235	 -0.001213
C	 -2.668563	 0.129746	 -0.000350
C	 -3.801572	 -0.864014	 -0.000442
O	 -1.481751	 -0.454642	 0.000584
H	 -4.417280	 -0.689587	 -0.874708
H	 -3.443784	 -1.883046	 -0.000565
H	 -4.417179	 -0.689832	 0.873954
C	 -0.334255	 0.388708	 0.000906
C	 0.891947	 -0.504646	 0.000751
H	 -0.365390	 1.025305	 -0.873475
H	 -0.365484	 1.024911	 0.875569
C	 2.191998	 0.301789	 0.000897
H	 0.855148	 -1.151283	 -0.871571
H	 0.855132	 -1.151660	 0.872805
C	 3.441114	 -0.581407	 0.000108
H	 2.215074	 0.954890	 -0.869742
H	 2.215465	 0.953923	 0.872248
C	 3.139046	 -2.039233	 -0.343933
H	 3.916864	 -0.531648	 0.976971
H	 4.161633	 -0.183961	 -0.711199
H	 2.446318	 -2.475364	 0.370162
H	 4.043288	 -2.639670	 -0.336300
H	 2.693255	 -2.125103	 -1.330800

	symmetry c1
}
set optking {
	frozen_dihedral = ("
		19 15 12 16
	")
}

ee = optimize('scf')
oeprop('DIPOLE', 'QUADRUPOLE', 'MULLIKEN_CHARGES')
f=open( 'psi4out.xyz', 'w' )
f.write( "23  " )
f.write( str(ee) + "\n" )
f.write( MOL.save_string_xyz() )
f.close()
--------------------------------------------------------------------------

    Molecular point group: c1
  Charge       = 0
  Multiplicity = 1
  Basis Set: 6-31G*
  Basis Set:
  @DF-RHF Final Energy:  -422.96697854185993
    Total Energy =                       -422.9669785418591346
    Molecular point group: c1
  Basis Set: 6-31G*
  Basis Set:
  Basis Set: 6-31G*
  Basis Set:
  @DF-RHF Final Energy:  -422.96762381779433
    Total Energy =                       -422.9676238177946743
  Basis Set: 6-31G*
  Basis Set:
  Basis Set: 6-31G*
  Basis Set:
  @DF-RHF Final Energy:  -422.97072581580170
    Total Energy =                       -422.9707258158015293
  Basis Set: 6-31G*
  Basis Set:
  Basis Set: 6-31G*
  Basis Set:
  @DF-RHF Final Energy:  -422.97113405105978
    Total Energy =                       -422.9711340510593800
  Basis Set: 6-31G*
  Basis Set:
  @DF-RHF Final Energy:  -422.97118242222967
    Total Energy =                       -422.9711824222300720
  Basis Set: 6-31G*
  Basis Set:
  @DF-RHF Final Energy:  -422.97118775624426
    Total Energy =                       -422.9711877562435802
  Basis Set: 6-31G*
  Basis Set:
  Basis Set: 6-31G*
  Basis Set:
  @DF-RHF Final Energy:  -422.97119276531691
    Total Energy =                       -422.9711927653166867
  Basis Set: 6-31G*
  Basis Set:
  Basis Set: 6-31G*
  Basis Set:
  @DF-RHF Final Energy:  -422.97119432946607
    Total Energy =                       -422.9711943294651064
  Basis Set: 6-31G*
  Basis Set:
  Charge       = 0
  Multiplicity = 1
  Basis Set: 6-31G*
  Basis Set:

    Orbital Energies (a.u.)
    -----------------------

    Doubly Occupied:

       1A    -20.602924     2A    -20.540472     3A    -11.374036
       4A    -11.281353     5A    -11.232351     6A    -11.224506
       7A    -11.223831     8A    -11.222079     9A    -11.213275
      10A     -1.467895    11A     -1.360678    12A     -1.091774
      13A     -1.039602    14A     -1.001653    15A     -0.931436
      16A     -0.858995    17A     -0.789293    18A     -0.768764
      19A     -0.691752    20A     -0.684491    21A     -0.669940
      22A     -0.641227    23A     -0.607676    24A     -0.602772
      25A     -0.574039    26A     -0.566359    27A     -0.550991
      28A     -0.537634    29A     -0.528687    30A     -0.506177
      31A     -0.500097    32A     -0.473249    33A     -0.467212
      34A     -0.455306    35A     -0.451214    36A     -0.435398

  @DF-RHF Final Energy:  -422.97119465897339

   => Energetics <=

    Nuclear Repulsion Energy =            454.8169414653752369
    One-Electron Energy =               -1477.2379973206229806
    Two-Electron Energy =                 599.4498611962740142
    DFT Exchange-Correlation Energy =       0.0000000000000000
    Empirical Dispersion Energy =           0.0000000000000000
    PCM Polarization Energy =               0.0000000000000000
    EFP Energy =                            0.0000000000000000
    Total Energy =                       -422.9711946589736726
    Molecular point group: c1
  Basis Set: 6-31G*
  Basis Set:

  -Total Gradient:
     Atom            X                  Y                   Z
    ------   -----------------  -----------------  -----------------
       1        0.000000381490    -0.000000090443     0.000011570875
       2        0.000000657836     0.000000161759    -0.000025127392
       3       -0.000000168399    -0.000000159340     0.000007357307
       4        0.000003269168    -0.000000376126     0.000008939310
       5        0.000001887438    -0.000000418637    -0.000000169175
       6       -0.000000100309     0.000000215880     0.000001103862
       7       -0.000002287660     0.000000213168    -0.000000247219
       8       -0.000000833355     0.000001752448    -0.000015789634
       9        0.000004662484    -0.000004364970    -0.000025600797
      10        0.000003047921    -0.000000144524     0.000001373625
      11       -0.000002185994    -0.000000598134     0.000002139168
      12       -0.002112706195    -0.003630909051    -0.003848278213
      13        0.000001951450    -0.000012239758     0.000008697995
      14        0.000001763618     0.000005610948     0.000012087686
      15       -0.002829417525    -0.004266244315     0.002480245773
      16        0.002225335239     0.003733691551     0.002858247133
      17        0.000006763890    -0.000009188216     0.000010168332
      18       -0.000007813783     0.000003046383     0.000009414687
      19        0.002718649546     0.004173358997    -0.001490582944
      20       -0.000003894902     0.000005186691    -0.000006114919
      21       -0.000009547334    -0.000000463326    -0.000001593650
      22       -0.000002141875     0.000000314059     0.000006703326
      23        0.000002727251     0.000001644959    -0.000004545135

  **** Optimization is complete! (in 9 steps) ****
    Final optimized geometry and variables:
    Molecular point group: c1

    Geometry (in Angstrom), charge = 0, multiplicity = 1:

    O           -2.636768183654     1.619474809632     0.019413860346
    C           -2.516777755334     0.436424138690     0.044865637610
    C           -3.677268184623    -0.524741128972     0.071930504808
    O           -1.346915787957    -0.181081883351     0.052855459530
    H           -4.293094223205    -0.351398487891    -0.802458661189
    H           -3.348293221556    -1.553255976209     0.091477698390
    H           -4.282460301606    -0.314911905087     0.945775474479
    C           -0.176064989377     0.629339116451     0.029322657551
    C            1.024027455434    -0.299209320525     0.042576389635
    H           -0.193649072484     1.247088639825    -0.858895959494
    H           -0.185157144583     1.285262717000     0.889758645867
    C            2.335499817496     0.488987695263     0.015632319801
    H            0.954428798560    -0.966168256379    -0.810016166589
    H            0.973661598429    -0.918922839410     0.933084093916
    C            3.643734548536    -0.340341026805     0.076596289062
    H            2.361324329066     1.140025239995    -0.854773639310
    H            2.335507398788     1.172462783074     0.862160672171
    C            3.552522119767    -1.808797303410    -0.339920094176
    H            4.071439659566    -0.263454112518     1.072083741246
    H            4.373201541585     0.144345379421    -0.567076484622
    H            2.890274914400    -2.377712278160     0.303686892410
    H            4.533454553767    -2.270846845450    -0.289312069711
    H            3.195225208320    -1.912948065134    -1.360002002570

  Mulliken Charges: (a.u.)
   Center  Symbol    Alpha    Beta     Spin     Total
       1     O     4.28394  4.28394  0.00000 -0.56788
       2     C     2.61535  2.61535  0.00000  0.76929
       3     C     3.28774  3.28774  0.00000 -0.57548
       4     O     4.31297  4.31297  0.00000 -0.62593
       5     H     0.39751  0.39751  0.00000  0.20499
       6     H     0.39989  0.39989  0.00000  0.20022
       7     H     0.39751  0.39751  0.00000  0.20497
       8     C     2.99515  2.99515  0.00000  0.00969
       9     C     3.16697  3.16697  0.00000 -0.33393
      10     H     0.41065  0.41065  0.00000  0.17870
      11     H     0.41068  0.41068  0.00000  0.17864
      12     C     3.16552  3.16552  0.00000 -0.33104
      13     H     0.41198  0.41198  0.00000  0.17604
      14     H     0.41384  0.41384  0.00000  0.17231
      15     C     3.15433  3.15433  0.00000 -0.30866
      16     H     0.41868  0.41868  0.00000  0.16263
      17     H     0.41899  0.41899  0.00000  0.16201
      18     C     3.24317  3.24317  0.00000 -0.48635
      19     H     0.41912  0.41912  0.00000  0.16177
      20     H     0.41905  0.41905  0.00000  0.16191
      21     H     0.41893  0.41893  0.00000  0.16214
      22     H     0.41755  0.41755  0.00000  0.16491
      23     H     0.42048  0.42048  0.00000  0.15905

   Total alpha = 36.00000, Total beta = 36.00000, Total charge = -0.00000
