                              Psi4 1.0.54 Driver

  ==> Input File <==

--------------------------------------------------------------------------
set {
	reference rhf
	basis cc-pvtz
}

set_num_threads( 4 )
memory 2 gb

molecule MOL {
0 1

H	 2.614283	 2.028610	 0.296620
O	 3.358864	 1.662087	 -0.142800
C	 3.565468	 0.338079	 0.273842
C	 2.533667	 -0.637565	 -0.272227
H	 4.548038	 0.064914	 -0.086598
H	 3.593945	 0.282242	 1.360360
C	 1.436686	 0.014054	 -1.111199
H	 3.048098	 -1.389507	 -0.863076
H	 2.082293	 -1.153577	 0.571806
C	 0.401609	 -0.991074	 -1.614359
H	 1.886741	 0.523209	 -1.956902
H	 0.934465	 0.776371	 -0.517960
C	 -0.761911	 -0.382486	 -2.399277
H	 0.898389	 -1.737087	 -2.229909
H	 -0.003477	 -1.526104	 -0.759890
C	 -0.383099	 0.228628	 -3.747158
H	 -1.502409	 -1.159417	 -2.568297
H	 -1.251488	 0.371843	 -1.787348
C	 -1.589802	 0.732394	 -4.534876
H	 0.146332	 -0.513741	 -4.340504
H	 0.309153	 1.052573	 -3.602570
C	 -1.214797	 1.346563	 -5.879518
H	 -2.281991	 -0.089615	 -4.695353
H	 -2.124671	 1.468002	 -3.940016
H	 -0.706190	 0.625503	 -6.510888
H	 -2.093334	 1.690945	 -6.413073
H	 -0.552269	 2.196212	 -5.751043

	symmetry c1
}
set optking {
	frozen_dihedral = ("
		8 4 3 2
	")
}

ee,wfn = optimize('scf', return_wfn=True)
oeprop( wfn, 'DIPOLE', 'QUADRUPOLE', 'MULLIKEN_CHARGES')
f=open( 'psi4out.xyz', 'w' )
f.write( "27  " )
f.write( str(ee) + "\n" )
f.write( MOL.save_string_xyz() )
f.close()
--------------------------------------------------------------------------

    Molecular point group: c1
  Charge       = 0
  Multiplicity = 1
  Basis Set: CC-PVTZ
  Basis Set:
  @DF-RHF Final Energy:  -388.41828782797580
    Total Energy =                       -388.4182878279762008
    Molecular point group: c1
  Basis Set: CC-PVTZ
  Basis Set:
  Basis Set: CC-PVTZ
  Basis Set:
  @DF-RHF Final Energy:  -388.41886627691338
    Total Energy =                       -388.4188662769138318
  Basis Set: CC-PVTZ
  Basis Set:
  Basis Set: CC-PVTZ
  Basis Set:
  @DF-RHF Final Energy:  -388.41954275852595
    Total Energy =                       -388.4195427585265179
  Basis Set: CC-PVTZ
  Basis Set:
  Basis Set: CC-PVTZ
  Basis Set:
  @DF-RHF Final Energy:  -388.41956600224592
    Total Energy =                       -388.4195660022458014
  Basis Set: CC-PVTZ
  Basis Set:
  Basis Set: CC-PVTZ
  Basis Set:
  @DF-RHF Final Energy:  -388.41957277878248
    Total Energy =                       -388.4195727787821397
  Basis Set: CC-PVTZ
  Basis Set:
  Basis Set: CC-PVTZ
  Basis Set:
  @DF-RHF Final Energy:  -388.41957526819192
    Total Energy =                       -388.4195752681916929
  Basis Set: CC-PVTZ
  Basis Set:
  Charge       = 0
  Multiplicity = 1
  Basis Set: CC-PVTZ
  Basis Set:

    Orbital Energies (a.u.)
    -----------------------

    Doubly Occupied:

       1A    -20.545781     2A    -11.265839     3A    -11.213692
       4A    -11.212178     5A    -11.211484     6A    -11.211301
       7A    -11.210493     8A    -11.208503     9A    -11.204784
      10A     -1.363436    11A     -1.092660    12A     -1.058095
      13A     -1.007917    14A     -0.946753    15A     -0.887872
      16A     -0.819296    17A     -0.799015    18A     -0.774737
      19A     -0.692532    20A     -0.646272    21A     -0.638419
      22A     -0.615818    23A     -0.602894    24A     -0.586077
      25A     -0.573281    26A     -0.556941    27A     -0.541811
      28A     -0.525018    29A     -0.500314    30A     -0.497485
      31A     -0.479597    32A     -0.470190    33A     -0.463929
      34A     -0.458138    35A     -0.446018    36A     -0.442344
      37A     -0.424208

  @DF-RHF Final Energy:  -388.41957533046366

   => Energetics <=

    Nuclear Repulsion Energy =            461.2137256546507160
    One-Electron Energy =               -1440.8763628727351715
    Two-Electron Energy =                 591.2430618876209110
    DFT Exchange-Correlation Energy =       0.0000000000000000
    Empirical Dispersion Energy =           0.0000000000000000
    PCM Polarization Energy =               0.0000000000000000
    EFP Energy =                            0.0000000000000000
    Total Energy =                       -388.4195753304635446
    Molecular point group: c1
  Basis Set: CC-PVTZ
  Basis Set:

  -Total Gradient:
     Atom            X                  Y                   Z
    ------   -----------------  -----------------  -----------------
       1       -0.000010018198     0.000037510814    -0.000003743945
       2       -0.000113843370     0.000080490074     0.000098751392
       3        0.000140235124    -0.000086742704    -0.000141945060
       4       -0.000033119314     0.000122444224    -0.000112074689
       5        0.000006634019    -0.000039656576     0.000009172800
       6       -0.000005276598    -0.000026600838     0.000004382813
       7       -0.000009082377     0.000007241226    -0.000018834335
       8        0.000022083581    -0.000091645309     0.000145387815
       9       -0.000003269481    -0.000010393725     0.000009946042
      10       -0.000006301139     0.000008169394     0.000020957964
      11       -0.000005950469     0.000016102452    -0.000020247209
      12       -0.000000763597    -0.000004922729    -0.000004700046
      13        0.000002581794    -0.000014391452    -0.000004105181
      14       -0.000008541581    -0.000001321628    -0.000001164695
      15        0.000002560988     0.000001819543     0.000009527632
      16        0.000004359822    -0.000007920112     0.000001829308
      17        0.000008720271    -0.000006139141    -0.000000491354
      18       -0.000004776277    -0.000005495491    -0.000001958101
      19        0.000002528986     0.000010658173     0.000002104549
      20       -0.000006925481    -0.000001824395     0.000001279878
      21        0.000018610468     0.000005605551     0.000004999740
      22       -0.000001956554     0.000005787678     0.000001407532
      23        0.000005445923    -0.000000657649     0.000000836804
      24       -0.000003902853     0.000001286389    -0.000000369779
      25       -0.000000274546    -0.000001165234     0.000001524459
      26        0.000000687241     0.000001060317    -0.000001059506
      27       -0.000000446375     0.000000701152    -0.000001414828

  **** Optimization is complete! (in 7 steps) ****
    Final optimized geometry and variables:
    Molecular point group: c1

    Geometry (in Angstrom), charge = 0, multiplicity = 1:

    H            1.807511742925     1.805647376902     2.446196717713
    O            2.556553042530     1.411136924628     2.040007376695
    C            2.690167092674     0.077119989788     2.454344886184
    C            1.617510636162    -0.895296961435     1.906397729050
    H            3.668333696771    -0.228594829615     2.112252210865
    H            2.707641977008     0.030024892626     3.539040584769
    C            0.534577626167    -0.260465696995     1.034970133996
    H            2.111448234045    -1.670338496495     1.329473083990
    H            1.141765876545    -1.403857540413     2.739405997019
    C           -0.454060602716    -1.297192161375     0.503510945604
    H            1.000709751556     0.271658747736     0.216521625840
    H           -0.015425140203     0.482414491941     1.608465571990
    C           -1.617160887486    -0.719603600633    -0.305248626429
    H            0.080108706764    -2.022052325376    -0.106346906930
    H           -0.862737600256    -1.853152607143     1.343084672613
    C           -1.223162436123    -0.079061214906    -1.634883658023
    H           -2.326359444002    -1.518761386412    -0.503001285505
    H           -2.148110754281     0.010357158082     0.301783976949
    C           -2.423895640004     0.402281645416    -2.445254619094
    H           -0.659576621228    -0.798647604081    -2.224895709453
    H           -0.557228751131     0.760490020506    -1.461842539653
    C           -2.033577785639     1.044710638612    -3.772188717139
    H           -3.089682442439    -0.435651006980    -2.633273874718
    H           -2.992622738629     1.115265305517    -1.854275585943
    H           -1.491653126287     0.345815578414    -4.400767071334
    H           -2.907935595441     1.373840622860    -4.322051099860
    H           -1.396407285912     1.908908774810    -3.616358344765

  Mulliken Charges: (a.u.)
   Center  Symbol    Alpha    Beta     Spin     Total
       1     H     0.39310  0.39310  0.00000  0.21380
       2     O     4.20145  4.20145  0.00000 -0.40289
       3     C     2.97282  2.97282  0.00000  0.05436
       4     C     3.11800  3.11800  0.00000 -0.23599
       5     H     0.45398  0.45398  0.00000  0.09205
       6     H     0.46426  0.46426  0.00000  0.07147
       7     C     3.08941  3.08941  0.00000 -0.17883
       8     H     0.45180  0.45180  0.00000  0.09640
       9     H     0.45157  0.45157  0.00000  0.09686
      10     C     3.09981  3.09981  0.00000 -0.19961
      11     H     0.43920  0.43920  0.00000  0.12161
      12     H     0.46334  0.46334  0.00000  0.07333
      13     C     3.09765  3.09765  0.00000 -0.19530
      14     H     0.45309  0.45309  0.00000  0.09382
      15     H     0.44926  0.44926  0.00000  0.10148
      16     C     3.08844  3.08844  0.00000 -0.17688
      17     H     0.44870  0.44870  0.00000  0.10259
      18     H     0.45473  0.45473  0.00000  0.09054
      19     C     3.08405  3.08405  0.00000 -0.16810
      20     H     0.45523  0.45523  0.00000  0.08953
      21     H     0.45186  0.45186  0.00000  0.09628
      22     C     3.14967  3.14967  0.00000 -0.29935
      23     H     0.45443  0.45443  0.00000  0.09115
      24     H     0.45510  0.45510  0.00000  0.08981
      25     H     0.45528  0.45528  0.00000  0.08943
      26     H     0.44883  0.44883  0.00000  0.10234
      27     H     0.45495  0.45495  0.00000  0.09009

   Total alpha = 37.00000, Total beta = 37.00000, Total charge = -0.00000

*** Psi4 exiting successfully. Buy a developer a beer!
