  ==> Input File <==

--------------------------------------------------------------------------
set {
	reference rhf
	basis 6-31G*
}

set_num_threads( 4 )
memory 2 gb

molecule MOL {
0 1

O	 -0.291628	 1.323815	 -0.000732
C	 -0.449655	 0.146360	 0.000961
C	 -1.783294	 -0.549321	 -0.000296
O	 0.550821	 -0.724572	 0.000672
H	 -1.863538	 -1.185371	 -0.874187
H	 -2.574672	 0.185258	 -0.002793
H	 -1.866414	 -1.182381	 0.875436
C	 1.671101	 -0.415361	 0.810389
H	 2.121369	 0.515097	 0.495964
H	 2.364917	 -1.230650	 0.677454
H	 1.379292	 -0.336711	 1.847696

	symmetry c1
}
set optking {
	frozen_dihedral = ("
		8 4 2 1
	")
}

ee = optimize('scf')
oeprop('DIPOLE', 'QUADRUPOLE', 'MULLIKEN_CHARGES')
f=open( 'psi4out.xyz', 'w' )
f.write( "11  " )
f.write( str(ee) + "\n" )
f.write( MOL.save_string_xyz() )
f.close()
--------------------------------------------------------------------------

    Molecular point group: c1
  Charge       = 0
  Multiplicity = 1
  Basis Set: 6-31G*
  Basis Set:
  @DF-RHF Final Energy:  -266.82775665111240
    Total Energy =                       -266.8277566511123950
    Molecular point group: c1
  Basis Set: 6-31G*
  Basis Set:
  Basis Set: 6-31G*
  Basis Set:
  @DF-RHF Final Energy:  -266.82485796012384
    Total Energy =                       -266.8248579601236088
  Basis Set: 6-31G*
  Basis Set:
  Basis Set: 6-31G*
  Basis Set:
  @DF-RHF Final Energy:  -266.82834491344556
    Total Energy =                       -266.8283449134454486
  Basis Set: 6-31G*
  Basis Set:
  Basis Set: 6-31G*
  Basis Set:
  @DF-RHF Final Energy:  -266.82839706332743
    Total Energy =                       -266.8283970633274862
  Basis Set: 6-31G*
  Basis Set:
  @DF-RHF Final Energy:  -266.82840158571980
    Total Energy =                       -266.8284015857199165
  @DF-RHF Final Energy:  -266.82840374745592
    Total Energy =                       -266.8284037474558090
  Basis Set: 6-31G*
  Basis Set:
  @DF-RHF Final Energy:  -266.82840207137815
    Total Energy =                       -266.8284020713779228
  Basis Set: 6-31G*
  Basis Set:
  Basis Set: 6-31G*
  Basis Set:
  @DF-RHF Final Energy:  -266.82840368474444
    Total Energy =                       -266.8284036847443872
  Basis Set: 6-31G*
  Basis Set:
  Basis Set: 6-31G*
  Basis Set:
  @DF-RHF Final Energy:  -266.82840500468660
    Total Energy =                       -266.8284050046866582
  Basis Set: 6-31G*
  Basis Set:
  Charge       = 0
  Multiplicity = 1
  Basis Set: 6-31G*
  Basis Set:

    Orbital Energies (a.u.)
    -----------------------

    Doubly Occupied:

       1A    -20.598205     2A    -20.550779     3A    -11.377692
       4A    -11.285658     5A    -11.235264     6A     -1.466097
       7A     -1.366057     8A     -1.033132     9A     -0.955206
      10A     -0.777727    11A     -0.695152    12A     -0.679555
      13A     -0.674223    14A     -0.600324    15A     -0.593118
      16A     -0.565514    17A     -0.533733    18A     -0.511941
      19A     -0.456431    20A     -0.441071

  @DF-RHF Final Energy:  -266.82840530463091

   => Energetics <=

    Nuclear Repulsion Energy =            182.7467083045584388
    One-Electron Energy =                -726.3564647720465928
    Two-Electron Energy =                 276.7813511628571632
    DFT Exchange-Correlation Energy =       0.0000000000000000
    Empirical Dispersion Energy =           0.0000000000000000
    PCM Polarization Energy =               0.0000000000000000
    EFP Energy =                            0.0000000000000000
    Total Energy =                       -266.8284053046310191
    Molecular point group: c1
  Basis Set: 6-31G*
  Basis Set:

  -Total Gradient:
     Atom            X                  Y                   Z
    ------   -----------------  -----------------  -----------------
       1       -0.000519965264    -0.000216792374    -0.010056377961
       2       -0.000655806954    -0.001716647832     0.017913173908
       3       -0.000104173411     0.000112163351     0.000082386006
       4        0.004387142604     0.005741689177    -0.014005531341
       5       -0.000002753200    -0.000023357273    -0.000016402858
       6       -0.000002124838    -0.000003490129    -0.000013246504
       7       -0.000007019458    -0.000025114092    -0.000048164807
       8       -0.003155613183    -0.003907984852     0.006126457923
       9        0.000009322176     0.000022213187     0.000004487424
      10        0.000042105386     0.000007120969     0.000018781335
      11        0.000008886142     0.000010199870    -0.000005563124

  **** Optimization is complete! (in 10 steps) ****
    Final optimized geometry and variables:
    Molecular point group: c1

    Geometry (in Angstrom), charge = 0, multiplicity = 1:

    O           -0.265716398590     1.369662420838    -0.136793841916
    C           -0.418929821660     0.194124886618    -0.133375449760
    C           -1.750946827061    -0.500348021610    -0.202721482654
    O            0.594031307728    -0.677244659119    -0.170312430135
    H           -1.767649121130    -1.169132020647    -1.055495370906
    H           -2.542280020386     0.229689120511    -0.285166434658
    H           -1.893557738428    -1.104052309085     0.686917990272
    C            1.741214772006    -0.367800925050     0.600616099665
    H            2.191073322910     0.557217404624     0.271715935549
    H            2.428584841777    -1.186997201876     0.458495452794
    H            1.477236384254    -0.290408335585     1.647947417934

  Mulliken Charges: (a.u.)
   Center  Symbol    Alpha    Beta     Spin     Total
       1     O     4.27087  4.27087  0.00000 -0.54174
       2     C     2.62222  2.62222  0.00000  0.75557
       3     C     3.28337  3.28337  0.00000 -0.56673
       4     O     4.30463  4.30463  0.00000 -0.60926
       5     H     0.39796  0.39796  0.00000  0.20407
       6     H     0.39715  0.39715  0.00000  0.20570
       7     H     0.40324  0.40324  0.00000  0.19352
       8     C     3.09421  3.09421  0.00000 -0.18841
       9     H     0.40281  0.40281  0.00000  0.19438
      10     H     0.40644  0.40644  0.00000  0.18712
      11     H     0.41711  0.41711  0.00000  0.16579

   Total alpha = 20.00000, Total beta = 20.00000, Total charge =  0.00000
