                              Psi4 1.0.54 Driver

  ==> Input File <==

--------------------------------------------------------------------------
set {
	reference rhf
	basis cc-pvtz
}

set_num_threads( 4 )
memory 2 gb

molecule MOL {
0 1

H	 0.648798	 1.827563	 0.348327
O	 0.057669	 1.301365	 -0.158528
C	 0.004145	 -0.005141	 0.363049
C	 1.199168	 -0.827145	 -0.096690
C	 -1.316386	 -0.602081	 -0.083515
H	 0.012026	 0.043363	 1.450619
H	 1.216685	 -0.896776	 -1.178167
H	 2.129940	 -0.372354	 0.228035
H	 1.160783	 -1.829622	 0.314294
H	 -1.357882	 -0.655920	 -1.165207
H	 -2.140147	 0.011735	 0.257253
H	 -1.440790	 -1.601175	 0.317669

	symmetry c1
}
set optking {
	frozen_dihedral = ("
		1 2 3 4
	")
}

ee,wfn = optimize('scf', return_wfn=True)
oeprop( wfn, 'DIPOLE', 'QUADRUPOLE', 'MULLIKEN_CHARGES')
f=open( 'psi4out.xyz', 'w' )
f.write( "12  " )
f.write( str(ee) + "\n" )
f.write( MOL.save_string_xyz() )
f.close()
--------------------------------------------------------------------------

    Molecular point group: c1
  Charge       = 0
  Multiplicity = 1
  Basis Set: CC-PVTZ
  Basis Set:
  @DF-RHF Final Energy:  -193.19549014662607
    Total Energy =                       -193.1954901466260992
    Molecular point group: c1
  Basis Set: CC-PVTZ
  Basis Set:
  Basis Set: CC-PVTZ
  Basis Set:
  @DF-RHF Final Energy:  -193.19552240172922
    Total Energy =                       -193.1955224017293062
  Basis Set: CC-PVTZ
  Basis Set:
  Basis Set: CC-PVTZ
  Basis Set:
  @DF-RHF Final Energy:  -193.19552845605727
    Total Energy =                       -193.1955284560573887
  Basis Set: CC-PVTZ
  Basis Set:
  Charge       = 0
  Multiplicity = 1
  Basis Set: CC-PVTZ
  Basis Set:

    Orbital Energies (a.u.)
    -----------------------

    Doubly Occupied:

       1A    -20.543996     2A    -11.274356     3A    -11.207868
       4A    -11.204812     5A     -1.364147     6A     -1.042943
       7A     -0.937944     8A     -0.801532     9A     -0.709591
      10A     -0.618314    11A     -0.603289    12A     -0.550912
      13A     -0.538216    14A     -0.527453    15A     -0.508864
      16A     -0.466860    17A     -0.433366

  @DF-RHF Final Energy:  -193.19552855539496

   => Energetics <=

    Nuclear Repulsion Energy =            135.6515692339226007
    One-Electron Energy =                -531.0252692765108122
    Two-Electron Energy =                 202.1781714871933389
    DFT Exchange-Correlation Energy =       0.0000000000000000
    Empirical Dispersion Energy =           0.0000000000000000
    PCM Polarization Energy =               0.0000000000000000
    EFP Energy =                            0.0000000000000000
    Total Energy =                       -193.1955285553948727
    Molecular point group: c1
  Basis Set: CC-PVTZ
  Basis Set:

  -Total Gradient:
     Atom            X                  Y                   Z
    ------   -----------------  -----------------  -----------------
       1       -0.001176490816     0.000428322490     0.000922886616
       2        0.001238586016    -0.000649784110    -0.001428351410
       3        0.000445778813     0.000550310853     0.001266808618
       4       -0.000508611243    -0.000309698551    -0.000764593564
       5        0.000002811246    -0.000001184549     0.000006656901
       6       -0.000008215179    -0.000008552217    -0.000003485652
       7        0.000004613280     0.000001119465    -0.000000384666
       8       -0.000014791579     0.000004294581     0.000001971112
       9        0.000003571562    -0.000015751203    -0.000003865900
      10        0.000002634108     0.000001045074     0.000003720990
      11        0.000005523538    -0.000001321811     0.000001081748
      12        0.000004590253     0.000001199982    -0.000002444793

  **** Optimization is complete! (in 4 steps) ****
    Final optimized geometry and variables:
    Molecular point group: c1

    Geometry (in Angstrom), charge = 0, multiplicity = 1:

    H            0.662137580722     1.826468115084     0.332697198605
    O            0.068510758451     1.299216657594    -0.168905402815
    C            0.004635924940    -0.004451996976     0.362913351754
    C            1.198047968201    -0.829822147892    -0.095449356239
    C           -1.314141789359    -0.604750895416    -0.087326205720
    H            0.007951374063     0.049191246305     1.449498999064
    H            1.212503216196    -0.897863072230    -1.176853536810
    H            2.128677211945    -0.373891534654     0.225458432755
    H            1.158019645046    -1.833014876388     0.314530392377
    H           -1.358648142251    -0.638626164562    -1.169798599102
    H           -2.142290769625    -0.004502530438     0.266732617957
    H           -1.428555494035    -1.613047731222     0.293516006902

  Mulliken Charges: (a.u.)
   Center  Symbol    Alpha    Beta     Spin     Total
       1     H     0.39465  0.39465  0.00000  0.21071
       2     O     4.20653  4.20653  0.00000 -0.41306
       3     C     2.92423  2.92423  0.00000  0.15154
       4     C     3.14145  3.14145  0.00000 -0.28289
       5     C     3.14076  3.14076  0.00000 -0.28152
       6     H     0.46664  0.46664  0.00000  0.06673
       7     H     0.45181  0.45181  0.00000  0.09638
       8     H     0.45685  0.45685  0.00000  0.08630
       9     H     0.45781  0.45781  0.00000  0.08438
      10     H     0.45199  0.45199  0.00000  0.09603
      11     H     0.44817  0.44817  0.00000  0.10367
      12     H     0.45912  0.45912  0.00000  0.08175

   Total alpha = 17.00000, Total beta = 17.00000, Total charge =  0.00000

*** Psi4 exiting successfully. Buy a developer a beer!
