                              Psi4 1.0.54 Driver

  ==> Input File <==

--------------------------------------------------------------------------
set {
	reference rhf
	basis cc-pvtz
}

set_num_threads( 4 )
memory 2 gb

molecule MOL {
0 1

H	 -4.230259	 0.539112	 0.036360
O	 -3.515113	 -0.019339	 -0.206321
C	 -2.302264	 0.528872	 0.237390
C	 -1.175688	 -0.398187	 -0.171891
H	 -2.148018	 1.514076	 -0.197759
H	 -2.310727	 0.646384	 1.319032
C	 0.196029	 0.106276	 0.266738
H	 -1.201873	 -0.515469	 -1.250677
H	 -1.365975	 -1.378728	 0.252664
C	 1.330220	 -0.826136	 -0.155230
H	 0.359542	 1.097229	 -0.145561
H	 0.212134	 0.218135	 1.348778
C	 2.719700	 -0.407669	 0.328325
H	 1.339388	 -0.911200	 -1.239363
H	 1.119001	 -1.821953	 0.224128
C	 3.389791	 -1.396683	 1.279213
H	 2.633078	 0.551513	 0.829495
H	 3.363595	 -0.241890	 -0.531531
H	 2.765141	 -1.587391	 2.146106
H	 3.590424	 -2.347800	 0.800871
H	 4.336404	 -1.006279	 1.635135

	symmetry c1
}
set optking {
	frozen_dihedral = ("
		16 13 10 14
	")
}

ee,wfn = optimize('scf', return_wfn=True)
oeprop( wfn, 'DIPOLE', 'QUADRUPOLE', 'MULLIKEN_CHARGES')
f=open( 'psi4out.xyz', 'w' )
f.write( "21  " )
f.write( str(ee) + "\n" )
f.write( MOL.save_string_xyz() )
f.close()
--------------------------------------------------------------------------

    Molecular point group: c1
  Charge       = 0
  Multiplicity = 1
  Basis Set: CC-PVTZ
  Basis Set:
  @DF-RHF Final Energy:  -310.32871404557761
    Total Energy =                       -310.3287140455777831
    Molecular point group: c1
  Basis Set: CC-PVTZ
  Basis Set:
  Basis Set: CC-PVTZ
  Basis Set:
  @DF-RHF Final Energy:  -310.32912452027404
    Total Energy =                       -310.3291245202741493
  Basis Set: CC-PVTZ
  Basis Set:
  Basis Set: CC-PVTZ
  Basis Set:
  @DF-RHF Final Energy:  -310.32918742920486
    Total Energy =                       -310.3291874292051489
  Basis Set: CC-PVTZ
  Basis Set:
  Basis Set: CC-PVTZ
  Basis Set:
  @DF-RHF Final Energy:  -310.32918605502516
    Total Energy =                       -310.3291860550253318
  Basis Set: CC-PVTZ
  Basis Set:
  Basis Set: CC-PVTZ
  Basis Set:
  @DF-RHF Final Energy:  -310.32919102673549
    Total Energy =                       -310.3291910267357707
  Basis Set: CC-PVTZ
  Basis Set:
  Charge       = 0
  Multiplicity = 1
  Basis Set: CC-PVTZ
  Basis Set:

    Orbital Energies (a.u.)
    -----------------------

    Doubly Occupied:

       1A    -20.545446     2A    -11.265109     3A    -11.214167
       4A    -11.212427     5A    -11.210731     6A    -11.208841
       7A    -11.206546     8A     -1.363307     9A     -1.086055
      10A     -1.034519    11A     -0.957408    12A     -0.868989
      13A     -0.804242    14A     -0.789641    15A     -0.696285
      16A     -0.662948    17A     -0.624296    18A     -0.604206
      19A     -0.587539    20A     -0.566205    21A     -0.542713
      22A     -0.523113    23A     -0.508175    24A     -0.487213
      25A     -0.478677    26A     -0.463025    27A     -0.454302
      28A     -0.443051    29A     -0.437434

  @DF-RHF Final Energy:  -310.32919105183623

   => Energetics <=

    Nuclear Repulsion Energy =            310.3086989090946872
    One-Electron Energy =               -1035.5825640586194822
    Two-Electron Energy =                 414.9446740976886190
    DFT Exchange-Correlation Energy =       0.0000000000000000
    Empirical Dispersion Energy =           0.0000000000000000
    PCM Polarization Energy =               0.0000000000000000
    EFP Energy =                            0.0000000000000000
    Total Energy =                       -310.3291910518361760
    Molecular point group: c1
  Basis Set: CC-PVTZ
  Basis Set:

  -Total Gradient:
     Atom            X                  Y                   Z
    ------   -----------------  -----------------  -----------------
       1       -0.000000470082     0.000000113972     0.000000252878
       2        0.000000887399    -0.000000631877    -0.000000247150
       3        0.000003603714    -0.000000077139     0.000002983193
       4        0.000000794816     0.000000611469    -0.000005550550
       5       -0.000000911903    -0.000002165126    -0.000000134853
       6       -0.000001004471     0.000002411729     0.000001673803
       7       -0.000004571852     0.000000555127    -0.000001909446
       8        0.000000320488     0.000000139389    -0.000000714060
       9        0.000001801753     0.000000483383    -0.000000910625
      10       -0.000077035255     0.000335763591    -0.000091330619
      11        0.000002056147     0.000001443604    -0.000000416523
      12       -0.000000455871    -0.000003490074    -0.000001915285
      13       -0.000113828851     0.000082447551     0.000252455859
      14        0.000088880555    -0.000310277444     0.000031215726
      15       -0.000005484494    -0.000000822286    -0.000002206214
      16        0.000098756605    -0.000107497393    -0.000180733011
      17        0.000009397389    -0.000002900410     0.000001695931
      18        0.000003194644    -0.000001420969    -0.000000605987
      19       -0.000004537833    -0.000003953257     0.000001791971
      20        0.000003647003     0.000006383242    -0.000005991280
      21       -0.000005039906     0.000002882920     0.000000596245

  **** Optimization is complete! (in 6 steps) ****
    Final optimized geometry and variables:
    Molecular point group: c1

    Geometry (in Angstrom), charge = 0, multiplicity = 1:

    H           -4.237233719371     0.942270340290    -0.219561326903
    O           -3.531659349235     0.372635366407    -0.464102623273
    C           -2.312134602905     0.887074198818     0.001101833727
    C           -1.201220635610    -0.057031696410    -0.412136647134
    H           -2.132172163025     1.875742890256    -0.415896765806
    H           -2.329540714239     0.986874903631     1.084394963099
    C            0.175685286523     0.410843972748     0.046890179445
    H           -1.219363439041    -0.157243945248    -1.492779078533
    H           -1.415861216446    -1.039871320188    -0.004649013288
    C            1.300987874731    -0.534522431893    -0.368194587820
    H            0.376661820050     1.400739598016    -0.356044747021
    H            0.182112292543     0.516546410729     1.129599573645
    C            2.696667338997    -0.082355907149     0.108776671384
    H            1.293527021546    -0.636679617469    -1.448537633499
    H            1.086792961220    -1.524582209311     0.023338179760
    C            3.361859361250    -1.066588614150     1.066835519906
    H            2.618396637141     0.884317845461     0.596221713806
    H            3.347080739193     0.068692147760    -0.745904117868
    H            2.753579039085    -1.221302816879     1.952252951587
    H            3.506297143901    -2.032670137127     0.594948663723
    H            4.332305413503    -0.707097838898     1.390286751590

  Mulliken Charges: (a.u.)
   Center  Symbol    Alpha    Beta     Spin     Total
       1     H     0.39760  0.39760  0.00000  0.20480
       2     O     4.19432  4.19432  0.00000 -0.38864
       3     C     2.96313  2.96313  0.00000  0.07375
       4     C     3.08569  3.08569  0.00000 -0.17138
       5     H     0.47492  0.47492  0.00000  0.05017
       6     H     0.47497  0.47497  0.00000  0.05007
       7     C     3.10097  3.10097  0.00000 -0.20193
       8     H     0.45106  0.45106  0.00000  0.09789
       9     H     0.45069  0.45069  0.00000  0.09861
      10     C     3.09406  3.09406  0.00000 -0.18811
      11     H     0.45430  0.45430  0.00000  0.09140
      12     H     0.45493  0.45493  0.00000  0.09014
      13     C     3.08946  3.08946  0.00000 -0.17892
      14     H     0.44863  0.44863  0.00000  0.10274
      15     H     0.45380  0.45380  0.00000  0.09239
      16     C     3.14702  3.14702  0.00000 -0.29405
      17     H     0.45488  0.45488  0.00000  0.09024
      18     H     0.44968  0.44968  0.00000  0.10063
      19     H     0.45565  0.45565  0.00000  0.08869
      20     H     0.45434  0.45434  0.00000  0.09133
      21     H     0.44991  0.44991  0.00000  0.10018

   Total alpha = 29.00000, Total beta = 29.00000, Total charge =  0.00000

*** Psi4 exiting successfully. Buy a developer a beer!
