  ==> Input File <==

--------------------------------------------------------------------------
set {
	reference rhf
	basis cc-pvtz
}

set_num_threads( 4 )
memory 2 gb

molecule MOL {
0 1

H	 -1.478061	 2.540554	 2.478146
O	 -1.223805	 1.804323	 1.953385
C	 -0.358535	 2.217801	 0.927539
C	 0.027642	 1.012027	 0.090274
H	 0.541034	 2.660986	 1.347218
H	 -0.835694	 2.974584	 0.311050
C	 -1.138737	 0.285728	 -0.581921
H	 0.554726	 0.313668	 0.732133
H	 0.737317	 1.342804	 -0.664155
C	 -1.933983	 -0.631436	 0.343653
H	 -0.763151	 -0.285569	 -1.422081
H	 -1.808359	 1.035291	 -0.992333
H	 -2.789188	 -1.049673	 -0.174718
H	 -1.335629	 -1.461368	 0.700418
H	 -2.305435	 -0.092167	 1.209725

	symmetry c1
}
set optking {
	frozen_dihedral = ("
		8 4 7 11
	")
}

ee = optimize('scf')
oeprop('DIPOLE', 'QUADRUPOLE', 'MULLIKEN_CHARGES')
f=open( 'psi4out.xyz', 'w' )
f.write( "15  " )
f.write( str(ee) + "\n" )
f.write( MOL.save_string_xyz() )
f.close()
--------------------------------------------------------------------------

    Molecular point group: c1
  Charge       = 0
  Multiplicity = 1
  Basis Set: CC-PVTZ
  Basis Set:
  @DF-RHF Final Energy:  -232.23473020358153
    Total Energy =                       -232.2347302035815346
    Molecular point group: c1
  Basis Set: CC-PVTZ
  Basis Set:
  Basis Set: CC-PVTZ
  Basis Set:
  @DF-RHF Final Energy:  -232.23587856756910
    Total Energy =                       -232.2358785675688182
  Basis Set: CC-PVTZ
  Basis Set:
  Basis Set: CC-PVTZ
  Basis Set:
  @DF-RHF Final Energy:  -232.23599094284137
    Total Energy =                       -232.2359909428415108
  Basis Set: CC-PVTZ
  Basis Set:
  Basis Set: CC-PVTZ
  Basis Set:
  @DF-RHF Final Energy:  -232.23600247734475
    Total Energy =                       -232.2360024773447549
  Basis Set: CC-PVTZ
  Basis Set:
  Basis Set: CC-PVTZ
  Basis Set:
  @DF-RHF Final Energy:  -232.23600374551654
    Total Energy =                       -232.2360037455164843
  Basis Set: CC-PVTZ
  Basis Set:
  Charge       = 0
  Multiplicity = 1
  Basis Set: CC-PVTZ
  Basis Set:

    Orbital Energies (a.u.)
    -----------------------

    Doubly Occupied:

       1A    -20.547449     2A    -11.266877     3A    -11.211845
       4A    -11.209570     5A    -11.193689     6A     -1.365401
       7A     -1.063284     8A     -0.972103     9A     -0.861233
      10A     -0.780753    11A     -0.707838    12A     -0.646548
      13A     -0.604259    14A     -0.583872    15A     -0.550211
      16A     -0.538672    17A     -0.510013    18A     -0.470255
      19A     -0.468592    20A     -0.452101    21A     -0.431479

  @DF-RHF Final Energy:  -232.23600384044684

   => Energetics <=

    Nuclear Repulsion Energy =            192.2352703353379013
    One-Electron Energy =                -696.0704620512664178
    Two-Electron Energy =                 271.5991878754816753
    DFT Exchange-Correlation Energy =       0.0000000000000000
    Empirical Dispersion Energy =           0.0000000000000000
    PCM Polarization Energy =               0.0000000000000000
    EFP Energy =                            0.0000000000000000
    Total Energy =                       -232.2360038404468696
    Molecular point group: c1
  Basis Set: CC-PVTZ
  Basis Set:

  -Total Gradient:
     Atom            X                  Y                   Z
    ------   -----------------  -----------------  -----------------
       1        0.000004903800     0.000000116283     0.000001346238
       2       -0.000003903564    -0.000004367288    -0.000006819989
       3        0.000000270402     0.000011290988     0.000007906349
       4        0.000539049670    -0.000107003910    -0.000785389481
       5        0.000002751898    -0.000000788134    -0.000003592484
       6       -0.000000360055     0.000000420808    -0.000002419691
       7        0.000014155456    -0.000671732916     0.000651406715
       8       -0.000445137892     0.000184609858     0.000557117044
       9       -0.000003231211     0.000005011215     0.000005512373
      10       -0.000013198906    -0.000003630080    -0.000001261317
      11       -0.000088228023     0.000584602599    -0.000433671399
      12       -0.000004074640    -0.000006719002     0.000006406089
      13       -0.000000032929     0.000001880360     0.000006708375
      14       -0.000000898062     0.000010971702    -0.000004094208
      15       -0.000002065944    -0.000004662482     0.000000845389

  **** Optimization is complete! (in 6 steps) ****
    Final optimized geometry and variables:
    Molecular point group: c1

    Geometry (in Angstrom), charge = 0, multiplicity = 1:

    H           -0.421649568111     1.649227910369     1.932572585287
    O           -0.199627070086     0.887363508534     1.430121174915
    C            0.578104378384     1.254287264958     0.320063669194
    C            0.946890213809     0.026236361188    -0.492813664621
    H            1.489594678773     1.746904724426     0.649842505174
    H            0.033896881522     1.957505496341    -0.307376755122
    C           -0.218600031964    -0.683078558642    -1.192693885782
    H            1.470244283750    -0.670570859630     0.155091279166
    H            1.660356112850     0.353720325139    -1.243471010692
    C           -1.027445252873    -1.630946162317    -0.310521854373
    H            0.181603229903    -1.244508647140    -2.031420094638
    H           -0.879994691506     0.063463785030    -1.625238877971
    H           -1.805705325885    -2.117130164422    -0.888941673745
    H           -0.391815344827    -2.407305860617     0.103027742054
    H           -1.489705402522    -1.108689053423     0.514290334539

  Mulliken Charges: (a.u.)
   Center  Symbol    Alpha    Beta     Spin     Total
       1     H     0.39656  0.39656  0.00000  0.20689
       2     O     4.19647  4.19647  0.00000 -0.39294
       3     C     2.97168  2.97168  0.00000  0.05663
       4     C     3.09538  3.09538  0.00000 -0.19076
       5     H     0.46566  0.46566  0.00000  0.06867
       6     H     0.47470  0.47470  0.00000  0.05061
       7     C     3.08507  3.08507  0.00000 -0.17015
       8     H     0.45286  0.45286  0.00000  0.09429
       9     H     0.44882  0.44882  0.00000  0.10236
      10     C     3.14500  3.14500  0.00000 -0.28999
      11     H     0.45084  0.45084  0.00000  0.09832
      12     H     0.45879  0.45879  0.00000  0.08242
      13     H     0.45335  0.45335  0.00000  0.09331
      14     H     0.45887  0.45887  0.00000  0.08225
      15     H     0.44595  0.44595  0.00000  0.10809

   Total alpha = 21.00000, Total beta = 21.00000, Total charge = -0.00000
