                              Psi4 1.0.54 Driver

  ==> Input File <==

--------------------------------------------------------------------------
set {
	reference rhf
	basis cc-pvtz
}

set_num_threads( 4 )
memory 2 gb

molecule MOL {
0 1

H	 1.359552	 -1.812709	 1.487793
C	 1.540454	 -0.732778	 1.406084
C	 0.303951	 0.114328	 1.286631
O	 2.646917	 -0.316444	 1.412359
C	 -0.554654	 -0.292621	 0.086567
H	 0.603942	 1.152008	 1.222900
H	 -0.269825	 -0.016464	 2.201810
C	 -1.846385	 0.513195	 -0.016346
H	 0.022971	 -0.166510	 -0.824687
H	 -0.795953	 -1.350367	 0.154533
C	 -3.089953	 -0.365049	 -0.098564
H	 -1.798267	 1.154820	 -0.891143
H	 -1.925398	 1.173265	 0.842889
H	 -3.055079	 -1.012299	 -0.968245
H	 -3.988403	 0.236438	 -0.170014
H	 -3.183055	 -0.995885	 0.779079

	symmetry c1
}
set optking {
	frozen_dihedral = ("
		9 5 8 12
	")
}

ee,wfn = optimize('scf', return_wfn=True)
oeprop( wfn, 'DIPOLE', 'QUADRUPOLE', 'MULLIKEN_CHARGES')
f=open( 'psi4out.xyz', 'w' )
f.write( "16  " )
f.write( str(ee) + "\n" )
f.write( MOL.save_string_xyz() )
f.close()
--------------------------------------------------------------------------

    Molecular point group: c1
  Charge       = 0
  Multiplicity = 1
  Basis Set: CC-PVTZ
  Basis Set:
  @DF-RHF Final Energy:  -270.11329993720233
    Total Energy =                       -270.1132999372022709
    Molecular point group: c1
  Basis Set: CC-PVTZ
  Basis Set:
  Basis Set: CC-PVTZ
  Basis Set:
  @DF-RHF Final Energy:  -270.11354427305997
    Total Energy =                       -270.1135442730599152
  Basis Set: CC-PVTZ
  Basis Set:
  Basis Set: CC-PVTZ
  Basis Set:
  @DF-RHF Final Energy:  -270.11357799415458
    Total Energy =                       -270.1135779941542978
  Basis Set: CC-PVTZ
  Basis Set:
  Basis Set: CC-PVTZ
  Basis Set:
  @DF-RHF Final Energy:  -270.11361692864443
    Total Energy =                       -270.1136169286443192
  Basis Set: CC-PVTZ
  Basis Set:
  Basis Set: CC-PVTZ
  Basis Set:
  @DF-RHF Final Energy:  -270.11362290617245
    Total Energy =                       -270.1136229061723952
  Basis Set: CC-PVTZ
  Basis Set:
  Charge       = 0
  Multiplicity = 1
  Basis Set: CC-PVTZ
  Basis Set:

    Orbital Energies (a.u.)
    -----------------------

    Doubly Occupied:

       1A    -20.552159     2A    -11.321059     3A    -11.234730
       4A    -11.234117     5A    -11.227334     6A    -11.217747
       7A     -1.406809     8A     -1.095485     9A     -1.019588
      10A     -0.906929    11A     -0.812954    12A     -0.794359
      13A     -0.682075    14A     -0.641879    15A     -0.632983
      16A     -0.613452    17A     -0.577965    18A     -0.553675
      19A     -0.533719    20A     -0.509886    21A     -0.488205
      22A     -0.483993    23A     -0.473463    24A     -0.411041

  @DF-RHF Final Energy:  -270.11362369897688

   => Energetics <=

    Nuclear Repulsion Energy =            229.5646526012124298
    One-Electron Energy =                -820.5053389232593872
    Two-Electron Energy =                 320.8270626230703328
    DFT Exchange-Correlation Energy =       0.0000000000000000
    Empirical Dispersion Energy =           0.0000000000000000
    PCM Polarization Energy =               0.0000000000000000
    EFP Energy =                            0.0000000000000000
    Total Energy =                       -270.1136236989766530
    Molecular point group: c1
  Basis Set: CC-PVTZ
  Basis Set:

  -Total Gradient:
     Atom            X                  Y                   Z
    ------   -----------------  -----------------  -----------------
       1       -0.000007872422    -0.000024682854    -0.000013653701
       2        0.000001337634    -0.000005784281     0.000006365254
       3       -0.000027904560    -0.000011327135    -0.000082396859
       4       -0.000009275868     0.000016505069     0.000025070453
       5       -0.001020099497    -0.001865267822    -0.000973170197
       6        0.000008067322     0.000012524922    -0.000002694321
       7        0.000010582732     0.000014854558     0.000036708455
       8        0.000936741945     0.001775028807     0.001252974695
       9        0.000735701429     0.001278044753     0.000638076420
      10        0.000001617615    -0.000008642521    -0.000010793470
      11        0.000005422341    -0.000015340903     0.000001790691
      12       -0.000643018909    -0.001166536295    -0.000883101462
      13        0.000006235504     0.000010802307     0.000003881691
      14       -0.000006340972    -0.000006796620    -0.000003278514
      15        0.000014010871     0.000003843971     0.000000764306
      16       -0.000005205156    -0.000007225956     0.000003456557

  **** Optimization is complete! (in 6 steps) ****
    Final optimized geometry and variables:
    Molecular point group: c1

    Geometry (in Angstrom), charge = 0, multiplicity = 1:

    H            1.546684961105    -1.625976598252     0.821364214541
    C            1.723538191271    -0.546518450528     0.724369825004
    C            0.483101958890     0.296147060377     0.614444749669
    O            2.828978670028    -0.127514450939     0.708058918877
    C           -0.387242805314    -0.118857588012    -0.576480050917
    H            0.778098895606     1.334838752343     0.542599614780
    H           -0.081888994452     0.167598743604     1.535473849106
    C           -1.692102394752     0.697126730104    -0.682162143703
    H            0.196916419136    -0.000065604121    -1.482311534025
    H           -0.619867860557    -1.175899715240    -0.494439088305
    C           -2.941045704944    -0.174488758005    -0.782094716940
    H           -1.647511038452     1.338635645086    -1.554704918476
    H           -1.786549671813     1.353936389096     0.175617097298
    H           -2.896766650917    -0.821901980709    -1.651400770503
    H           -3.835480166770     0.431802976938    -0.865813296977
    H           -3.048732128863    -0.805836346709     0.093874978866

  Mulliken Charges: (a.u.)
   Center  Symbol    Alpha    Beta     Spin     Total
       1     H     0.46541  0.46541  0.00000  0.06917
       2     C     2.91013  2.91013  0.00000  0.17974
       3     C     3.07943  3.07943  0.00000 -0.15885
       4     O     4.16353  4.16353  0.00000 -0.32707
       5     C     3.10652  3.10652  0.00000 -0.21304
       6     H     0.44148  0.44148  0.00000  0.11704
       7     H     0.45026  0.45026  0.00000  0.09949
       8     C     3.08764  3.08764  0.00000 -0.17528
       9     H     0.44167  0.44167  0.00000  0.11667
      10     H     0.45145  0.45145  0.00000  0.09709
      11     C     3.14718  3.14718  0.00000 -0.29435
      12     H     0.44729  0.44729  0.00000  0.10541
      13     H     0.45182  0.45182  0.00000  0.09635
      14     H     0.45297  0.45297  0.00000  0.09406
      15     H     0.44755  0.44755  0.00000  0.10490
      16     H     0.45567  0.45567  0.00000  0.08866

   Total alpha = 24.00000, Total beta = 24.00000, Total charge =  0.00000

*** Psi4 exiting successfully. Buy a developer a beer!
