  ==> Input File <==

--------------------------------------------------------------------------
set {
	reference rhf
	basis 6-31G*
}

set_num_threads( 4 )
memory 2 gb

molecule MOL {
0 1

O	 2.476939	 1.954322	 0.383228
C	 1.620383	 2.059329	 1.206662
C	 0.357050	 1.218044	 1.172538
C	 1.740481	 3.047762	 2.348474
C	 0.291004	 0.242674	 0.000989
H	 0.285024	 0.686506	 2.120519
H	 -0.494871	 1.896567	 1.157091
C	 -0.994322	 -0.586602	 0.000262
H	 1.154288	 -0.414323	 0.035992
H	 0.373276	 0.797055	 -0.928549
C	 -2.259874	 0.272531	 0.000494
H	 -1.004862	 -1.240012	 -0.870939
H	 -1.005220	 -1.241071	 0.870675
C	 -3.549786	 -0.549746	 -0.000374
H	 -2.250389	 0.926680	 -0.869574
H	 -2.250838	 0.925513	 0.871430
C	 -4.809590	 0.315458	 -0.000369
H	 -3.560515	 -1.202009	 -0.871156
H	 -3.561123	 -1.202955	 0.869711
H	 -4.844746	 0.956611	 -0.876632
H	 -5.706986	 -0.295590	 -0.001609
H	 -4.845960	 0.954827	 0.877144
H	 1.698517	 2.531187	 3.302941
H	 2.675548	 3.584636	 2.269408
H	 0.914729	 3.752969	 2.327263

	symmetry c1
}
set optking {
	frozen_dihedral = ("
		9 5 8 12
	")
}

ee = optimize('scf')
oeprop('DIPOLE', 'QUADRUPOLE', 'MULLIKEN_CHARGES')
f=open( 'psi4out.xyz', 'w' )
f.write( "25  " )
f.write( str(ee) + "\n" )
f.write( MOL.save_string_xyz() )
f.close()
--------------------------------------------------------------------------

    Molecular point group: c1
  Charge       = 0
  Multiplicity = 1
  Basis Set: 6-31G*
  Basis Set:
  @DF-RHF Final Energy:  -387.13316924851659
    Total Energy =                       -387.1331692485166514
    Molecular point group: c1
  Basis Set: 6-31G*
  Basis Set:
  Basis Set: 6-31G*
  Basis Set:
  @DF-RHF Final Energy:  -387.13380404370969
    Total Energy =                       -387.1338040437096879
  Basis Set: 6-31G*
  Basis Set:
  Basis Set: 6-31G*
  Basis Set:
  @DF-RHF Final Energy:  -387.13457672804486
    Total Energy =                       -387.1345767280450900
  Basis Set: 6-31G*
  Basis Set:
  Basis Set: 6-31G*
  Basis Set:
  @DF-RHF Final Energy:  -387.13448333062451
    Total Energy =                       -387.1344833306245619
  Basis Set: 6-31G*
  Basis Set:
  Basis Set: 6-31G*
  Basis Set:
  @DF-RHF Final Energy:  -387.13456660520495
    Total Energy =                       -387.1345666052056913
  Basis Set: 6-31G*
  Basis Set:
  Basis Set: 6-31G*
  Basis Set:
  @DF-RHF Final Energy:  -387.13463241111202
    Total Energy =                       -387.1346324111123067
  Basis Set: 6-31G*
  Basis Set:
  Charge       = 0
  Multiplicity = 1
  Basis Set: 6-31G*
  Basis Set:

    Orbital Energies (a.u.)
    -----------------------

    Doubly Occupied:

       1A    -20.550325     2A    -11.326185     3A    -11.231204
       4A    -11.228231     5A    -11.217478     6A    -11.217355
       7A    -11.216835     8A    -11.216244     9A    -11.210673
      10A     -1.395670    11A     -1.094725    12A     -1.055652
      13A     -1.014519    14A     -0.967899    15A     -0.898256
      16A     -0.816237    17A     -0.787178    18A     -0.730269
      19A     -0.658219    20A     -0.652101    21A     -0.636367
      22A     -0.621010    23A     -0.597287    24A     -0.581247
      25A     -0.567147    26A     -0.565940    27A     -0.542959
      28A     -0.528682    29A     -0.516904    30A     -0.493453
      31A     -0.487715    32A     -0.477188    33A     -0.462651
      34A     -0.458976    35A     -0.446509    36A     -0.400788

  @DF-RHF Final Energy:  -387.13463178246042

   => Energetics <=

    Nuclear Repulsion Energy =            444.9518536837907163
    One-Electron Energy =               -1406.4328109215998666
    Two-Electron Energy =                 574.3463254553496427
    DFT Exchange-Correlation Energy =       0.0000000000000000
    Empirical Dispersion Energy =           0.0000000000000000
    PCM Polarization Energy =               0.0000000000000000
    EFP Energy =                            0.0000000000000000
    Total Energy =                       -387.1346317824595644
    Molecular point group: c1
  Basis Set: 6-31G*
  Basis Set:

  -Total Gradient:
     Atom            X                  Y                   Z
    ------   -----------------  -----------------  -----------------
       1        0.000001584535    -0.000012957499     0.000015303267
       2       -0.000018715982     0.000046700817    -0.000025356592
       3        0.000024938794    -0.000033734643     0.000002715063
       4        0.000002930950     0.000002068779     0.000002330900
       5       -0.000230440754     0.000226516382    -0.002509029159
       6        0.000001655567     0.000003960644    -0.000005624795
       7       -0.000009768724    -0.000001901897    -0.000007794231
       8        0.001038990510    -0.001506628628     0.001560514791
       9        0.000001028002     0.000087796495     0.001841813783
      10        0.000037582901     0.000012744533     0.000001688212
      11        0.000052734059    -0.000021358958     0.000113067831
      12       -0.000952383347     0.001222953077    -0.000981433846
      13       -0.000020678077     0.000031412073     0.000022807772
      14        0.000020236059    -0.000016166360    -0.000062500956
      15        0.000030466658    -0.000006400621     0.000049929171
      16        0.000029626738    -0.000019009301     0.000016116748
      17       -0.000003556964    -0.000001167400    -0.000026433749
      18        0.000003416654    -0.000035244286    -0.000004212246
      19       -0.000013208700     0.000027885426    -0.000001421625
      20       -0.000009695979    -0.000001395419    -0.000003818977
      21       -0.000005978698     0.000000649791     0.000002033078
      22        0.000013267035     0.000001127805    -0.000008197137
      23        0.000002950566    -0.000002332667     0.000003903816
      24        0.000001462261     0.000000408756     0.000001857489
      25        0.000001555932    -0.000005926903     0.000001741392

  **** Optimization is complete! (in 7 steps) ****
    Final optimized geometry and variables:
    Molecular point group: c1

    Geometry (in Angstrom), charge = 0, multiplicity = 1:

    O            3.130527282460     0.956150885060    -0.177646706211
    C            2.281682384500     1.150610425216     0.637447188174
    C            0.948324261256     0.424072352432     0.610917102599
    C            2.481663045175     2.146937748987     1.761274310889
    C            0.812859740146    -0.568618270377    -0.542662880609
    H            0.825789397743    -0.081107101807     1.568647633797
    H            0.166858280612     1.179674319442     0.580031404303
    C           -0.468725734014    -1.408499691365    -0.498184514879
    H            1.669584729093    -1.232965758856    -0.514121102410
    H            0.872053290322    -0.031830482848    -1.484220002718
    C           -1.772824343610    -0.605114412707    -0.515401527235
    H           -0.466895725262    -2.066254236282    -1.364529764263
    H           -0.453798947737    -2.052190275230     0.379715985084
    C           -3.014822429841    -1.489671153813    -0.643859221514
    H           -1.749273794972     0.101402045325    -1.344200839710
    H           -1.859582414374    -0.010138283343     0.390960974005
    C           -4.318565448129    -0.692382193763    -0.655386145625
    H           -2.944202020126    -2.078561834235    -1.555686372693
    H           -3.035119857470    -2.202346560327     0.178060668848
    H           -4.343591838380     0.006103196287    -1.487089891358
    H           -5.179541562161    -1.347127732427    -0.747924270492
    H           -4.436379289225    -0.119183650988     0.260038198475
    H            2.386239418710     1.655541324942     2.725136731503
    H            3.461784083475     2.595990633565     1.680436508125
    H            1.723028226155     2.923021845229     1.718756368967

  Mulliken Charges: (a.u.)
   Center  Symbol    Alpha    Beta     Spin     Total
       1     O     4.26110  4.26110  0.00000 -0.52219
       2     C     2.73572  2.73572  0.00000  0.52856
       3     C     3.21290  3.21290  0.00000 -0.42580
       4     C     3.28649  3.28649  0.00000 -0.57298
       5     C     3.14900  3.14900  0.00000 -0.29801
       6     H     0.41078  0.41078  0.00000  0.17843
       7     H     0.40777  0.40777  0.00000  0.18446
       8     C     3.15561  3.15561  0.00000 -0.31121
       9     H     0.40908  0.40908  0.00000  0.18183
      10     H     0.41355  0.41355  0.00000  0.17291
      11     C     3.15427  3.15427  0.00000 -0.30853
      12     H     0.41891  0.41891  0.00000  0.16217
      13     H     0.42411  0.42411  0.00000  0.15178
      14     C     3.15101  3.15101  0.00000 -0.30202
      15     H     0.42354  0.42354  0.00000  0.15292
      16     H     0.42487  0.42487  0.00000  0.15027
      17     C     3.23925  3.23925  0.00000 -0.47849
      18     H     0.42204  0.42204  0.00000  0.15591
      19     H     0.42306  0.42306  0.00000  0.15389
      20     H     0.42146  0.42146  0.00000  0.15708
      21     H     0.41881  0.41881  0.00000  0.16238
      22     H     0.42258  0.42258  0.00000  0.15484
      23     H     0.40888  0.40888  0.00000  0.18224
      24     H     0.39651  0.39651  0.00000  0.20698
      25     H     0.40870  0.40870  0.00000  0.18259

   Total alpha = 36.00000, Total beta = 36.00000, Total charge =  0.00000
