  ==> Input File <==

--------------------------------------------------------------------------
set {
	reference rhf
	basis 6-31G*
}

set_num_threads( 4 )
memory 2 gb

molecule MOL {
0 1

O	 2.630153	 1.717584	 -0.454181
C	 2.110077	 1.302659	 -1.444190
C	 0.833497	 0.481839	 -1.404975
C	 2.696123	 1.571103	 -2.815190
C	 0.291004	 0.242674	 0.000989
H	 0.092737	 0.988172	 -2.022462
H	 1.029954	 -0.464130	 -1.907915
C	 -0.994322	 -0.586602	 0.000262
H	 0.112696	 1.199690	 0.481047
H	 1.050829	 -0.254447	 0.595702
C	 -2.259874	 0.272531	 0.000494
H	 -1.004862	 -1.240012	 -0.870939
H	 -1.005220	 -1.241071	 0.870675
C	 -3.549786	 -0.549746	 -0.000374
H	 -2.250389	 0.926680	 -0.869574
H	 -2.250838	 0.925513	 0.871430
C	 -4.809590	 0.315458	 -0.000369
H	 -3.560515	 -1.202009	 -0.871156
H	 -3.561123	 -1.202955	 0.869711
H	 -4.844746	 0.956611	 -0.876632
H	 -5.706986	 -0.295590	 -0.001609
H	 -4.845960	 0.954827	 0.877144
H	 1.979906	 2.100959	 -3.436402
H	 3.596229	 2.162010	 -2.717857
H	 2.928644	 0.636474	 -3.317223

	symmetry c1
}
set optking {
	frozen_dihedral = ("
		9 5 8 12
	")
}

ee = optimize('scf')
oeprop('DIPOLE', 'QUADRUPOLE', 'MULLIKEN_CHARGES')
f=open( 'psi4out.xyz', 'w' )
f.write( "25  " )
f.write( str(ee) + "\n" )
f.write( MOL.save_string_xyz() )
f.close()
--------------------------------------------------------------------------

    Molecular point group: c1
  Charge       = 0
  Multiplicity = 1
  Basis Set: 6-31G*
  Basis Set:
  @DF-RHF Final Energy:  -387.13268437980571
    Total Energy =                       -387.1326843798057098
    Molecular point group: c1
  Basis Set: 6-31G*
  Basis Set:
  Basis Set: 6-31G*
  Basis Set:
  @DF-RHF Final Energy:  -387.13289059233301
    Total Energy =                       -387.1328905923330694
  Basis Set: 6-31G*
  Basis Set:
  Basis Set: 6-31G*
  Basis Set:
  @DF-RHF Final Energy:  -387.13250072169302
    Total Energy =                       -387.1325007216928498
  Basis Set: 6-31G*
  Basis Set:
  Basis Set: 6-31G*
  Basis Set:
  @DF-RHF Final Energy:  -387.13295961313236
    Total Energy =                       -387.1329596131324706
  Basis Set: 6-31G*
  Basis Set:
  Basis Set: 6-31G*
  Basis Set:
  @DF-RHF Final Energy:  -387.13297125938959
    Total Energy =                       -387.1329712593899330
  Basis Set: 6-31G*
  Basis Set:
  Basis Set: 6-31G*
  Basis Set:
  @DF-RHF Final Energy:  -387.13297651878543
    Total Energy =                       -387.1329765187849716
  Basis Set: 6-31G*
  Basis Set:
  Basis Set: 6-31G*
  Basis Set:
  @DF-RHF Final Energy:  -387.13298053984261
    Total Energy =                       -387.1329805398422650
  Basis Set: 6-31G*
  Basis Set:
  Charge       = 0
  Multiplicity = 1
  Basis Set: 6-31G*
  Basis Set:

    Orbital Energies (a.u.)
    -----------------------

    Doubly Occupied:

       1A    -20.550476     2A    -11.326137     3A    -11.231840
       4A    -11.228326     5A    -11.217119     6A    -11.216647
       7A    -11.216527     8A    -11.215452     9A    -11.209833
      10A     -1.395701    11A     -1.093772    12A     -1.055897
      13A     -1.014134    14A     -0.968434    15A     -0.893542
      16A     -0.815622    17A     -0.789883    18A     -0.732124
      19A     -0.658856    20A     -0.644804    21A     -0.641051
      22A     -0.620921    23A     -0.597993    24A     -0.576261
      25A     -0.571512    26A     -0.565755    27A     -0.540738
      28A     -0.524634    29A     -0.517543    30A     -0.492213
      31A     -0.485081    32A     -0.478722    33A     -0.464271
      34A     -0.460291    35A     -0.445646    36A     -0.400096

  @DF-RHF Final Energy:  -387.13298069617679

   => Energetics <=

    Nuclear Repulsion Energy =            443.1573280591168214
    One-Electron Energy =               -1402.8649143688444383
    Two-Electron Energy =                 572.5746056135508297
    DFT Exchange-Correlation Energy =       0.0000000000000000
    Empirical Dispersion Energy =           0.0000000000000000
    PCM Polarization Energy =               0.0000000000000000
    EFP Energy =                            0.0000000000000000
    Total Energy =                       -387.1329806961767872
    Molecular point group: c1
  Basis Set: 6-31G*
  Basis Set:

  -Total Gradient:
     Atom            X                  Y                   Z
    ------   -----------------  -----------------  -----------------
       1       -0.000002838108    -0.000000190819     0.000001382165
       2       -0.000004903531     0.000008227032     0.000002178691
       3       -0.000003451939    -0.000000221295     0.000003983068
       4        0.000009013076    -0.000020010857     0.000000871789
       5        0.000684244916    -0.001016242324     0.003125333598
       6        0.000000465526    -0.000000806987    -0.000003453073
       7        0.000003248750    -0.000001008952     0.000000778195
       8        0.001595449856    -0.002537680415     0.001436014347
       9       -0.000821360385     0.001263178431    -0.002850078834
      10       -0.000000014598     0.000001503491     0.000000391543
      11       -0.000000569212    -0.000001121173    -0.000010320161
      12       -0.001458805574     0.002292060883    -0.001709226424
      13        0.000007311928    -0.000000869969    -0.000000206859
      14       -0.000000187421    -0.000001475099    -0.000002600603
      15       -0.000002234666     0.000004750952    -0.000001629868
      16       -0.000002500858    -0.000004136156    -0.000000098706
      17        0.000002991329     0.000003072466     0.000006676335
      18        0.000004531942    -0.000000978447    -0.000000819201
      19       -0.000002465460     0.000001017960     0.000000044122
      20        0.000001712022    -0.000001842250    -0.000000252401
      21        0.000002352670    -0.000001130923     0.000000225992
      22       -0.000002490349     0.000002596024     0.000000915843
      23       -0.000003056762     0.000006082815     0.000003488358
      24       -0.000002663631     0.000001410633     0.000002007068
      25       -0.000003779537     0.000003814978    -0.000005604986

  **** Optimization is complete! (in 8 steps) ****
    Final optimized geometry and variables:
    Molecular point group: c1

    Geometry (in Angstrom), charge = 0, multiplicity = 1:

    O            2.949979658384     1.219555764443     0.213761347060
    C            2.436437460197     0.774773933208    -0.766779563035
    C            1.187222231165    -0.085763993725    -0.707301095119
    C            3.005061424530     1.042352230706    -2.145339558270
    C            0.668779508059    -0.332907479457     0.709135076805
    H            0.425763419629     0.392137689075    -1.322105691244
    H            1.408952163991    -1.029069203187    -1.204307807994
    C           -0.637238627865    -1.147309718761     0.726769044766
    H            0.509504565847     0.630947202790     1.180557100151
    H            1.441354764573    -0.834028439929     1.280614021622
    C           -1.895632870620    -0.273258155062     0.704509676734
    H           -0.669153018689    -1.810495481031    -0.135818710445
    H           -0.665295601253    -1.780457562559     1.609166333939
    C           -3.192908491948    -1.082038846931     0.657298100118
    H           -1.861927942840     0.396585770954    -0.153803027500
    H           -1.901864233865     0.364976396916     1.586049903367
    C           -4.444716755659    -0.205256471325     0.653328771696
    H           -3.192163804640    -1.713615933869    -0.228741522349
    H           -3.227280393701    -1.755698440942     1.510960211803
    H           -4.456972670512     0.457181368532    -0.207739750595
    H           -5.347235571116    -0.807658299061     0.619459786940
    H           -4.493055568457     0.413035857023     1.545190965550
    H            2.267823126454     1.538408500366    -2.769878669616
    H            3.885194371875     1.664684466125    -2.062307596846
    H            3.266311101916     0.108733819789    -2.634976835716

  Mulliken Charges: (a.u.)
   Center  Symbol    Alpha    Beta     Spin     Total
       1     O     4.26113  4.26113  0.00000 -0.52226
       2     C     2.73587  2.73587  0.00000  0.52826
       3     C     3.21191  3.21191  0.00000 -0.42382
       4     C     3.28669  3.28669  0.00000 -0.57338
       5     C     3.15104  3.15104  0.00000 -0.30209
       6     H     0.40977  0.40977  0.00000  0.18047
       7     H     0.40983  0.40983  0.00000  0.18034
       8     C     3.15757  3.15757  0.00000 -0.31515
       9     H     0.40991  0.40991  0.00000  0.18019
      10     H     0.41023  0.41023  0.00000  0.17955
      11     C     3.15221  3.15221  0.00000 -0.30443
      12     H     0.42487  0.42487  0.00000  0.15026
      13     H     0.41789  0.41789  0.00000  0.16423
      14     C     3.15160  3.15160  0.00000 -0.30320
      15     H     0.42633  0.42633  0.00000  0.14734
      16     H     0.42119  0.42119  0.00000  0.15761
      17     C     3.23921  3.23921  0.00000 -0.47842
      18     H     0.42382  0.42382  0.00000  0.15235
      19     H     0.42239  0.42239  0.00000  0.15522
      20     H     0.42236  0.42236  0.00000  0.15528
      21     H     0.41916  0.41916  0.00000  0.16169
      22     H     0.42101  0.42101  0.00000  0.15798
      23     H     0.40889  0.40889  0.00000  0.18223
      24     H     0.39648  0.39648  0.00000  0.20704
      25     H     0.40865  0.40865  0.00000  0.18270

   Total alpha = 36.00000, Total beta = 36.00000, Total charge =  0.00000
