  ==> Input File <==

--------------------------------------------------------------------------
set {
	reference rhf
	basis cc-pvtz
}

set_num_threads( 4 )
memory 2 gb

molecule MOL {
0 1

H	 -3.162190	 0.493205	 -0.000107
C	 -2.363908	 -0.234727	 0.000005
O	 -1.158738	 0.454634	 -0.000087
H	 -2.464314	 -0.863616	 -0.882153
H	 -2.464327	 -0.863359	 0.882345
C	 -0.028611	 -0.359694	 0.000037
C	 1.197313	 0.487798	 0.274369
H	 0.069949	 -0.862584	 -0.962265
H	 -0.126826	 -1.135407	 0.759817
C	 2.481427	 -0.333864	 0.290941
H	 1.258742	 1.261666	 -0.482784
H	 1.063549	 0.990962	 1.225623
H	 2.647473	 -0.827186	 -0.660978
H	 3.340281	 0.295655	 0.488667
H	 2.451101	 -1.099493	 1.059030

	symmetry c1
}
set optking {
	frozen_dihedral = ("
		8 6 3 2
	")
}

ee = optimize('scf')
oeprop('DIPOLE', 'QUADRUPOLE', 'MULLIKEN_CHARGES')
f=open( 'psi4out.xyz', 'w' )
f.write( "15  " )
f.write( str(ee) + "\n" )
f.write( MOL.save_string_xyz() )
f.close()
--------------------------------------------------------------------------

    Molecular point group: c1
  Charge       = 0
  Multiplicity = 1
  Basis Set: CC-PVTZ
  Basis Set:
  @DF-RHF Final Energy:  -232.22791260087834
    Total Energy =                       -232.2279126008783123
    Molecular point group: c1
  Basis Set: CC-PVTZ
  Basis Set:
  Basis Set: CC-PVTZ
  Basis Set:
  @DF-RHF Final Energy:  -232.22792982611500
    Total Energy =                       -232.2279298261149165
  Basis Set: CC-PVTZ
  Basis Set:
  Charge       = 0
  Multiplicity = 1
  Basis Set: CC-PVTZ
  Basis Set:

    Orbital Energies (a.u.)
    -----------------------

    Doubly Occupied:

       1A    -20.547368     2A    -11.264390     3A    -11.261875
       4A    -11.212625     5A    -11.210671     6A     -1.381514
       7A     -1.058363     8A     -0.956225     9A     -0.877334
      10A     -0.809251    11A     -0.677166    12A     -0.655865
      13A     -0.632356    14A     -0.608157    15A     -0.565295
      16A     -0.541239    17A     -0.503569    18A     -0.490392
      19A     -0.478646    20A     -0.462726    21A     -0.416289

  @DF-RHF Final Energy:  -232.22793301039201

   => Energetics <=

    Nuclear Repulsion Energy =            189.9941885607497625
    One-Electron Energy =                -691.2216136978511258
    Two-Electron Energy =                 268.9994921267093559
    DFT Exchange-Correlation Energy =       0.0000000000000000
    Empirical Dispersion Energy =           0.0000000000000000
    PCM Polarization Energy =               0.0000000000000000
    EFP Energy =                            0.0000000000000000
    Total Energy =                       -232.2279330103920074
    Molecular point group: c1
  Basis Set: CC-PVTZ
  Basis Set:

  -Total Gradient:
     Atom            X                  Y                   Z
    ------   -----------------  -----------------  -----------------
       1        0.000010214564     0.000008616258    -0.000005466213
       2       -0.000041692244    -0.000025988987     0.001244607258
       3        0.000274563173     0.000297241835    -0.001829286787
       4       -0.000005455960     0.000003605321    -0.000004276855
       5       -0.000007169086     0.000007096982    -0.000004403861
       6       -0.001062008158    -0.001458818841     0.001106620717
       7       -0.000051937123    -0.000033901826    -0.000002340789
       8        0.000867912117     0.001133062282    -0.000566048517
       9       -0.000004933759     0.000041980019     0.000034359117
      10        0.000003056968    -0.000000775584     0.000023068768
      11        0.000006556569    -0.000002488675     0.000003278386
      12        0.000017260183     0.000023265012     0.000013410153
      13       -0.000004956579     0.000008224398    -0.000005998466
      14       -0.000002292148     0.000004864494    -0.000005205910
      15        0.000000881487    -0.000005982689    -0.000002317002

  **** Optimization is complete! (in 3 steps) ****
    Final optimized geometry and variables:
    Molecular point group: c1

    Geometry (in Angstrom), charge = 0, multiplicity = 1:

    H           -3.155119017117     0.509017385723    -0.138550344456
    C           -2.360353627886    -0.222662009479    -0.119311390768
    O           -1.151958391444     0.460978623649    -0.110152215398
    H           -2.453711178793    -0.861148820556    -0.995684035648
    H           -2.474825285396    -0.840655057050     0.768552564822
    C           -0.022787031534    -0.355201171088    -0.098428463160
    C            1.203228957088     0.495288525648     0.170109104636
    H            0.082525499194    -0.859678532478    -1.059257186274
    H           -0.120951384267    -1.123668535994     0.667751240991
    C            2.490434567803    -0.321820645973     0.169771974479
    H            1.254978209388     1.273025186855    -0.583925972063
    H            1.077054382309     0.993769055612     1.124976160869
    H            2.650024488696    -0.807340827898    -0.787262368176
    H            3.348877797432     0.309182642623     0.365002150292
    H            2.469390871159    -1.093502209887     0.932278739991

  Mulliken Charges: (a.u.)
   Center  Symbol    Alpha    Beta     Spin     Total
       1     H     0.44721  0.44721  0.00000  0.10558
       2     C     3.03330  3.03330  0.00000 -0.06660
       3     O     4.17200  4.17200  0.00000 -0.34400
       4     H     0.47258  0.47258  0.00000  0.05484
       5     H     0.47149  0.47149  0.00000  0.05702
       6     C     2.95627  2.95627  0.00000  0.08747
       7     C     3.08026  3.08026  0.00000 -0.16053
       8     H     0.47344  0.47344  0.00000  0.05312
       9     H     0.47713  0.47713  0.00000  0.04575
      10     C     3.15582  3.15582  0.00000 -0.31164
      11     H     0.45070  0.45070  0.00000  0.09860
      12     H     0.45177  0.45177  0.00000  0.09645
      13     H     0.45573  0.45573  0.00000  0.08855
      14     H     0.44628  0.44628  0.00000  0.10743
      15     H     0.45602  0.45602  0.00000  0.08795

   Total alpha = 21.00000, Total beta = 21.00000, Total charge =  0.00000
