                              Psi4 1.0.54 Driver

  ==> Input File <==

--------------------------------------------------------------------------
set {
	reference rhf
	basis cc-pvtz
}

set_num_threads( 4 )
memory 2 gb

molecule MOL {
0 1

O	 2.672578	 1.656504	 -0.457874
C	 2.240827	 1.095473	 -1.411260
C	 0.962725	 0.283047	 -1.363813
C	 2.945596	 1.156276	 -2.747609
C	 0.288398	 0.247429	 0.000314
H	 0.289476	 0.687775	 -2.116142
H	 1.201363	 -0.722719	 -1.702182
C	 -0.993089	 -0.581367	 -0.000217
H	 0.071259	 1.261452	 0.316100
H	 0.984053	 -0.150185	 0.730452
C	 -2.258482	 0.271340	 0.000669
H	 -1.002280	 -1.233920	 -0.870484
H	 -1.002061	 -1.235367	 0.868958
C	 -3.544441	 -0.550271	 -0.000253
H	 -2.250545	 0.925250	 -0.867923
H	 -2.250598	 0.923423	 0.870642
C	 -4.804551	 0.308747	 0.000556
H	 -3.553737	 -1.201524	 -0.870151
H	 -3.553831	 -1.203282	 0.868313
H	 -4.842050	 0.949078	 -0.874436
H	 -5.698404	 -0.304480	 -0.000254
H	 -4.842277	 0.947103	 0.876982
H	 2.287621	 1.579465	 -3.498626
H	 3.836983	 1.758683	 -2.664378
H	 3.209560	 0.157277	 -3.076798

	symmetry c1
}
set optking {
	frozen_dihedral = ("
		9 5 8 12
	")
}

ee,wfn = optimize('scf', return_wfn=True)
oeprop( wfn, 'DIPOLE', 'QUADRUPOLE', 'MULLIKEN_CHARGES')
f=open( 'psi4out.xyz', 'w' )
f.write( "25  " )
f.write( str(ee) + "\n" )
f.write( MOL.save_string_xyz() )
f.close()
--------------------------------------------------------------------------

    Molecular point group: c1
  Charge       = 0
  Multiplicity = 1
  Basis Set: CC-PVTZ
  Basis Set:
  @DF-RHF Final Energy:  -387.26960016329872
    Total Energy =                       -387.2696001632988327
    Molecular point group: c1
  Basis Set: CC-PVTZ
  Basis Set:
  Basis Set: CC-PVTZ
  Basis Set:
  @DF-RHF Final Energy:  -387.26987548413331
    Total Energy =                       -387.2698754841333084
  Basis Set: CC-PVTZ
  Basis Set:
  Basis Set: CC-PVTZ
  Basis Set:
  @DF-RHF Final Energy:  -387.26967616214432
    Total Energy =                       -387.2696761621444921
  Basis Set: CC-PVTZ
  Basis Set:
  Basis Set: CC-PVTZ
  Basis Set:
  @DF-RHF Final Energy:  -387.26995890893056
    Total Energy =                       -387.2699589089306755
  Basis Set: CC-PVTZ
  Basis Set:
  Basis Set: CC-PVTZ
  Basis Set:
  @DF-RHF Final Energy:  -387.26996372464811
    Total Energy =                       -387.2699637246482780
  Basis Set: CC-PVTZ
  Basis Set:
  Charge       = 0
  Multiplicity = 1
  Basis Set: CC-PVTZ
  Basis Set:

    Orbital Energies (a.u.)
    -----------------------

    Doubly Occupied:

       1A    -20.538926     2A    -11.320315     3A    -11.230429
       4A    -11.226578     5A    -11.215161     6A    -11.214608
       7A    -11.214442     8A    -11.213270     9A    -11.207690
      10A     -1.398856    11A     -1.094729    12A     -1.057346
      13A     -1.014992    14A     -0.969638    15A     -0.893305
      16A     -0.816356    17A     -0.791079    18A     -0.733174
      19A     -0.660906    20A     -0.647237    21A     -0.641447
      22A     -0.623607    23A     -0.599090    24A     -0.577445
      25A     -0.570985    26A     -0.566800    27A     -0.541649
      28A     -0.523962    29A     -0.518612    30A     -0.495151
      31A     -0.486260    32A     -0.479131    33A     -0.464537
      34A     -0.461259    35A     -0.447031    36A     -0.401722

  @DF-RHF Final Energy:  -387.26996403355952

   => Energetics <=

    Nuclear Repulsion Energy =            442.8519127792176278
    One-Electron Energy =               -1402.5283083271028772
    Two-Electron Energy =                 572.4064315143256181
    DFT Exchange-Correlation Energy =       0.0000000000000000
    Empirical Dispersion Energy =           0.0000000000000000
    PCM Polarization Energy =               0.0000000000000000
    EFP Energy =                            0.0000000000000000
    Total Energy =                       -387.2699640335596314
    Molecular point group: c1
  Basis Set: CC-PVTZ
  Basis Set:

  -Total Gradient:
     Atom            X                  Y                   Z
    ------   -----------------  -----------------  -----------------
       1        0.000008761289     0.000010860166    -0.000000714543
       2       -0.000001600709    -0.000009419540    -0.000004685092
       3       -0.000019191368     0.000017280322     0.000002975095
       4        0.000022176582    -0.000018384385     0.000001989368
       5        0.000305603167    -0.000425494547     0.003143486670
       6        0.000002679177    -0.000019768122     0.000006186152
       7        0.000004223578    -0.000000672073    -0.000005692407
       8        0.001534310006    -0.002455630185     0.001272936412
       9       -0.000513172294     0.000750384352    -0.002813173993
      10       -0.000013288769    -0.000002695058    -0.000017081136
      11        0.000019786539    -0.000004046446    -0.000012586113
      12       -0.001321622171     0.002123023760    -0.001565938458
      13        0.000003519253     0.000013364788    -0.000008186832
      14       -0.000002105251     0.000005301303    -0.000001555233
      15        0.000002774739    -0.000007378366     0.000004415443
      16        0.000002553089     0.000012831171    -0.000009407417
      17       -0.000015068155    -0.000011860805     0.000012012507
      18       -0.000002778221     0.000006027795     0.000004049589
      19       -0.000006936393    -0.000001013863    -0.000010790323
      20        0.000003538566    -0.000009885251     0.000005333201
      21       -0.000003756764     0.000009488621     0.000004248176
      22        0.000000213830    -0.000000396839    -0.000005906447
      23        0.000002101155     0.000007184372     0.000009986616
      24       -0.000004158358    -0.000000429534    -0.000002302336
      25       -0.000008562511     0.000011328366    -0.000009598899

  **** Optimization is complete! (in 6 steps) ****
    Final optimized geometry and variables:
    Molecular point group: c1

    Geometry (in Angstrom), charge = 0, multiplicity = 1:

    O            2.935971390996     1.246028772812     0.180197973466
    C            2.505452290474     0.658080962498    -0.757480914119
    C            1.251528348297    -0.188781353041    -0.677441345520
    C            3.188294750697     0.716787812383    -2.105422431128
    C            0.605405282746    -0.233385159998     0.702919416871
    H            0.552327709837     0.192449890734    -1.418587402332
    H            1.510157604128    -1.190025817570    -1.013638254577
    C           -0.702186774364    -1.046153329791     0.718843548138
    H            0.410165436167     0.785899656926     1.012006978863
    H            1.318579415217    -0.637285350300     1.409094118020
    C           -1.955795003160    -0.171812102137     0.693875722856
    H           -0.736204153931    -1.706876073518    -0.143267150319
    H           -0.733950268745    -1.680794467301     1.597686794905
    C           -3.254249795982    -0.971595327131     0.650612732330
    H           -1.916387759043     0.492452478736    -0.167158375931
    H           -1.958891788340     0.470963337924     1.570411892183
    C           -4.500685181568    -0.092786841842     0.641495503614
    H           -3.255835916396    -1.607391557332    -0.230765741545
    H           -3.291553644435    -1.639865842619     1.506688122826
    H           -4.510432920957     0.563878063374    -0.222207457747
    H           -5.403749927147    -0.691543215625     0.611156254620
    H           -4.546672911142     0.530066068249     1.528553798237
    H            2.506510799936     1.106074516927    -2.853533490070
    H            4.061705504802     1.347774210151    -2.046388729561
    H            3.478390953910    -0.279297481824    -2.421105067915

  Mulliken Charges: (a.u.)
   Center  Symbol    Alpha    Beta     Spin     Total
       1     O     4.17077  4.17077  0.00000 -0.34155
       2     C     2.86337  2.86337  0.00000  0.27326
       3     C     3.10995  3.10995  0.00000 -0.21989
       4     C     3.15092  3.15092  0.00000 -0.30184
       5     C     3.09486  3.09486  0.00000 -0.18971
       6     H     0.44542  0.44542  0.00000  0.10916
       7     H     0.44419  0.44419  0.00000  0.11162
       8     C     3.10071  3.10071  0.00000 -0.20141
       9     H     0.44579  0.44579  0.00000  0.10843
      10     H     0.43955  0.43955  0.00000  0.12089
      11     C     3.08475  3.08475  0.00000 -0.16950
      12     H     0.45728  0.45728  0.00000  0.08544
      13     H     0.44463  0.44463  0.00000  0.11073
      14     C     3.08554  3.08554  0.00000 -0.17107
      15     H     0.45659  0.45659  0.00000  0.08682
      16     H     0.45194  0.45194  0.00000  0.09611
      17     C     3.14975  3.14975  0.00000 -0.29951
      18     H     0.45498  0.45498  0.00000  0.09005
      19     H     0.45417  0.45417  0.00000  0.09165
      20     H     0.45565  0.45565  0.00000  0.08870
      21     H     0.44836  0.44836  0.00000  0.10328
      22     H     0.45443  0.45443  0.00000  0.09113
      23     H     0.45066  0.45066  0.00000  0.09867
      24     H     0.43539  0.43539  0.00000  0.12923
      25     H     0.45035  0.45035  0.00000  0.09930

   Total alpha = 36.00000, Total beta = 36.00000, Total charge =  0.00000

*** Psi4 exiting successfully. Buy a developer a beer!
