  ==> Input File <==

--------------------------------------------------------------------------
set {
	reference rhf
	basis 6-31G*
}

set_num_threads( 4 )
memory 2 gb

molecule MOL {
0 1

O	 -0.988096	 -1.408613	 0.050699
C	 -0.676749	 -0.249230	 -0.009274
C	 -1.746085	 0.827156	 -0.009539
N	 0.623947	 0.147590	 -0.102813
H	 -1.701500	 1.431508	 -0.908902
H	 -2.703425	 0.330732	 0.036390
H	 -1.647323	 1.487769	 0.845106
C	 0.906131	 1.534658	 -0.416329
C	 1.739030	 -0.761003	 -0.255436
H	 1.768255	 1.865309	 0.152380
H	 0.054847	 2.140629	 -0.159318
H	 1.123455	 1.664248	 -1.474345
H	 2.612750	 -0.332855	 0.221366
H	 1.543866	 -1.711614	 0.214867
H	 1.980218	 -0.935965	 -1.302351

	symmetry c1
}
set optking {
	frozen_dihedral = ("
		8 4 2 3
	")
}

ee = optimize('scf')
oeprop('DIPOLE', 'QUADRUPOLE', 'MULLIKEN_CHARGES')
f=open( 'psi4out.xyz', 'w' )
f.write( "15  " )
f.write( str(ee) + "\n" )
f.write( MOL.save_string_xyz() )
f.close()
--------------------------------------------------------------------------

    Molecular point group: c1
  Charge       = 0
  Multiplicity = 1
  Basis Set: 6-31G*
  Basis Set:
  @DF-RHF Final Energy:  -286.02508840744053
    Total Energy =                       -286.0250884074404212
    Molecular point group: c1
  Basis Set: 6-31G*
  Basis Set:
  Basis Set: 6-31G*
  Basis Set:
  @DF-RHF Final Energy:  -286.02636138453641
    Total Energy =                       -286.0263613845368127
  Basis Set: 6-31G*
  Basis Set:
  Basis Set: 6-31G*
  Basis Set:
  @DF-RHF Final Energy:  -286.02955575590283
    Total Energy =                       -286.0295557559027202
  Basis Set: 6-31G*
  Basis Set:
  Basis Set: 6-31G*
  Basis Set:
  @DF-RHF Final Energy:  -286.02971979516917
    Total Energy =                       -286.0297197951691714
  Basis Set: 6-31G*
  Basis Set:
  @DF-RHF Final Energy:  -286.02964924277421
    Total Energy =                       -286.0296492427741555
  @DF-RHF Final Energy:  -286.02978086953550
    Total Energy =                       -286.0297808695355570
  Basis Set: 6-31G*
  Basis Set:
  @DF-RHF Final Energy:  -286.02979027912363
    Total Energy =                       -286.0297902791235174
  Basis Set: 6-31G*
  Basis Set:
  Basis Set: 6-31G*
  Basis Set:
  @DF-RHF Final Energy:  -286.02980600354812
    Total Energy =                       -286.0298060035484013
  Basis Set: 6-31G*
  Basis Set:
  Basis Set: 6-31G*
  Basis Set:
  @DF-RHF Final Energy:  -286.02980929521584
    Total Energy =                       -286.0298092952157276
  Basis Set: 6-31G*
  Basis Set:
  Charge       = 0
  Multiplicity = 1
  Basis Set: 6-31G*
  Basis Set:

    Orbital Energies (a.u.)
    -----------------------

    Doubly Occupied:

       1A    -20.513607     2A    -15.584150     3A    -11.341708
       4A    -11.266499     5A    -11.247782     6A    -11.228281
       7A     -1.383760     8A     -1.243798     9A     -1.014207
      10A     -0.972823    11A     -0.919512    12A     -0.738063
      13A     -0.681115    14A     -0.659308    15A     -0.651340
      16A     -0.589411    17A     -0.575970    18A     -0.567264
      19A     -0.561470    20A     -0.547051    21A     -0.529688
      22A     -0.503748    23A     -0.409768    24A     -0.366109

  @DF-RHF Final Energy:  -286.02980948789718

   => Energetics <=

    Nuclear Repulsion Energy =            252.3433386688844564
    One-Electron Energy =                -888.5534349763429418
    Two-Electron Energy =                 350.1802868195609335
    DFT Exchange-Correlation Energy =       0.0000000000000000
    Empirical Dispersion Energy =           0.0000000000000000
    PCM Polarization Energy =               0.0000000000000000
    EFP Energy =                            0.0000000000000000
    Total Energy =                       -286.0298094878975235
    Molecular point group: c1
  Basis Set: 6-31G*
  Basis Set:

  -Total Gradient:
     Atom            X                  Y                   Z
    ------   -----------------  -----------------  -----------------
       1        0.000004077883     0.000002929365     0.000002801929
       2       -0.000003026220    -0.000003363917     0.000267704386
       3        0.000006589807     0.000001699421    -0.000079601765
       4       -0.000001661983    -0.000016308063    -0.000320267302
       5        0.000009729461    -0.000002321242    -0.000012803393
       6        0.000009311963    -0.000008113654    -0.000005816526
       7       -0.000013578157     0.000005012840    -0.000009013216
       8       -0.000005669321     0.000000556217     0.000162605893
       9       -0.000014536423    -0.000004240870     0.000010782837
      10        0.000004694527     0.000010839046     0.000001829822
      11        0.000001429364     0.000009050543    -0.000010160944
      12        0.000006151000     0.000003864093    -0.000005455230
      13        0.000004624281    -0.000002206022     0.000000848562
      14       -0.000002686801    -0.000003948185    -0.000002668039
      15       -0.000005449379     0.000006550429    -0.000000787015

  **** Optimization is complete! (in 10 steps) ****
    Final optimized geometry and variables:
    Molecular point group: c1

    Geometry (in Angstrom), charge = 0, multiplicity = 1:

    O           -0.909032455569    -1.447092952297     0.220587628539
    C           -0.657382101672    -0.276499141418     0.113680758745
    C           -1.778383185366     0.746073489981     0.122212437510
    N            0.620523960977     0.182629675580     0.001141388402
    H           -1.806807468917     1.314963838020    -0.800842179274
    H           -2.706140755165     0.205837343449     0.233584467945
    H           -1.673361759360     1.444640377983     0.945134244239
    C            0.971299436044     1.549138451713    -0.316455160905
    C            1.701048286218    -0.776900150998    -0.112335225291
    H            1.889016845337     1.809363609857     0.197998847748
    H            0.209286308434     2.240629875201     0.005632208330
    H            1.134619647193     1.687353021946    -1.383617695831
    H            2.542049990529    -0.450307026487     0.489923523450
    H            1.364491636715    -1.737923328455     0.235391226226
    H            2.035126504226    -0.871713583178    -1.143155440301

  Mulliken Charges: (a.u.)
   Center  Symbol    Alpha    Beta     Spin     Total
       1     O     4.30510  4.30510  0.00000 -0.61019
       2     C     2.62316  2.62316  0.00000  0.75368
       3     C     3.29884  3.29884  0.00000 -0.59769
       4     N     3.82411  3.82411  0.00000 -0.64822
       5     H     0.40786  0.40786  0.00000  0.18427
       6     H     0.39036  0.39036  0.00000  0.21928
       7     H     0.40664  0.40664  0.00000  0.18673
       8     C     3.14143  3.14143  0.00000 -0.28285
       9     C     3.14553  3.14553  0.00000 -0.29106
      10     H     0.41086  0.41086  0.00000  0.17827
      11     H     0.40708  0.40708  0.00000  0.18583
      12     H     0.41643  0.41643  0.00000  0.16714
      13     H     0.41887  0.41887  0.00000  0.16226
      14     H     0.38379  0.38379  0.00000  0.23242
      15     H     0.41993  0.41993  0.00000  0.16013

   Total alpha = 24.00000, Total beta = 24.00000, Total charge =  0.00000
