                              Psi4 1.0.54 Driver

  ==> Input File <==

--------------------------------------------------------------------------
set {
	reference rhf
	basis cc-pvtz
}

set_num_threads( 4 )
memory 2 gb

molecule MOL {
0 1

O	 -0.107439	 0.851462	 1.403520
C	 -0.348997	 -0.103208	 0.747673
C	 -1.693556	 -0.765722	 0.653388
O	 0.550743	 -0.719877	 0.000412
H	 -2.026348	 -0.766543	 -0.376493
H	 -2.400577	 -0.237902	 1.272307
H	 -1.613389	 -1.796437	 0.973754
C	 1.863204	 -0.194033	 0.000410
H	 2.031502	 0.409177	 -0.879273
H	 2.524488	 -1.045142	 0.000793
H	 2.031291	 0.409823	 0.879686

	symmetry c1
}
set optking {
	frozen_dihedral = ("
		2 4 8 9
	")
}

ee,wfn = optimize('scf', return_wfn=True)
oeprop( wfn, 'DIPOLE', 'QUADRUPOLE', 'MULLIKEN_CHARGES')
f=open( 'psi4out.xyz', 'w' )
f.write( "11  " )
f.write( str(ee) + "\n" )
f.write( MOL.save_string_xyz() )
f.close()
--------------------------------------------------------------------------

    Molecular point group: c1
  Charge       = 0
  Multiplicity = 1
  Basis Set: CC-PVTZ
  Basis Set:
  @DF-RHF Final Energy:  -266.93721849721840
    Total Energy =                       -266.9372184972183959
    Molecular point group: c1
  Basis Set: CC-PVTZ
  Basis Set:
  Basis Set: CC-PVTZ
  Basis Set:
  @DF-RHF Final Energy:  -266.93741480438132
    Total Energy =                       -266.9374148043810919
  Basis Set: CC-PVTZ
  Basis Set:
  Basis Set: CC-PVTZ
  Basis Set:
  @DF-RHF Final Energy:  -266.93759059613467
    Total Energy =                       -266.9375905961347257
  Basis Set: CC-PVTZ
  Basis Set:
  Basis Set: CC-PVTZ
  Basis Set:
  @DF-RHF Final Energy:  -266.93754860231275
    Total Energy =                       -266.9375486023126882
  Basis Set: CC-PVTZ
  Basis Set:
  Basis Set: CC-PVTZ
  Basis Set:
  @DF-RHF Final Energy:  -266.93768297073507
    Total Energy =                       -266.9376829707351249
  Basis Set: CC-PVTZ
  Basis Set:
  Charge       = 0
  Multiplicity = 1
  Basis Set: CC-PVTZ
  Basis Set:

    Orbital Energies (a.u.)
    -----------------------

    Doubly Occupied:

       1A    -20.597979     2A    -20.534673     3A    -11.369823
       4A    -11.278927     5A    -11.232742     6A     -1.472261
       7A     -1.368080     8A     -1.037010     9A     -0.954122
      10A     -0.779302    11A     -0.699149    12A     -0.682634
      13A     -0.681043    14A     -0.597539    15A     -0.592874
      16A     -0.561706    17A     -0.529956    18A     -0.521794
      19A     -0.459501    20A     -0.445858

  @DF-RHF Final Energy:  -266.93768394344022

   => Energetics <=

    Nuclear Repulsion Energy =            183.3377786133451082
    One-Electron Energy =                -727.7569767889467585
    Two-Electron Energy =                 277.4815142321616577
    DFT Exchange-Correlation Energy =       0.0000000000000000
    Empirical Dispersion Energy =           0.0000000000000000
    PCM Polarization Energy =               0.0000000000000000
    EFP Energy =                            0.0000000000000000
    Total Energy =                       -266.9376839434399926
    Molecular point group: c1
  Basis Set: CC-PVTZ
  Basis Set:

  -Total Gradient:
     Atom            X                  Y                   Z
    ------   -----------------  -----------------  -----------------
       1        0.000025855738     0.000019280398    -0.000010821921
       2        0.000275100239    -0.000711021869     0.000927548641
       3       -0.000005187819    -0.000006824041    -0.000002012983
       4       -0.000318084306     0.000743005533    -0.001546218354
       5        0.000001099168     0.000003215553     0.000007145525
       6        0.000011610886    -0.000002964407    -0.000003686693
       7       -0.000001690728     0.000007766115    -0.000003307354
       8       -0.000421706117     0.001035669815     0.001221903730
       9        0.000397180174    -0.001126858561    -0.000585680662
      10        0.000031121596     0.000025223672    -0.000005830512
      11        0.000004701172     0.000013507789     0.000000960582

  **** Optimization is complete! (in 6 steps) ****
    Final optimized geometry and variables:
    Molecular point group: c1

    Geometry (in Angstrom), charge = 0, multiplicity = 1:

    O           -0.255449837475     1.086939079366     0.789084737326
    C           -0.433046213078     0.088611109698     0.180012991450
    C           -1.746140639234    -0.635166947760     0.086825750208
    O            0.506531844732    -0.535044849615    -0.512008692728
    H           -2.047839691709    -0.706170119274    -0.950132686589
    H           -2.492095393681    -0.104781354122     0.655801722492
    H           -1.632926295363    -1.642526095200     0.465926657754
    C            1.820508870323    -0.009855311801    -0.517035524491
    H            1.979218702021     0.546100318069    -1.430526262909
    H            2.493196455177    -0.853322248431    -0.494280635509
    H            1.986309846810     0.626829812155     0.334863538247

  Mulliken Charges: (a.u.)
   Center  Symbol    Alpha    Beta     Spin     Total
       1     O     4.19711  4.19711  0.00000 -0.39422
       2     C     2.79884  2.79884  0.00000  0.40232
       3     C     3.13930  3.13930  0.00000 -0.27860
       4     O     4.14940  4.14940  0.00000 -0.29881
       5     H     0.44537  0.44537  0.00000  0.10926
       6     H     0.43795  0.43795  0.00000  0.12411
       7     H     0.44581  0.44581  0.00000  0.10839
       8     C     3.03562  3.03562  0.00000 -0.07124
       9     H     0.45577  0.45577  0.00000  0.08846
      10     H     0.44960  0.44960  0.00000  0.10080
      11     H     0.44524  0.44524  0.00000  0.10953

   Total alpha = 20.00000, Total beta = 20.00000, Total charge = -0.00000

*** Psi4 exiting successfully. Buy a developer a beer!
