  ==> Input File <==

--------------------------------------------------------------------------
set {
	reference rhf
	basis 6-31G*
}

set_num_threads( 4 )
memory 2 gb

molecule MOL {
0 1

H	 -2.741723	 0.469542	 0.436598
C	 -2.472852	 0.212691	 -0.580792
C	 -1.213443	 -0.644969	 -0.613442
H	 -2.326545	 1.138465	 -1.123766
H	 -3.304100	 -0.320345	 -1.030431
C	 -0.000005	 0.033229	 -0.000001
H	 -0.961474	 -0.921828	 -1.635330
H	 -1.373014	 -1.584953	 -0.088691
C	 1.290528	 -0.768786	 0.000276
O	 -0.057319	 1.134162	 0.455900
C	 2.545731	 0.095645	 -0.000061
H	 1.275672	 -1.427874	 -0.865626
H	 1.275566	 -1.427086	 0.866768
H	 2.577157	 0.734767	 -0.874036
H	 3.433520	 -0.528139	 0.000137
H	 2.577172	 0.735117	 0.873581

	symmetry c1
}
set optking {
	frozen_dihedral = ("
		3 6 9 12
	")
}

ee = optimize('scf')
oeprop('DIPOLE', 'QUADRUPOLE', 'MULLIKEN_CHARGES')
f=open( 'psi4out.xyz', 'w' )
f.write( "16  " )
f.write( str(ee) + "\n" )
f.write( MOL.save_string_xyz() )
f.close()
--------------------------------------------------------------------------

    Molecular point group: c1
  Charge       = 0
  Multiplicity = 1
  Basis Set: 6-31G*
  Basis Set:
  @DF-RHF Final Energy:  -270.03253252416380
    Total Energy =                       -270.0325325241639121
    Molecular point group: c1
  Basis Set: 6-31G*
  Basis Set:
  Basis Set: 6-31G*
  Basis Set:
  @DF-RHF Final Energy:  -270.03278330675414
    Total Energy =                       -270.0327833067541405
  Basis Set: 6-31G*
  Basis Set:
  Basis Set: 6-31G*
  Basis Set:
  @DF-RHF Final Energy:  -270.03283145671412
    Total Energy =                       -270.0328314567138932
  Basis Set: 6-31G*
  Basis Set:
  Basis Set: 6-31G*
  Basis Set:
  @DF-RHF Final Energy:  -270.03288401260227
    Total Energy =                       -270.0328840126023806
  Basis Set: 6-31G*
  Basis Set:
  Basis Set: 6-31G*
  Basis Set:
  @DF-RHF Final Energy:  -270.03289339213154
    Total Energy =                       -270.0328933921315411
  Basis Set: 6-31G*
  Basis Set:
  Basis Set: 6-31G*
  Basis Set:
  @DF-RHF Final Energy:  -270.03289583561042
    Total Energy =                       -270.0328958356104181
  Basis Set: 6-31G*
  Basis Set:
  Charge       = 0
  Multiplicity = 1
  Basis Set: 6-31G*
  Basis Set:

    Orbital Energies (a.u.)
    -----------------------

    Doubly Occupied:

       1A    -20.550030     2A    -11.323944     3A    -11.234287
       4A    -11.233779     5A    -11.215334     6A    -11.213667
       7A     -1.395805     8A     -1.068483     9A     -1.036435
      10A     -0.915847    11A     -0.847120    12A     -0.724779
      13A     -0.667233    14A     -0.644501    15A     -0.620134
      16A     -0.605738    17A     -0.560916    18A     -0.530361
      19A     -0.525020    20A     -0.511032    21A     -0.502767
      22A     -0.494789    23A     -0.480935    24A     -0.398286

  @DF-RHF Final Energy:  -270.03289628636111

   => Energetics <=

    Nuclear Repulsion Energy =            239.9056118777747315
    One-Electron Energy =                -841.2745701301130339
    Two-Electron Energy =                 331.3360619659770236
    DFT Exchange-Correlation Energy =       0.0000000000000000
    Empirical Dispersion Energy =           0.0000000000000000
    PCM Polarization Energy =               0.0000000000000000
    EFP Energy =                            0.0000000000000000
    Total Energy =                       -270.0328962863612787
    Molecular point group: c1
  Basis Set: 6-31G*
  Basis Set:

  -Total Gradient:
     Atom            X                  Y                   Z
    ------   -----------------  -----------------  -----------------
       1        0.000003932332    -0.000000369082    -0.000003550533
       2        0.000007561684    -0.000007208396    -0.000000332282
       3        0.000250731770     0.000322488273    -0.000871144025
       4       -0.000004845839     0.000008428503    -0.000001136745
       5        0.000001726288     0.000001535190    -0.000002580546
       6       -0.000523195425    -0.000636978499     0.001417001835
       7       -0.000003883304     0.000000440140     0.000011059249
       8        0.000006627237    -0.000017568590     0.000005432281
       9        0.000835690213     0.001153917606    -0.001297433845
      10        0.000005682572    -0.000005430703     0.000002916177
      11        0.000008522600     0.000013648521     0.000010024797
      12       -0.000596175022    -0.000838441928     0.000739259311
      13       -0.000002275430     0.000003017304    -0.000001076701
      14        0.000003191933     0.000002300902    -0.000001767984
      15        0.000001988124     0.000002286784    -0.000002447310
      16        0.000004720267    -0.000002066030    -0.000004223681

  **** Optimization is complete! (in 7 steps) ****
    Final optimized geometry and variables:
    Molecular point group: c1

    Geometry (in Angstrom), charge = 0, multiplicity = 1:

    H           -2.749617182536     0.332962812362     0.667362823291
    C           -2.513368964825     0.151643764438    -0.374635777456
    C           -1.229011262185    -0.656760558077    -0.511259929546
    H           -2.418168289367     1.114499317865    -0.860574306120
    H           -3.344877052114    -0.380231948273    -0.825133364403
    C           -0.009943272569     0.028239016212     0.078378431123
    H           -1.008677763927    -0.854952866530    -1.559175249632
    H           -1.330970676525    -1.635614716037    -0.046407785970
    C            1.261899200787    -0.800759585762     0.152875655607
    O           -0.044916722429     1.155704531093     0.467433188316
    C            2.535360243077     0.038512253027     0.173200539251
    H            1.273044388239    -1.522862400844    -0.658813808701
    H            1.188924006634    -1.391155103251     1.066022876470
    H            2.639091189937     0.611461034685    -0.741970168189
    H            3.407738398937    -0.598613216776     0.273007602291
    H            2.521329370595     0.736687908596     0.999613947495

  Mulliken Charges: (a.u.)
   Center  Symbol    Alpha    Beta     Spin     Total
       1     H     0.41263  0.41263  0.00000  0.17473
       2     C     3.23543  3.23543  0.00000 -0.47085
       3     C     3.20713  3.20713  0.00000 -0.41425
       4     H     0.40834  0.40834  0.00000  0.18333
       5     H     0.41992  0.41992  0.00000  0.16016
       6     C     2.73324  2.73324  0.00000  0.53353
       7     H     0.40730  0.40730  0.00000  0.18539
       8     H     0.41039  0.41039  0.00000  0.17923
       9     C     3.20528  3.20528  0.00000 -0.41056
      10     O     4.26588  4.26588  0.00000 -0.53177
      11     C     3.23764  3.23764  0.00000 -0.47529
      12     H     0.41271  0.41271  0.00000  0.17458
      13     H     0.40510  0.40510  0.00000  0.18981
      14     H     0.41604  0.41604  0.00000  0.16792
      15     H     0.41892  0.41892  0.00000  0.16216
      16     H     0.40406  0.40406  0.00000  0.19188

   Total alpha = 24.00000, Total beta = 24.00000, Total charge =  0.00000
