  ==> Input File <==

--------------------------------------------------------------------------
set {
	reference rhf
	basis 6-31G*
}

set_num_threads( 1 )
memory 2 gb

molecule MOL {
0 1

H	 -0.935315	 -0.953188	 -0.913580
O	 -1.422729	 -0.573567	 -0.196946
C	 -0.731407	 0.539437	 0.309156
C	 0.680193	 0.672443	 -0.251532
H	 -1.319765	 1.404033	 0.030086
H	 -0.700012	 0.506517	 1.397677
C	 1.599139	 -0.492137	 0.118598
H	 0.616402	 0.758534	 -1.332349
H	 1.107032	 1.602637	 0.117369
H	 1.239738	 -1.428634	 -0.297334
H	 2.601428	 -0.335055	 -0.265730
H	 1.674954	 -0.608418	 1.197020

	symmetry c1
}
set optking {
	frozen_dihedral = ("
		8 4 3 2
	")
}

ee = energy('scf')
oeprop('DIPOLE', 'QUADRUPOLE', 'MULLIKEN_CHARGES')
f=open( 'psi4out.xyz', 'w' )
f.write( "12  " )
f.write( str(ee) + "\n" )
f.write( MOL.save_string_xyz() )
f.close()
--------------------------------------------------------------------------

    Molecular point group: c1

    Geometry (in Angstrom), charge = 0, multiplicity = 1:

       Center              X                  Y                   Z               Mass
    ------------   -----------------  -----------------  -----------------  -----------------
           H         -0.937590471622    -0.960124561079    -0.895217027607     1.007825032070
           O         -1.425004471622    -0.580503561079    -0.178583027607    15.994914619560
           C         -0.733682471622     0.532500438921     0.327518972393    12.000000000000
           C          0.677917528378     0.665506438921    -0.233169027607    12.000000000000
           H         -1.322040471622     1.397096438921     0.048448972393     1.007825032070
           H         -0.702287471622     0.499580438921     1.416039972393     1.007825032070
           C          1.596863528378    -0.499073561079     0.136960972393    12.000000000000
           H          0.614126528378     0.751597438921    -1.313986027607     1.007825032070
           H          1.104756528378     1.595700438921     0.135731972393     1.007825032070
           H          1.237462528378    -1.435570561079    -0.278971027607     1.007825032070
           H          2.599152528378    -0.341991561079    -0.247367027607     1.007825032070
           H          1.672678528378    -0.615354561079     1.215382972393     1.007825032070

  Charge       = 0
  Multiplicity = 1
  Basis Set: 6-31G*
  Basis Set:

    Orbital Energies (a.u.)
    -----------------------

    Doubly Occupied:

       1A    -20.549905     2A    -11.267064     3A    -11.227994
       4A    -11.220005     5A     -1.358737     6A     -1.055294
       7A     -0.927799     8A     -0.819889     9A     -0.663603
      10A     -0.648316    11A     -0.634032    12A     -0.576594
      13A     -0.547123    14A     -0.512193    15A     -0.495317
      16A     -0.464637    17A     -0.430066

  @DF-RHF Final Energy:  -193.10647890532960

   => Energetics <=

    Nuclear Repulsion Energy =            133.3050249134690830
    One-Electron Energy =                -526.0259897273144816
    Two-Electron Energy =                 199.6144859085161443
    DFT Exchange-Correlation Energy =       0.0000000000000000
    Empirical Dispersion Energy =           0.0000000000000000
    PCM Polarization Energy =               0.0000000000000000
    EFP Energy =                            0.0000000000000000
    Total Energy =                       -193.1064789053292543

  Mulliken Charges: (a.u.)
   Center  Symbol    Alpha    Beta     Spin     Total
       1     H     0.27927  0.27927  0.00000  0.44146
       2     O     4.37641  4.37641  0.00000 -0.75283
       3     C     2.97682  2.97682  0.00000  0.04637
       4     C     3.18801  3.18801  0.00000 -0.37602
       5     H     0.42436  0.42436  0.00000  0.15129
       6     H     0.42403  0.42403  0.00000  0.15195
       7     C     3.23975  3.23975  0.00000 -0.47951
       8     H     0.42065  0.42065  0.00000  0.15869
       9     H     0.41570  0.41570  0.00000  0.16861
      10     H     0.42275  0.42275  0.00000  0.15450
      11     H     0.41587  0.41587  0.00000  0.16825
      12     H     0.41638  0.41638  0.00000  0.16724

   Total alpha = 17.00000, Total beta = 17.00000, Total charge = -0.00000
