  ==> Input File <==

--------------------------------------------------------------------------
set {
	reference rhf
	basis 6-31G*
}

set_num_threads( 1 )
memory 2 gb

molecule MOL {
0 1

H	 0.469937	 3.351668	 0.522587
C	 0.466260	 2.641364	 1.358696
C	 -0.803728	 1.843645	 1.511613
O	 1.417194	 2.544816	 2.064496
C	 -1.220012	 1.144545	 0.209990
H	 -0.666695	 1.133789	 2.319100
H	 -1.585679	 2.541183	 1.809353
C	 -0.252658	 0.041456	 -0.226725
H	 -2.210614	 0.721652	 0.348391
H	 -1.315123	 1.884611	 -0.583114
C	 1.180775	 0.282413	 0.250794
H	 -0.266029	 -0.034465	 -1.312038
H	 -0.597733	 -0.921000	 0.146291
C	 2.148627	 -0.814315	 -0.201312
H	 1.516199	 1.249228	 -0.115937
H	 1.192670	 0.346017	 1.338083
C	 3.580890	 -0.659131	 0.322722
H	 2.166869	 -0.852443	 -1.289387
H	 1.762857	 -1.776509	 0.128956
C	 4.324889	 0.564933	 -0.213704
H	 4.142010	 -1.551473	 0.056605
H	 3.564836	 -0.624694	 1.410140
H	 4.342616	 0.565491	 -1.300421
H	 3.866655	 1.493402	 0.110242
H	 5.353900	 0.572371	 0.132816

	symmetry c1
}
set optking {
	frozen_dihedral = ("
		6 3 5 8,
		6 3 2 4,
		12 8 11 14,
		8 11 14 18,
		20 17 14 18
	")
}

ee = energy('scf')
oeprop('DIPOLE', 'QUADRUPOLE', 'MULLIKEN_CHARGES')
f=open( 'psi4out.xyz', 'w' )
f.write( "25  " )
f.write( str(ee) + "\n" )
f.write( MOL.save_string_xyz() )
f.close()
--------------------------------------------------------------------------

    Molecular point group: c1

    Geometry (in Angstrom), charge = 0, multiplicity = 1:

       Center              X                  Y                   Z               Mass
    ------------   -----------------  -----------------  -----------------  -----------------
           H         -0.760745465847     2.497740916669    -0.046543884253     1.007825032070
           C         -0.764422465847     1.787436916669     0.789565115747    12.000000000000
           C         -2.034410465847     0.989717916669     0.942482115747    12.000000000000
           O          0.186511534153     1.690888916669     1.495365115747    15.994914619560
           C         -2.450694465847     0.290617916669    -0.359140884253    12.000000000000
           H         -1.897377465847     0.279861916669     1.749969115747     1.007825032070
           H         -2.816361465847     1.687255916669     1.240222115747     1.007825032070
           C         -1.483340465847    -0.812471083331    -0.795855884253    12.000000000000
           H         -3.441296465847    -0.132275083331    -0.220739884253     1.007825032070
           H         -2.545805465847     1.030683916669    -1.152244884253     1.007825032070
           C         -0.049907465847    -0.571514083331    -0.318336884253    12.000000000000
           H         -1.496711465847    -0.888392083331    -1.881168884253     1.007825032070
           H         -1.828415465847    -1.774927083331    -0.422839884253     1.007825032070
           C          0.917944534153    -1.668242083331    -0.770442884253    12.000000000000
           H          0.285516534153     0.395300916669    -0.685067884253     1.007825032070
           H         -0.038012465847    -0.507910083331     0.768952115747     1.007825032070
           C          2.350207534153    -1.513058083331    -0.246408884253    12.000000000000
           H          0.936186534153    -1.706370083331    -1.858517884253     1.007825032070
           H          0.532174534153    -2.630436083331    -0.440174884253     1.007825032070
           C          3.094206534153    -0.288994083331    -0.782834884253    12.000000000000
           H          2.911327534153    -2.405400083331    -0.512525884253     1.007825032070
           H          2.334153534153    -1.478621083331     0.841009115747     1.007825032070
           H          3.111933534153    -0.288436083331    -1.869551884253     1.007825032070
           H          2.635972534153     0.639474916669    -0.458888884253     1.007825032070
           H          4.123217534153    -0.281556083331    -0.436314884253     1.007825032070

  Charge       = 0
  Multiplicity = 1
  Basis Set: 6-31G*
  Basis Set:

    Orbital Energies (a.u.)
    -----------------------

    Doubly Occupied:

       1A    -20.556949     2A    -11.327447     3A    -11.235754
       4A    -11.234062     5A    -11.220517     6A    -11.211303
       7A    -11.210404     8A    -11.209502     9A    -11.200965
      10A     -1.401944    11A     -1.106022    12A     -1.062569
      13A     -1.003670    14A     -0.942547    15A     -0.880177
      16A     -0.811280    17A     -0.786863    18A     -0.776312
      19A     -0.666422    20A     -0.655190    21A     -0.633694
      22A     -0.624944    23A     -0.603706    24A     -0.585714
      25A     -0.559449    26A     -0.554200    27A     -0.537323
      28A     -0.526985    29A     -0.508160    30A     -0.500760
      31A     -0.474677    32A     -0.467797    33A     -0.455945
      34A     -0.442118    35A     -0.439630    36A     -0.408527

  @DF-RHF Final Energy:  -387.10404968858188

   => Energetics <=

    Nuclear Repulsion Energy =            471.1481214711728853
    One-Electron Energy =               -1458.8573096315692510
    Two-Electron Energy =                 600.6051384718141435
    DFT Exchange-Correlation Energy =       0.0000000000000000
    Empirical Dispersion Energy =           0.0000000000000000
    PCM Polarization Energy =               0.0000000000000000
    EFP Energy =                            0.0000000000000000
    Total Energy =                       -387.1040496885822222

  Mulliken Charges: (a.u.)
   Center  Symbol    Alpha    Beta     Spin     Total
       1     H     0.42986  0.42986  0.00000  0.14027
       2     C     2.83337  2.83337  0.00000  0.33325
       3     C     3.21057  3.21057  0.00000 -0.42115
       4     O     4.24304  4.24304  0.00000 -0.48608
       5     C     3.16771  3.16771  0.00000 -0.33542
       6     H     0.39929  0.39929  0.00000  0.20142
       7     H     0.40472  0.40472  0.00000  0.19056
       8     C     3.14948  3.14948  0.00000 -0.29896
       9     H     0.41070  0.41070  0.00000  0.17860
      10     H     0.41847  0.41847  0.00000  0.16306
      11     C     3.17691  3.17691  0.00000 -0.35383
      12     H     0.41913  0.41913  0.00000  0.16175
      13     H     0.41962  0.41962  0.00000  0.16075
      14     C     3.14939  3.14939  0.00000 -0.29878
      15     H     0.41926  0.41926  0.00000  0.16147
      16     H     0.40356  0.40356  0.00000  0.19287
      17     C     3.15158  3.15158  0.00000 -0.30317
      18     H     0.42610  0.42610  0.00000  0.14779
      19     H     0.42349  0.42349  0.00000  0.15301
      20     C     3.24358  3.24358  0.00000 -0.48717
      21     H     0.42283  0.42283  0.00000  0.15435
      22     H     0.41933  0.41933  0.00000  0.16134
      23     H     0.42555  0.42555  0.00000  0.14889
      24     H     0.41287  0.41287  0.00000  0.17426
      25     H     0.41955  0.41955  0.00000  0.16090

   Total alpha = 36.00000, Total beta = 36.00000, Total charge = -0.00000
