  ==> Input File <==

--------------------------------------------------------------------------
set {
	reference rhf
	basis 6-31G*
}

set_num_threads( 4 )
memory 2 gb

molecule MOL {
0 1

H	 2.652209	 0.763231	 0.000000
O	 2.263154	 -0.100023	 0.000000
C	 0.912879	 -0.015685	 0.000000
C	 0.274580	 0.024183	 -1.232707
C	 0.171095	 0.030647	 1.169057
H	 0.868328	 -0.012902	 -2.127076
C	 -1.103083	 0.110232	 -1.284191
H	 0.666965	 -0.000325	 2.124920
C	 -1.211887	 0.117028	 1.102610
H	 -1.592687	 0.140813	 -2.241290
C	 -1.857763	 0.157369	 -0.119223
H	 -1.780360	 0.152535	 2.014898
H	 -2.929203	 0.224291	 -0.167206

	symmetry c1
}
set optking {
	frozen_dihedral = ("
		4 3 2 1
	")
}

ee = optimize('scf')
oeprop('DIPOLE', 'QUADRUPOLE', 'MULLIKEN_CHARGES')
f=open( 'psi4out.xyz', 'w' )
f.write( "13  " )
f.write( str(ee) + "\n" )
f.write( MOL.save_string_xyz() )
f.close()
--------------------------------------------------------------------------

    Molecular point group: c1
  Charge       = 0
  Multiplicity = 1
  Basis Set: 6-31G*
  Basis Set:
  @DF-RHF Final Energy:  -305.55250763711842
    Total Energy =                       -305.5525076371185946
    Molecular point group: c1
  Basis Set: 6-31G*
  Basis Set:
  Basis Set: 6-31G*
  Basis Set:
  @DF-RHF Final Energy:  -305.55335715143212
    Total Energy =                       -305.5533571514320101
  Basis Set: 6-31G*
  Basis Set:
  Basis Set: 6-31G*
  Basis Set:
  @DF-RHF Final Energy:  -305.55341946381543
    Total Energy =                       -305.5534194638150325
  Basis Set: 6-31G*
  Basis Set:
  Basis Set: 6-31G*
  Basis Set:
  @DF-RHF Final Energy:  -305.55342589454784
    Total Energy =                       -305.5534258945476722
  Basis Set: 6-31G*
  Basis Set:
  Charge       = 0
  Multiplicity = 1
  Basis Set: 6-31G*
  Basis Set:

    Orbital Energies (a.u.)
    -----------------------

    Doubly Occupied:

       1A    -20.576095     2A    -11.288300     3A    -11.234528
       4A    -11.234419     5A    -11.227972     6A    -11.226810
       7A    -11.226702     8A     -1.390750     9A     -1.147543
      10A     -1.017903    11A     -1.003432    12A     -0.834844
      13A     -0.823275    14A     -0.731629    15A     -0.679559
      16A     -0.644944    17A     -0.628506    18A     -0.590918
      19A     -0.588564    20A     -0.520440    21A     -0.513779
      22A     -0.492036    23A     -0.465487    24A     -0.336472
      25A     -0.324595

  @DF-RHF Final Energy:  -305.55342688093282

   => Energetics <=

    Nuclear Repulsion Energy =            272.6120919640032412
    One-Electron Energy =                -954.8320301649501971
    Two-Electron Energy =                 376.6665113200142514
    DFT Exchange-Correlation Energy =       0.0000000000000000
    Empirical Dispersion Energy =           0.0000000000000000
    PCM Polarization Energy =               0.0000000000000000
    EFP Energy =                            0.0000000000000000
    Total Energy =                       -305.5534268809326477
    Molecular point group: c1
  Basis Set: 6-31G*
  Basis Set:

  -Total Gradient:
     Atom            X                  Y                   Z
    ------   -----------------  -----------------  -----------------
       1        0.000017361062     0.000015608685     0.000075151290
       2        0.000162528132    -0.000019190619    -0.000114669970
       3       -0.000241255299     0.000029663527     0.000232754368
       4        0.000007454862    -0.000052597115    -0.000108761833
       5        0.000147752644     0.000003318919    -0.000035314810
       6       -0.000029433354    -0.000008668625     0.000026676576
       7        0.000047254283     0.000058827041    -0.000023424973
       8        0.000029859909    -0.000010888780    -0.000006439003
       9       -0.000108517225     0.000047145396    -0.000079305699
      10       -0.000042940199    -0.000005938236     0.000004643821
      11       -0.000001438840    -0.000054876413     0.000085984716
      12        0.000013764577    -0.000002711349    -0.000012783461
      13       -0.000002390556     0.000000307570    -0.000044511021

  **** Optimization is complete! (in 5 steps) ****
    Final optimized geometry and variables:
    Molecular point group: c1

    Geometry (in Angstrom), charge = 0, multiplicity = 1:

    H            2.668877326197     0.697348383506     0.086139964576
    O            2.270863878639    -0.162975457308     0.089793022056
    C            0.904962667881    -0.051307645202     0.035617240773
    C            0.264298247231    -0.021346921702    -1.191922239163
    C            0.171108302711    -0.012365943586     1.209019228009
    H            0.851643806753    -0.068276322019    -2.090797894945
    C           -1.117961264323     0.057298214453    -1.242476258053
    H            0.687275900897    -0.051813722014     2.150927073997
    C           -1.211222003142     0.065648383268     1.151283936419
    H           -1.614741990727     0.079723141120    -2.196054367751
    C           -1.860008627166     0.102580361367    -0.072689021363
    H           -1.780230526294     0.094875265741     2.063362243852
    H           -2.932638633170     0.161695817094    -0.115009666703

  Mulliken Charges: (a.u.)
   Center  Symbol    Alpha    Beta     Spin     Total
       1     H     0.27124  0.27124  0.00000  0.45753
       2     O     4.38839  4.38839  0.00000 -0.77678
       3     C     2.82064  2.82064  0.00000  0.35871
       4     C     3.11812  3.11812  0.00000 -0.23624
       5     C     3.11787  3.11787  0.00000 -0.23574
       6     H     0.39447  0.39447  0.00000  0.21106
       7     C     3.09715  3.09715  0.00000 -0.19431
       8     H     0.39427  0.39427  0.00000  0.21146
       9     C     3.09717  3.09717  0.00000 -0.19433
      10     H     0.39806  0.39806  0.00000  0.20387
      11     C     3.10508  3.10508  0.00000 -0.21016
      12     H     0.39806  0.39806  0.00000  0.20388
      13     H     0.39948  0.39948  0.00000  0.20104

   Total alpha = 25.00000, Total beta = 25.00000, Total charge =  0.00000
