  ==> Input File <==

--------------------------------------------------------------------------
set {
	reference rhf
	basis 6-31G*
}

set_num_threads( 1 )
memory 2 gb

molecule MOL {
0 1

O	 0.749854	 1.307668	 -0.000040
C	 0.576249	 0.131685	 -0.000108
C	 -0.766779	 -0.556801	 -0.000461
O	 1.568443	 -0.749345	 -0.000005
C	 -1.945214	 0.412366	 0.000161
H	 -0.796911	 -1.211249	 -0.867467
H	 -0.796854	 -1.212390	 0.865687
C	 -3.263564	 -0.287807	 0.326164
H	 -2.012223	 0.895114	 -0.968893
H	 -1.758292	 1.202694	 0.719200
H	 -3.489241	 -1.064400	 -0.399387
H	 -4.088004	 0.417654	 0.321048
H	 -3.232904	 -0.752422	 1.307829
C	 2.886820	 -0.232538	 0.000322
H	 3.059106	 0.369571	 -0.880203
H	 3.540187	 -1.091012	 0.000050
H	 3.059019	 0.368956	 0.881266

	symmetry c1
}
set optking {
	frozen_dihedral = ("
		1 2 3 6,
		14 4 2 1
	")
}

ee = energy('scf')
oeprop('DIPOLE', 'QUADRUPOLE', 'MULLIKEN_CHARGES')
f=open( 'psi4out.xyz', 'w' )
f.write( "17  " )
f.write( str(ee) + "\n" )
f.write( MOL.save_string_xyz() )
f.close()
--------------------------------------------------------------------------

    Molecular point group: c1

    Geometry (in Angstrom), charge = 0, multiplicity = 1:

       Center              X                  Y                   Z               Mass
    ------------   -----------------  -----------------  -----------------  -----------------
           O          0.746287745449     1.303362556632    -0.048037453990    15.994914619560
           C          0.572682745449     0.127379556632    -0.048105453990    12.000000000000
           C         -0.770345254551    -0.561106443368    -0.048458453990    12.000000000000
           O          1.564876745449    -0.753650443368    -0.048002453990    15.994914619560
           C         -1.948780254551     0.408060556632    -0.047836453990    12.000000000000
           H         -0.800477254551    -1.215554443368    -0.915464453990     1.007825032070
           H         -0.800420254551    -1.216695443368     0.817689546010     1.007825032070
           C         -3.267130254551    -0.292112443368     0.278166546010    12.000000000000
           H         -2.015789254551     0.890808556632    -1.016890453990     1.007825032070
           H         -1.761858254551     1.198388556632     0.671202546010     1.007825032070
           H         -3.492807254551    -1.068705443368    -0.447384453990     1.007825032070
           H         -4.091570254551     0.413348556632     0.273050546010     1.007825032070
           H         -3.236470254551    -0.756727443368     1.259831546010     1.007825032070
           C          2.883253745449    -0.236843443368    -0.047675453990    12.000000000000
           H          3.055539745449     0.365265556632    -0.928200453990     1.007825032070
           H          3.536620745449    -1.095317443368    -0.047947453990     1.007825032070
           H          3.055452745449     0.364650556632     0.833268546010     1.007825032070

  Charge       = 0
  Multiplicity = 1
  Basis Set: 6-31G*
  Basis Set:

    Orbital Energies (a.u.)
    -----------------------

    Doubly Occupied:

       1A    -20.604121     2A    -20.545970     3A    -11.372784
       4A    -11.281173     5A    -11.235879     6A    -11.221451
       7A    -11.214430     8A     -1.469844     9A     -1.363352
      10A     -1.080512    11A     -1.001447    12A     -0.939727
      13A     -0.827288    14A     -0.767331    15A     -0.700785
      16A     -0.683473    17A     -0.672461    18A     -0.636479
      19A     -0.595729    20A     -0.574421    21A     -0.568995
      22A     -0.527750    23A     -0.522358    24A     -0.497359
      25A     -0.487193    26A     -0.478184    27A     -0.456506
      28A     -0.438530

  @DF-RHF Final Energy:  -344.90624603508689

   => Energetics <=

    Nuclear Repulsion Energy =            312.5788337498582337
    One-Electron Energy =               -1089.4389134155462671
    Two-Electron Energy =                 431.9538336305998882
    DFT Exchange-Correlation Energy =       0.0000000000000000
    Empirical Dispersion Energy =           0.0000000000000000
    PCM Polarization Energy =               0.0000000000000000
    EFP Energy =                            0.0000000000000000
    Total Energy =                       -344.9062460350882020

  Mulliken Charges: (a.u.)
   Center  Symbol    Alpha    Beta     Spin     Total
       1     O     4.28562  4.28562  0.00000 -0.57123
       2     C     2.60695  2.60695  0.00000  0.78610
       3     C     3.20641  3.20641  0.00000 -0.41281
       4     O     4.30674  4.30674  0.00000 -0.61347
       5     C     3.15297  3.15297  0.00000 -0.30594
       6     H     0.40018  0.40018  0.00000  0.19964
       7     H     0.40102  0.40102  0.00000  0.19795
       8     C     3.24295  3.24295  0.00000 -0.48590
       9     H     0.41381  0.41381  0.00000  0.17238
      10     H     0.40650  0.40650  0.00000  0.18700
      11     H     0.42169  0.42169  0.00000  0.15662
      12     H     0.41535  0.41535  0.00000  0.16931
      13     H     0.42098  0.42098  0.00000  0.15803
      14     C     3.09246  3.09246  0.00000 -0.18492
      15     H     0.40899  0.40899  0.00000  0.18202
      16     H     0.40836  0.40836  0.00000  0.18327
      17     H     0.40902  0.40902  0.00000  0.18195

   Total alpha = 28.00000, Total beta = 28.00000, Total charge =  0.00000
