  ==> Input File <==

--------------------------------------------------------------------------
set {
	reference rhf
	basis 6-31G*
}

set_num_threads( 4 )
memory 2 gb

molecule MOL {
0 1

H	 -3.042581	 -0.665861	 0.004336
O	 -2.245037	 -1.176175	 0.000806
C	 -1.162163	 -0.365336	 0.001020
C	 -0.117207	 -0.521379	 0.893795
C	 -1.133004	 0.654093	 -0.942773
H	 -0.139671	 -1.309385	 1.627630
C	 0.958210	 0.353618	 0.832388
H	 -1.962821	 0.747681	 -1.619354
C	 -0.059537	 1.525316	 -1.004048
H	 1.771425	 0.236640	 1.526676
C	 0.993405	 1.368286	 -0.102590
C	 -0.015479	 2.619313	 -2.045359
H	 1.832946	 2.040138	 -0.135972
H	 0.330740	 3.553682	 -1.616551
H	 -0.992649	 2.790601	 -2.480857
H	 0.665219	 2.357249	 -2.850542

	symmetry c1
}
set optking {
	frozen_dihedral = ("
		5 3 2 1
	")
}

ee = optimize('scf')
oeprop('DIPOLE', 'QUADRUPOLE', 'MULLIKEN_CHARGES')
f=open( 'psi4out.xyz', 'w' )
f.write( "16  " )
f.write( str(ee) + "\n" )
f.write( MOL.save_string_xyz() )
f.close()
--------------------------------------------------------------------------

    Molecular point group: c1
  Charge       = 0
  Multiplicity = 1
  Basis Set: 6-31G*
  Basis Set:
  @DF-RHF Final Energy:  -344.59081753335920
    Total Energy =                       -344.5908175333593135
    Molecular point group: c1
  Basis Set: 6-31G*
  Basis Set:
  Basis Set: 6-31G*
  Basis Set:
  @DF-RHF Final Energy:  -344.59229040981563
    Total Energy =                       -344.5922904098157460
  Basis Set: 6-31G*
  Basis Set:
  Basis Set: 6-31G*
  Basis Set:
  @DF-RHF Final Energy:  -344.59239343296281
    Total Energy =                       -344.5923934329626945
  Basis Set: 6-31G*
  Basis Set:
  Basis Set: 6-31G*
  Basis Set:
  @DF-RHF Final Energy:  -344.59240451123941
    Total Energy =                       -344.5924045112393515
  Basis Set: 6-31G*
  Basis Set:
  Basis Set: 6-31G*
  Basis Set:
  @DF-RHF Final Energy:  -344.59240708200639
    Total Energy =                       -344.5924070820064458
  Basis Set: 6-31G*
  Basis Set:
  Charge       = 0
  Multiplicity = 1
  Basis Set: 6-31G*
  Basis Set:

    Orbital Energies (a.u.)
    -----------------------

    Doubly Occupied:

       1A    -20.580598     2A    -11.290481     3A    -11.242686
       4A    -11.232494     5A    -11.223019     6A    -11.222229
       7A    -11.219282     8A    -11.218594     9A     -1.396936
      10A     -1.149962    11A     -1.043706    12A     -1.003132
      13A     -0.937581    14A     -0.834427    15A     -0.800415
      16A     -0.722925    17A     -0.677929    18A     -0.649475
      19A     -0.611812    20A     -0.591281    21A     -0.576896
      22A     -0.567215    23A     -0.554430    24A     -0.522640
      25A     -0.502392    26A     -0.481007    27A     -0.465013
      28A     -0.329612    29A     -0.311919

  @DF-RHF Final Energy:  -344.59240762954823

   => Energetics <=

    Nuclear Repulsion Energy =            345.2259819909050975
    One-Electron Energy =               -1151.7166001184057222
    Two-Electron Energy =                 461.8982104979521637
    DFT Exchange-Correlation Energy =       0.0000000000000000
    Empirical Dispersion Energy =           0.0000000000000000
    PCM Polarization Energy =               0.0000000000000000
    EFP Energy =                            0.0000000000000000
    Total Energy =                       -344.5924076295484610
    Molecular point group: c1
  Basis Set: 6-31G*
  Basis Set:

  -Total Gradient:
     Atom            X                  Y                   Z
    ------   -----------------  -----------------  -----------------
       1        0.000033132909     0.000091453222     0.002528607463
       2        0.000383165636    -0.000748997357    -0.003766078817
       3       -0.001337834171     0.001783947614     0.002454836663
       4        0.000045501987     0.000019040482     0.000001149184
       5        0.000864892756    -0.001134886683    -0.001207732214
       6       -0.000016412215    -0.000006806701    -0.000008971093
       7       -0.000014908048    -0.000004368461     0.000006139620
       8        0.000020428680    -0.000003268443     0.000008203972
       9        0.000015055692     0.000003664024    -0.000011053245
      10       -0.000001455986     0.000003928424     0.000000305697
      11        0.000004998204    -0.000013863232    -0.000009062868
      12        0.000011121132    -0.000001895825     0.000006547984
      13       -0.000003888513     0.000003777707    -0.000011647507
      14       -0.000009923372     0.000007399636     0.000008810341
      15       -0.000002816094    -0.000002520230    -0.000012474121
      16        0.000008941402     0.000003395827     0.000012418941

  **** Optimization is complete! (in 6 steps) ****
    Final optimized geometry and variables:
    Molecular point group: c1

    Geometry (in Angstrom), charge = 0, multiplicity = 1:

    H           -2.639485288732    -1.301307729465     0.349031383409
    O           -1.813325464220    -1.764489821453     0.358977467240
    C           -0.773671714384    -0.882945943058     0.315450048617
    C            0.272644803337    -1.054776405769     1.202453804454
    C           -0.731502294038     0.126917994164    -0.635037830401
    H            0.224727903473    -1.847555127358     1.925367196901
    C            1.357271298326    -0.195376931608     1.135522988135
    H           -1.546915682134     0.224752767844    -1.331504741232
    C            0.348169296279     0.996440953894    -0.696782867193
    H            2.174154044108    -0.319912740300     1.824131411655
    C            1.396392983875     0.825185189365     0.202038955437
    C            0.403124201388     2.087183591890    -1.741406525471
    H            2.242915689865     1.488655663457     0.168480818364
    H            0.761580020803     3.018648871002    -1.316291140525
    H           -0.573150113676     2.270527420182    -2.174955700087
    H            1.077546705448     1.815653810301    -2.548644138786

  Mulliken Charges: (a.u.)
   Center  Symbol    Alpha    Beta     Spin     Total
       1     H     0.27258  0.27258  0.00000  0.45484
       2     O     4.38445  4.38445  0.00000 -0.76890
       3     C     2.80264  2.80264  0.00000  0.39471
       4     C     3.12445  3.12445  0.00000 -0.24890
       5     C     3.14791  3.14791  0.00000 -0.29582
       6     H     0.39316  0.39316  0.00000  0.21369
       7     C     3.09098  3.09098  0.00000 -0.18196
       8     H     0.40272  0.40272  0.00000  0.19455
       9     C     2.97168  2.97168  0.00000  0.05664
      10     H     0.39852  0.39852  0.00000  0.20296
      11     C     3.12048  3.12048  0.00000 -0.24096
      12     C     3.25417  3.25417  0.00000 -0.50835
      13     H     0.40289  0.40289  0.00000  0.19422
      14     H     0.41152  0.41152  0.00000  0.17697
      15     H     0.41365  0.41365  0.00000  0.17270
      16     H     0.40819  0.40819  0.00000  0.18363

   Total alpha = 29.00000, Total beta = 29.00000, Total charge = -0.00000
