                              Psi4 1.0.54 Driver

  ==> Input File <==

--------------------------------------------------------------------------
set {
	reference rhf
	basis cc-pvtz
}

set_num_threads( 4 )
memory 2 gb

molecule MOL {
0 1

H	 -2.698799	 -0.000846	 0.036018
C	 -1.694291	 -0.000483	 0.434279
O	 -0.828718	 -0.000608	 -0.655022
H	 -1.576855	 0.881100	 1.056504
H	 -1.576401	 -0.881658	 1.057001
C	 0.557892	 0.000078	 -0.420099
C	 0.909325	 -0.384617	 1.012652
C	 1.326132	 -0.825316	 -1.446151
H	 0.832007	 1.038339	 -0.559722
H	 0.319338	 0.193033	 1.713577
H	 1.957104	 -0.181294	 1.201237
H	 0.741090	 -1.437394	 1.207439
H	 1.025268	 -0.553242	 -2.450392
H	 2.389088	 -0.638111	 -1.346892
H	 1.168868	 -1.889761	 -1.316670

	symmetry c1
}
set optking {
	frozen_dihedral = ("
		9 6 3 2
	")
}

ee,wfn = optimize('scf', return_wfn=True)
oeprop( wfn, 'DIPOLE', 'QUADRUPOLE', 'MULLIKEN_CHARGES')
f=open( 'psi4out.xyz', 'w' )
f.write( "15  " )
f.write( str(ee) + "\n" )
f.write( MOL.save_string_xyz() )
f.close()
--------------------------------------------------------------------------

    Molecular point group: c1
  Charge       = 0
  Multiplicity = 1
  Basis Set: CC-PVTZ
  Basis Set:
  @DF-RHF Final Energy:  -232.21884725008169
    Total Energy =                       -232.2188472500815806
    Molecular point group: c1
  Basis Set: CC-PVTZ
  Basis Set:
  Basis Set: CC-PVTZ
  Basis Set:
  @DF-RHF Final Energy:  -231.21529167350579
    Total Energy =                       -231.2152916735058739
  Basis Set: CC-PVTZ
  Basis Set:
  Basis Set: CC-PVTZ
  Basis Set:
  @DF-RHF Final Energy:  -231.41015203669295
    Total Energy =                       -231.4101520366930345
  Basis Set: CC-PVTZ
  Basis Set:
  Basis Set: CC-PVTZ
  Basis Set:
  @DF-RHF Final Energy:  -231.74887907217661
    Total Energy =                       -231.7488790721766065
  Basis Set: CC-PVTZ
  Basis Set:
  @DF-RHF Final Energy:  -232.02344943075832
    Total Energy =                       -232.0234494307583191
  @DF-RHF Final Energy:  -232.18733721302777
    Total Energy =                       -232.1873372130278881
  @DF-RHF Final Energy:  -232.22093197862574
    Total Energy =                       -232.2209319786259130
  @DF-RHF Final Energy:  -232.22362680184457
    Total Energy =                       -232.2236268018446026
  Basis Set: CC-PVTZ
  Basis Set:
  @DF-RHF Final Energy:  -232.22377307712046
    Total Energy =                       -232.2237730771201996
  Basis Set: CC-PVTZ
  Basis Set:
  Basis Set: CC-PVTZ
  Basis Set:
  @DF-RHF Final Energy:  -232.22379815525440
    Total Energy =                       -232.2237981552543715
  Basis Set: CC-PVTZ
  Basis Set:
  Basis Set: CC-PVTZ
  Basis Set:
  @DF-RHF Final Energy:  -232.22380313536246
    Total Energy =                       -232.2238031353626866
  Basis Set: CC-PVTZ
  Basis Set:
  Charge       = 0
  Multiplicity = 1
  Basis Set: CC-PVTZ
  Basis Set:

    Orbital Energies (a.u.)
    -----------------------

    Doubly Occupied:

       1A    -20.540586     2A    -11.273252     3A    -11.259867
       4A    -11.213186     5A    -11.203112     6A     -1.371909
       7A     -1.054418     8A     -0.950315     9A     -0.914208
      10A     -0.784546    11A     -0.677925    12A     -0.643227
      13A     -0.632012    14A     -0.591327    15A     -0.551937
      16A     -0.542401    17A     -0.527785    18A     -0.504933
      19A     -0.494809    20A     -0.450559    21A     -0.403615

  @DF-RHF Final Energy:  -232.22380350139008

   => Energetics <=

    Nuclear Repulsion Energy =            198.1048505528813166
    One-Electron Energy =                -707.4854497059708365
    Two-Electron Energy =                 277.1567956516994968
    DFT Exchange-Correlation Energy =       0.0000000000000000
    Empirical Dispersion Energy =           0.0000000000000000
    PCM Polarization Energy =               0.0000000000000000
    EFP Energy =                            0.0000000000000000
    Total Energy =                       -232.2238035013900230
    Molecular point group: c1
  Basis Set: CC-PVTZ
  Basis Set:

  -Total Gradient:
     Atom            X                  Y                   Z
    ------   -----------------  -----------------  -----------------
       1       -0.000007817184    -0.000003037197     0.000009036465
       2        0.002852691843    -0.002284541501     0.001537017533
       3       -0.003730303905     0.003249987673    -0.003172094084
       4       -0.000008413976    -0.000015005596     0.000004048464
       5        0.000000004813     0.000000067747    -0.000002703769
       6       -0.001650647736    -0.000231850035     0.005389098521
       7       -0.000002583383    -0.000014483491     0.000019019317
       8        0.000017688695     0.000010400711    -0.000017131300
       9        0.002549888759    -0.000730731001    -0.003735348382
      10       -0.000021491062     0.000009460888     0.000028114720
      11       -0.000002653226    -0.000004719380    -0.000020376327
      12       -0.000001037839     0.000011896408    -0.000019868509
      13        0.000010198955    -0.000011712287    -0.000018457899
      14        0.000007977095     0.000001207756    -0.000000703597
      15       -0.000013501853     0.000013059306     0.000000348848

  **** Optimization is complete! (in 12 steps) ****
    Final optimized geometry and variables:
    Molecular point group: c1

    Geometry (in Angstrom), charge = 0, multiplicity = 1:

    H           -1.933624565256    -1.964967058035    -0.050416054337
    C           -1.464686464772    -1.104382802475     0.405172843352
    O           -0.566103010024    -0.599748693116    -0.526823091880
    H           -2.243972525394    -0.389260115457     0.658491009781
    H           -0.979937101553    -1.425903293702     1.320340402107
    C            0.193598600483     0.553434515944    -0.242430072835
    C            0.366075353214     0.875223575225     1.235422438513
    C            1.539001782418     0.355053612576    -0.924403297904
    H           -0.292664403437     1.393710924490    -0.735454935630
    H           -0.577101517419     1.059743300704     1.732614216128
    H            0.965509088675     1.772626537399     1.328137142871
    H            0.880529285215     0.076143083477     1.756933200770
    H            1.392457151549     0.108924959318    -1.968043470567
    H            2.139104826523     1.256152441520    -0.863844087560
    H            2.085363699839    -0.457376640373    -0.458694561972

  Mulliken Charges: (a.u.)
   Center  Symbol    Alpha    Beta     Spin     Total
       1     H     0.44280  0.44280  0.00000  0.11440
       2     C     3.03821  3.03821  0.00000 -0.07642
       3     O     4.18568  4.18568  0.00000 -0.37135
       4     H     0.47088  0.47088  0.00000  0.05825
       5     H     0.46929  0.46929  0.00000  0.06143
       6     C     2.92066  2.92066  0.00000  0.15868
       7     C     3.17044  3.17044  0.00000 -0.34088
       8     C     3.13917  3.13917  0.00000 -0.27835
       9     H     0.46028  0.46028  0.00000  0.07943
      10     H     0.44503  0.44503  0.00000  0.10994
      11     H     0.44401  0.44401  0.00000  0.11197
      12     H     0.45039  0.45039  0.00000  0.09922
      13     H     0.44593  0.44593  0.00000  0.10814
      14     H     0.46015  0.46015  0.00000  0.07970
      15     H     0.45708  0.45708  0.00000  0.08584

   Total alpha = 21.00000, Total beta = 21.00000, Total charge = -0.00000

*** Psi4 exiting successfully. Buy a developer a beer!
