                              Psi4 1.0.54 Driver

  ==> Input File <==

--------------------------------------------------------------------------
set {
	reference rhf
	basis cc-pvtz
}

set_num_threads( 4 )
memory 2 gb

molecule MOL {
0 1

H	 -1.519309	 0.203088	 4.020933
C	 -2.088996	 -0.399820	 3.300625
C	 -2.339642	 0.266278	 1.974962
O	 -2.462744	 -1.480827	 3.599025
C	 -1.059845	 0.811232	 1.334008
H	 -2.842691	 -0.438081	 1.325229
H	 -3.022549	 1.091075	 2.166408
C	 -0.083396	 -0.277370	 0.893924
H	 -1.336189	 1.415485	 0.476773
H	 -0.566690	 1.484309	 2.031116
C	 1.181757	 0.280428	 0.247371
H	 -0.584304	 -0.941548	 0.194591
H	 0.191407	 -0.892176	 1.747109
C	 2.151032	 -0.811012	 -0.202643
H	 0.900538	 0.900015	 -0.598426
H	 1.685797	 0.936938	 0.953230
C	 3.580021	 -0.656538	 0.320835
H	 2.170545	 -0.847575	 -1.289412
H	 1.766632	 -1.772905	 0.124928
C	 4.327657	 0.562694	 -0.213579
H	 4.138806	 -1.549270	 0.057813
H	 3.561991	 -0.620783	 1.406976
H	 4.355973	 0.557257	 -1.298551
H	 3.867136	 1.491650	 0.100501
H	 5.351524	 0.571613	 0.142204

	symmetry c1
}
set optking {
	frozen_dihedral = ("
		8 11 14 18
	")
}

ee,wfn = optimize('scf', return_wfn=True)
oeprop( wfn, 'DIPOLE', 'QUADRUPOLE', 'MULLIKEN_CHARGES')
f=open( 'psi4out.xyz', 'w' )
f.write( "25  " )
f.write( str(ee) + "\n" )
f.write( MOL.save_string_xyz() )
f.close()
--------------------------------------------------------------------------

    Molecular point group: c1
  Charge       = 0
  Multiplicity = 1
  Basis Set: CC-PVTZ
  Basis Set:
  @DF-RHF Final Energy:  -387.25540801686168
    Total Energy =                       -387.2554080168612245
    Molecular point group: c1
  Basis Set: CC-PVTZ
  Basis Set:
  Basis Set: CC-PVTZ
  Basis Set:
  @DF-RHF Final Energy:  -387.25571648429855
    Total Energy =                       -387.2557164842985458
  Basis Set: CC-PVTZ
  Basis Set:
  Basis Set: CC-PVTZ
  Basis Set:
  @DF-RHF Final Energy:  -387.25573407464697
    Total Energy =                       -387.2557340746469663
  Basis Set: CC-PVTZ
  Basis Set:
  Basis Set: CC-PVTZ
  Basis Set:
  @DF-RHF Final Energy:  -387.25564187233920
    Total Energy =                       -387.2556418723388560
  Basis Set: CC-PVTZ
  Basis Set:
  Basis Set: CC-PVTZ
  Basis Set:
  @DF-RHF Final Energy:  -387.25577391636762
    Total Energy =                       -387.2557739163678434
  Basis Set: CC-PVTZ
  Basis Set:
  Basis Set: CC-PVTZ
  Basis Set:
  @DF-RHF Final Energy:  -387.25579341452055
    Total Energy =                       -387.2557934145210083
  Basis Set: CC-PVTZ
  Basis Set:
  Basis Set: CC-PVTZ
  Basis Set:
  @DF-RHF Final Energy:  -387.25579603371909
    Total Energy =                       -387.2557960337192071
  Basis Set: CC-PVTZ
  Basis Set:
  Charge       = 0
  Multiplicity = 1
  Basis Set: CC-PVTZ
  Basis Set:

    Orbital Energies (a.u.)
    -----------------------

    Doubly Occupied:

       1A    -20.551517     2A    -11.321109     3A    -11.233902
       4A    -11.232762     5A    -11.222216     6A    -11.217922
       7A    -11.216174     8A    -11.214719     9A    -11.208678
      10A     -1.406531    11A     -1.104666    12A     -1.070402
      13A     -1.013966    14A     -0.942260    15A     -0.875925
      16A     -0.823034    17A     -0.788868    18A     -0.781209
      19A     -0.668819    20A     -0.661046    21A     -0.636098
      22A     -0.625648    23A     -0.606417    24A     -0.593427
      25A     -0.575068    26A     -0.554833    27A     -0.533412
      28A     -0.525840    29A     -0.514150    30A     -0.495206
      31A     -0.491193    32A     -0.482975    33A     -0.460252
      34A     -0.457864    35A     -0.443035    36A     -0.412036

  @DF-RHF Final Energy:  -387.25579638052409

   => Energetics <=

    Nuclear Repulsion Energy =            440.9844169398866143
    One-Electron Energy =               -1398.5540680633339434
    Two-Electron Energy =                 570.3138547429228993
    DFT Exchange-Correlation Energy =       0.0000000000000000
    Empirical Dispersion Energy =           0.0000000000000000
    PCM Polarization Energy =               0.0000000000000000
    EFP Energy =                            0.0000000000000000
    Total Energy =                       -387.2557963805244299
    Molecular point group: c1
  Basis Set: CC-PVTZ
  Basis Set:

  -Total Gradient:
     Atom            X                  Y                   Z
    ------   -----------------  -----------------  -----------------
       1        0.000002597377    -0.000004261261     0.000006956414
       2        0.000005122523     0.000032207585     0.000023868000
       3       -0.000007039649    -0.000030622448    -0.000036246856
       4       -0.000004630034     0.000008261115    -0.000010480991
       5        0.000035964208     0.000005011772     0.000055755978
       6        0.000004304759    -0.000009548634    -0.000003599530
       7        0.000001710062     0.000003891220    -0.000020481710
       8        0.000708347774     0.000007256967     0.001463149973
       9       -0.000014471547     0.000002491455     0.000006284179
      10        0.000004582979    -0.000007437573     0.000006342859
      11       -0.000607012906     0.000377669268    -0.002056173643
      12       -0.000006362589    -0.000019998701     0.000003627824
      13        0.000001430723     0.000004201214    -0.000006014938
      14       -0.001814982769    -0.001917382789     0.000555688207
      15        0.000018955564     0.000008884668    -0.000001730010
      16        0.000005267578     0.000008385708    -0.000005611649
      17       -0.000014876914     0.000017072106     0.000006785561
      18        0.001682992336     0.001504678370     0.000006533550
      19       -0.000005008040    -0.000000494394    -0.000002314007
      20        0.000013842694    -0.000004576430     0.000002692848
      21       -0.000017132069     0.000012458982    -0.000018984126
      22        0.000019943670    -0.000005696993     0.000017573660
      23        0.000008028367    -0.000001984806     0.000006008855
      24       -0.000024558376    -0.000004534881    -0.000003564698
      25        0.000002984272     0.000014068477     0.000003934251

  **** Optimization is complete! (in 8 steps) ****
    Final optimized geometry and variables:
    Molecular point group: c1

    Geometry (in Angstrom), charge = 0, multiplicity = 1:

    H           -1.886853095655     0.382317268417     2.782856159777
    C           -2.457085857353    -0.215267062196     2.058532621339
    C           -2.705114571150     0.458810865506     0.736398244687
    O           -2.833262133524    -1.297246893593     2.350286704443
    C           -1.423396083874     1.003975205640     0.099477846906
    H           -3.209534638106    -0.240521388985     0.082311739087
    H           -3.386033917707     1.284258174295     0.931990084800
    C           -0.452374180876    -0.084585148784    -0.350921700109
    H           -1.697541568141     1.616864030495    -0.752344389707
    H           -0.926833585770     1.668988514657     0.802015997530
    C            0.816884675861     0.472542060559    -0.991903004735
    H           -0.956892403560    -0.742099758147    -1.054287530967
    H           -0.176029527027    -0.707483472142     0.495999958271
    C            1.794065604692    -0.624740314025    -1.461841958357
    H            0.545678933197     1.116595414654    -1.822039602044
    H            1.309814730997     1.113763062377    -0.266945974917
    C            3.228664602879    -0.449379195720    -0.958827306996
    H            1.819195415250    -0.653221409071    -2.546976560959
    H            1.430950389579    -1.593774696735    -1.136958284147
    C            3.943753613679     0.768145952732    -1.538431129669
    H            3.797306614541    -1.340119820105    -1.207614910480
    H            3.223168955730    -0.385476602318     0.126321996355
    H            4.005515663937     0.701575274122    -2.619856727167
    H            3.430567730110     1.691505321748    -1.295000007363
    H            4.954465090207     0.844922797653    -1.154342336184

  Mulliken Charges: (a.u.)
   Center  Symbol    Alpha    Beta     Spin     Total
       1     H     0.46430  0.46430  0.00000  0.07139
       2     C     2.90490  2.90490  0.00000  0.19019
       3     C     3.08921  3.08921  0.00000 -0.17842
       4     O     4.16610  4.16610  0.00000 -0.33220
       5     C     3.11670  3.11670  0.00000 -0.23340
       6     H     0.44289  0.44289  0.00000  0.11421
       7     H     0.44050  0.44050  0.00000  0.11900
       8     C     3.09034  3.09034  0.00000 -0.18068
       9     H     0.44306  0.44306  0.00000  0.11387
      10     H     0.44971  0.44971  0.00000  0.10058
      11     C     3.09950  3.09950  0.00000 -0.19901
      12     H     0.44859  0.44859  0.00000  0.10281
      13     H     0.44796  0.44796  0.00000  0.10409
      14     C     3.10011  3.10011  0.00000 -0.20023
      15     H     0.44687  0.44687  0.00000  0.10626
      16     H     0.45326  0.45326  0.00000  0.09348
      17     C     3.08899  3.08899  0.00000 -0.17797
      18     H     0.44986  0.44986  0.00000  0.10028
      19     H     0.44691  0.44691  0.00000  0.10617
      20     C     3.15034  3.15034  0.00000 -0.30068
      21     H     0.44832  0.44832  0.00000  0.10335
      22     H     0.45523  0.45523  0.00000  0.08954
      23     H     0.45448  0.45448  0.00000  0.09103
      24     H     0.45476  0.45476  0.00000  0.09049
      25     H     0.44708  0.44708  0.00000  0.10585

   Total alpha = 36.00000, Total beta = 36.00000, Total charge = -0.00000

*** Psi4 exiting successfully. Buy a developer a beer!
