  ==> Input File <==

--------------------------------------------------------------------------
set {
	reference rhf
	basis 6-31G*
}

set_num_threads( 1 )
memory 2 gb

molecule MOL {
0 1

O	 0.749854	 1.307668	 -0.000040
C	 0.576249	 0.131685	 -0.000108
C	 -0.766779	 -0.556801	 -0.000461
O	 1.568443	 -0.749345	 -0.000005
C	 -1.945214	 0.412366	 0.000161
H	 -0.796911	 -1.211249	 -0.867467
H	 -0.796854	 -1.212390	 0.865687
C	 -3.287791	 -0.317055	 0.000105
H	 -1.876087	 1.060580	 -0.866812
H	 -1.875822	 1.059691	 0.867761
H	 -3.394745	 -0.949193	 -0.877058
H	 -4.111778	 0.388953	 0.000015
H	 -3.394954	 -0.949187	 0.877259
C	 2.874062	 -0.246880	 0.219305
H	 3.142115	 0.463092	 -0.549869
H	 3.529569	 -1.102949	 0.182921
H	 2.939056	 0.233892	 1.184780

	symmetry c1
}
set optking {
	frozen_dihedral = ("
		1 2 3 6,
		9 5 3 6
	")
}

ee = energy('scf')
oeprop('DIPOLE', 'QUADRUPOLE', 'MULLIKEN_CHARGES')
f=open( 'psi4out.xyz', 'w' )
f.write( "17  " )
f.write( str(ee) + "\n" )
f.write( MOL.save_string_xyz() )
f.close()
--------------------------------------------------------------------------

    Molecular point group: c1

    Geometry (in Angstrom), charge = 0, multiplicity = 1:

       Center              X                  Y                   Z               Mass
    ------------   -----------------  -----------------  -----------------  -----------------
           O          0.751823808308     1.309882337274    -0.033849943255    15.994914619560
           C          0.578218808308     0.133899337274    -0.033917943255    12.000000000000
           C         -0.764809191692    -0.554586662726    -0.034270943255    12.000000000000
           O          1.570412808308    -0.747130662726    -0.033814943255    15.994914619560
           C         -1.943244191692     0.414580337274    -0.033648943255    12.000000000000
           H         -0.794941191692    -1.209034662726    -0.901276943255     1.007825032070
           H         -0.794884191692    -1.210175662726     0.831877056745     1.007825032070
           C         -3.285821191692    -0.314840662726    -0.033704943255    12.000000000000
           H         -1.874117191692     1.062794337274    -0.900621943255     1.007825032070
           H         -1.873852191692     1.061905337274     0.833951056745     1.007825032070
           H         -3.392775191692    -0.946978662726    -0.910867943255     1.007825032070
           H         -4.109808191692     0.391167337274    -0.033794943255     1.007825032070
           H         -3.392984191692    -0.946972662726     0.843449056745     1.007825032070
           C          2.876031808308    -0.244665662726     0.185495056745    12.000000000000
           H          3.144084808308     0.465306337274    -0.583678943255     1.007825032070
           H          3.531538808308    -1.100734662726     0.149111056745     1.007825032070
           H          2.941025808308     0.236106337274     1.150970056745     1.007825032070

  Charge       = 0
  Multiplicity = 1
  Basis Set: 6-31G*
  Basis Set:

    Orbital Energies (a.u.)
    -----------------------

    Doubly Occupied:

       1A    -20.603482     2A    -20.546080     3A    -11.372766
       4A    -11.281392     5A    -11.236090     6A    -11.221975
       7A    -11.214611     8A     -1.469598     9A     -1.363285
      10A     -1.080614    11A     -1.001413    12A     -0.940029
      13A     -0.827383    14A     -0.767396    15A     -0.700418
      16A     -0.683418    17A     -0.672333    18A     -0.637002
      19A     -0.595741    20A     -0.574830    21A     -0.568942
      22A     -0.527924    23A     -0.521624    24A     -0.498665
      25A     -0.487196    26A     -0.478887    27A     -0.456181
      28A     -0.437991

  @DF-RHF Final Energy:  -344.90620681635858

   => Energetics <=

    Nuclear Repulsion Energy =            312.4805956594311738
    One-Electron Energy =               -1089.2388852924100320
    Two-Electron Energy =                 431.8520828166198839
    DFT Exchange-Correlation Energy =       0.0000000000000000
    Empirical Dispersion Energy =           0.0000000000000000
    PCM Polarization Energy =               0.0000000000000000
    EFP Energy =                            0.0000000000000000
    Total Energy =                       -344.9062068163589743

  Mulliken Charges: (a.u.)
   Center  Symbol    Alpha    Beta     Spin     Total
       1     O     4.28525  4.28525  0.00000 -0.57050
       2     C     2.60601  2.60601  0.00000  0.78799
       3     C     3.20619  3.20619  0.00000 -0.41238
       4     O     4.30714  4.30714  0.00000 -0.61427
       5     C     3.15197  3.15197  0.00000 -0.30394
       6     H     0.40055  0.40055  0.00000  0.19891
       7     H     0.40145  0.40145  0.00000  0.19709
       8     C     3.24277  3.24277  0.00000 -0.48553
       9     H     0.41070  0.41070  0.00000  0.17859
      10     H     0.41110  0.41110  0.00000  0.17780
      11     H     0.42125  0.42125  0.00000  0.15750
      12     H     0.41512  0.41512  0.00000  0.16977
      13     H     0.42146  0.42146  0.00000  0.15708
      14     C     3.09281  3.09281  0.00000 -0.18561
      15     H     0.40673  0.40673  0.00000  0.18655
      16     H     0.40824  0.40824  0.00000  0.18352
      17     H     0.41128  0.41128  0.00000  0.17744

   Total alpha = 28.00000, Total beta = 28.00000, Total charge = -0.00000
