                              Psi4 1.0.54 Driver

  ==> Input File <==

--------------------------------------------------------------------------
set {
	reference rhf
	basis cc-pvtz
}

set_num_threads( 4 )
memory 2 gb

molecule MOL {
0 1

O	 -0.242604	 1.188814	 -0.773229
C	 -0.421007	 0.076519	 -0.411494
C	 -1.756569	 -0.608451	 -0.359105
O	 0.550743	 -0.719877	 0.000412
H	 -1.734774	 -1.494288	 -0.980573
H	 -2.522928	 0.067468	 -0.701683
H	 -1.963052	 -0.923711	 0.655494
C	 1.863204	 -0.194033	 0.000410
H	 2.031502	 0.409177	 -0.879273
H	 2.524488	 -1.045142	 0.000793
H	 2.031291	 0.409823	 0.879686

	symmetry c1
}
set optking {
	frozen_dihedral = ("
		2 4 8 9
	")
}

ee,wfn = optimize('scf', return_wfn=True)
oeprop( wfn, 'DIPOLE', 'QUADRUPOLE', 'MULLIKEN_CHARGES')
f=open( 'psi4out.xyz', 'w' )
f.write( "11  " )
f.write( str(ee) + "\n" )
f.write( MOL.save_string_xyz() )
f.close()
--------------------------------------------------------------------------

    Molecular point group: c1
  Charge       = 0
  Multiplicity = 1
  Basis Set: CC-PVTZ
  Basis Set:
  @DF-RHF Final Energy:  -266.93856224454197
    Total Energy =                       -266.9385622445419131
    Molecular point group: c1
  Basis Set: CC-PVTZ
  Basis Set:
  Basis Set: CC-PVTZ
  Basis Set:
  @DF-RHF Final Energy:  -266.93860767316210
    Total Energy =                       -266.9386076731619823
  Basis Set: CC-PVTZ
  Basis Set:
  Basis Set: CC-PVTZ
  Basis Set:
  @DF-RHF Final Energy:  -266.93849821096666
    Total Energy =                       -266.9384982109668272
  Basis Set: CC-PVTZ
  Basis Set:
  Basis Set: CC-PVTZ
  Basis Set:
  @DF-RHF Final Energy:  -266.93865338393721
    Total Energy =                       -266.9386533839374920
  Basis Set: CC-PVTZ
  Basis Set:
  Charge       = 0
  Multiplicity = 1
  Basis Set: CC-PVTZ
  Basis Set:

    Orbital Energies (a.u.)
    -----------------------

    Doubly Occupied:

       1A    -20.598490     2A    -20.535102     3A    -11.369194
       4A    -11.279602     5A    -11.233083     6A     -1.473619
       7A     -1.367820     8A     -1.037021     9A     -0.953845
      10A     -0.780044    11A     -0.698640    12A     -0.683723
      13A     -0.681139    14A     -0.596521    15A     -0.593231
      16A     -0.561983    17A     -0.528095    18A     -0.524024
      19A     -0.461393    20A     -0.445848

  @DF-RHF Final Energy:  -266.93866011475097

   => Energetics <=

    Nuclear Repulsion Energy =            183.5862527777571529
    One-Electron Energy =                -728.2449967265266650
    Two-Electron Energy =                 277.7200838340182827
    DFT Exchange-Correlation Energy =       0.0000000000000000
    Empirical Dispersion Energy =           0.0000000000000000
    PCM Polarization Energy =               0.0000000000000000
    EFP Energy =                            0.0000000000000000
    Total Energy =                       -266.9386601147512010
    Molecular point group: c1
  Basis Set: CC-PVTZ
  Basis Set:

  -Total Gradient:
     Atom            X                  Y                   Z
    ------   -----------------  -----------------  -----------------
       1        0.000065902533    -0.000022991999     0.000034726093
       2        0.000101039263    -0.000402768848    -0.001247774444
       3        0.000002332272    -0.000030774241     0.000002088215
       4       -0.000342357714     0.000987767345     0.001949883844
       5       -0.000005766332    -0.000007552768     0.000007617362
       6        0.000012244026     0.000005885240     0.000000221018
       7       -0.000007598575    -0.000001735667     0.000004975420
       8        0.000732807401    -0.001698309447    -0.001459430716
       9       -0.000491623793     0.001202822765     0.000719517064
      10       -0.000008474721    -0.000005092104    -0.000008059522
      11       -0.000058504361    -0.000027250276    -0.000003764334

  **** Optimization is complete! (in 5 steps) ****
    Final optimized geometry and variables:
    Molecular point group: c1

    Geometry (in Angstrom), charge = 0, multiplicity = 1:

    O           -0.274283084674     1.248200937754    -0.456271638351
    C           -0.443190873144     0.131753945133    -0.103143897108
    C           -1.773594824444    -0.564043528645    -0.059453194477
    O            0.531146403223    -0.661984990263     0.308647846378
    H           -1.743378059039    -1.445466263035    -0.686758035185
    H           -2.544198845982     0.108521340711    -0.399103676354
    H           -1.980066794368    -0.887661925996     0.952524640589
    C            1.850755169461    -0.153331593342     0.295090170804
    H            2.025353775655     0.438081732668    -0.589034024076
    H            2.505880715439    -1.008836083238     0.321156500847
    H            2.018064733200     0.464579732118     1.166538904699

  Mulliken Charges: (a.u.)
   Center  Symbol    Alpha    Beta     Spin     Total
       1     O     4.19703  4.19703  0.00000 -0.39406
       2     C     2.80066  2.80066  0.00000  0.39868
       3     C     3.13859  3.13859  0.00000 -0.27717
       4     O     4.14832  4.14832  0.00000 -0.29663
       5     H     0.44570  0.44570  0.00000  0.10859
       6     H     0.43789  0.43789  0.00000  0.12422
       7     H     0.44520  0.44520  0.00000  0.10960
       8     C     3.03385  3.03385  0.00000 -0.06769
       9     H     0.44974  0.44974  0.00000  0.10053
      10     H     0.44649  0.44649  0.00000  0.10702
      11     H     0.45654  0.45654  0.00000  0.08692

   Total alpha = 20.00000, Total beta = 20.00000, Total charge = -0.00000

*** Psi4 exiting successfully. Buy a developer a beer!
