  ==> Input File <==

--------------------------------------------------------------------------
set {
	reference rhf
	basis 6-31G*
}

set_num_threads( 1 )
memory 2 gb

molecule MOL {
0 1

H	 -3.420663	 1.227371	 -1.044276
O	 -3.452007	 0.283848	 -0.965577
C	 -3.181085	 -0.079926	 0.364119
C	 -1.765924	 0.277073	 0.805136
H	 -3.327791	 -1.152017	 0.410903
H	 -3.905698	 0.375695	 1.036898
C	 -1.721079	 1.238638	 1.993370
H	 -1.230017	 -0.639442	 1.053663
H	 -1.242519	 0.713030	 -0.044105
C	 -0.296873	 1.572521	 2.442075
H	 -2.274861	 0.807711	 2.821825
H	 -2.239553	 2.157673	 1.725128
C	 -0.259990	 2.540112	 3.628032
H	 0.218329	 0.650051	 2.699049
H	 0.253004	 2.007208	 1.608236
C	 1.145861	 2.974629	 4.058071
H	 -0.770720	 2.088131	 4.476892
H	 -0.831649	 3.429051	 3.369556
C	 2.013248	 1.849696	 4.626023
H	 1.050212	 3.753909	 4.810309
H	 1.655524	 3.431583	 3.212116
H	 1.522859	 1.365535	 5.466408
H	 2.964547	 2.236775	 4.978213
H	 2.227592	 1.087561	 3.884153

	symmetry c1
}
set optking {
	frozen_dihedral = ("
		20 16 13 17,
		17 13 10 7,
		13 10 7 11,
		11 7 4 3,
		1 2 3 5
	")
}

ee = energy('scf')
oeprop('DIPOLE', 'QUADRUPOLE', 'MULLIKEN_CHARGES')
f=open( 'psi4out.xyz', 'w' )
f.write( "24  " )
f.write( str(ee) + "\n" )
f.write( MOL.save_string_xyz() )
f.close()
--------------------------------------------------------------------------

    Molecular point group: c1

    Geometry (in Angstrom), charge = 0, multiplicity = 1:

       Center              X                  Y                   Z               Mass
    ------------   -----------------  -----------------  -----------------  -----------------
           H         -2.443836201837    -0.087965840960    -3.114022466614     1.007825032070
           O         -2.475180201837    -1.031488840960    -3.035323466614    15.994914619560
           C         -2.204258201837    -1.395262840960    -1.705627466614    12.000000000000
           C         -0.789097201837    -1.038263840960    -1.264610466614    12.000000000000
           H         -2.350964201837    -2.467353840960    -1.658843466614     1.007825032070
           H         -2.928871201837    -0.939641840960    -1.032848466614     1.007825032070
           C         -0.744252201837    -0.076698840960    -0.076376466614    12.000000000000
           H         -0.253190201837    -1.954778840960    -1.016083466614     1.007825032070
           H         -0.265692201837    -0.602306840960    -2.113851466614     1.007825032070
           C          0.679953798163     0.257184159040     0.372328533386    12.000000000000
           H         -1.298034201837    -0.507625840960     0.752078533386     1.007825032070
           H         -1.262726201837     0.842336159040    -0.344618466614     1.007825032070
           C          0.716836798163     1.224775159040     1.558285533386    12.000000000000
           H          1.195155798163    -0.665285840960     0.629302533386     1.007825032070
           H          1.229830798163     0.691871159040    -0.461510466614     1.007825032070
           C          2.122687798163     1.659292159040     1.988324533386    12.000000000000
           H          0.206106798163     0.772794159040     2.407145533386     1.007825032070
           H          0.145177798163     2.113714159040     1.299809533386     1.007825032070
           C          2.990074798163     0.534359159040     2.556276533386    12.000000000000
           H          2.027038798163     2.438572159040     2.740562533386     1.007825032070
           H          2.632350798163     2.116246159040     1.142369533386     1.007825032070
           H          2.499685798163     0.050198159040     3.396661533386     1.007825032070
           H          3.941373798163     0.921438159040     2.908466533386     1.007825032070
           H          3.204418798163    -0.227775840960     1.814406533386     1.007825032070

  Charge       = 0
  Multiplicity = 1
  Basis Set: 6-31G*
  Basis Set:

    Orbital Energies (a.u.)
    -----------------------

    Doubly Occupied:

       1A    -20.550926     2A    -11.265474     3A    -11.220066
       4A    -11.216999     5A    -11.216595     6A    -11.215582
       7A    -11.214396     8A    -11.209511     9A     -1.357930
      10A     -1.093240    11A     -1.051575    12A     -0.986939
      13A     -0.916098    14A     -0.851739    15A     -0.803876
      16A     -0.780206    17A     -0.687216    18A     -0.657803
      19A     -0.623457    20A     -0.614887    21A     -0.597688
      22A     -0.585474    23A     -0.558445    24A     -0.539018
      25A     -0.532653    26A     -0.507424    27A     -0.492579
      28A     -0.485014    29A     -0.475040    30A     -0.462717
      31A     -0.457074    32A     -0.441769    33A     -0.422109

  @DF-RHF Final Energy:  -349.24081566627433

   => Energetics <=

    Nuclear Repulsion Energy =            381.1456715817256509
    One-Electron Energy =               -1228.5897534833093232
    Two-Electron Energy =                 498.2032662353088313
    DFT Exchange-Correlation Energy =       0.0000000000000000
    Empirical Dispersion Energy =           0.0000000000000000
    PCM Polarization Energy =               0.0000000000000000
    EFP Energy =                            0.0000000000000000
    Total Energy =                       -349.2408156662748411

  Mulliken Charges: (a.u.)
   Center  Symbol    Alpha    Beta     Spin     Total
       1     H     0.28410  0.28410  0.00000  0.43180
       2     O     4.37000  4.37000  0.00000 -0.74000
       3     C     2.99450  2.99450  0.00000  0.01099
       4     C     3.17464  3.17464  0.00000 -0.34928
       5     H     0.41447  0.41447  0.00000  0.17105
       6     H     0.42838  0.42838  0.00000  0.14323
       7     C     3.15775  3.15775  0.00000 -0.31550
       8     H     0.41808  0.41808  0.00000  0.16384
       9     H     0.41399  0.41399  0.00000  0.17201
      10     C     3.15393  3.15393  0.00000 -0.30785
      11     H     0.42135  0.42135  0.00000  0.15730
      12     H     0.42663  0.42663  0.00000  0.14673
      13     C     3.15244  3.15244  0.00000 -0.30488
      14     H     0.42038  0.42038  0.00000  0.15924
      15     H     0.42349  0.42349  0.00000  0.15302
      16     C     3.15240  3.15240  0.00000 -0.30480
      17     H     0.42410  0.42410  0.00000  0.15179
      18     H     0.42282  0.42282  0.00000  0.15435
      19     C     3.24131  3.24131  0.00000 -0.48263
      20     H     0.42082  0.42082  0.00000  0.15836
      21     H     0.42328  0.42328  0.00000  0.15344
      22     H     0.42225  0.42225  0.00000  0.15550
      23     H     0.41894  0.41894  0.00000  0.16212
      24     H     0.41992  0.41992  0.00000  0.16017

   Total alpha = 33.00000, Total beta = 33.00000, Total charge = -0.00000
