  ==> Input File <==

--------------------------------------------------------------------------
set {
	reference rhf
	basis cc-pvtz
}

set_num_threads( 4 )
memory 2 gb

molecule MOL {
0 1

H	 2.420017	 -2.856325	 2.155545
C	 2.468937	 -2.175652	 1.313880
C	 1.190452	 -1.352935	 1.198708
H	 3.334106	 -1.536800	 1.456671
H	 2.639811	 -2.767372	 0.420747
C	 1.215950	 -0.382441	 0.027187
H	 1.025124	 -0.791050	 2.111241
H	 0.340416	 -2.022343	 1.089589
N	 0.000002	 0.398953	 -0.040851
H	 2.049812	 0.302657	 0.147532
H	 1.403102	 -0.935991	 -0.897821
C	 -1.215959	 -0.382435	 0.027143
H	 -0.000012	 1.086078	 0.683841
C	 -2.451944	 0.502410	 -0.038737
H	 -1.221867	 -1.069392	 -0.813828
H	 -1.259993	 -0.999709	 0.929424
C	 -3.752217	 -0.292550	 0.005776
H	 -2.407325	 1.093801	 -0.946480
H	 -2.431979	 1.206234	 0.790023
H	 -3.817783	 -0.982946	 -0.828547
H	 -4.612613	 0.364348	 -0.042306
H	 -3.830160	 -0.871666	 0.919868

	symmetry c1
}
set optking {
	frozen_dihedral = ("
		10 6 9 12
	")
}

ee = optimize('scf')
oeprop('DIPOLE', 'QUADRUPOLE', 'MULLIKEN_CHARGES')
f=open( 'psi4out.xyz', 'w' )
f.write( "22  " )
f.write( str(ee) + "\n" )
f.write( MOL.save_string_xyz() )
f.close()
--------------------------------------------------------------------------

    Molecular point group: c1
  Charge       = 0
  Multiplicity = 1
  Basis Set: CC-PVTZ
  Basis Set:
  @DF-RHF Final Energy:  -290.48174048950403
    Total Energy =                       -290.4817404895038635
    Molecular point group: c1
  Basis Set: CC-PVTZ
  Basis Set:
  Basis Set: CC-PVTZ
  Basis Set:
  @DF-RHF Final Energy:  -290.48334394743097
    Total Energy =                       -290.4833439474306260
  Basis Set: CC-PVTZ
  Basis Set:
  Basis Set: CC-PVTZ
  Basis Set:
  @DF-RHF Final Energy:  -290.48604003836562
    Total Energy =                       -290.4860400383655588
  Basis Set: CC-PVTZ
  Basis Set:
  Basis Set: CC-PVTZ
  Basis Set:
  @DF-RHF Final Energy:  -290.48639077495261
    Total Energy =                       -290.4863907749524401
  Basis Set: CC-PVTZ
  Basis Set:
  Basis Set: CC-PVTZ
  Basis Set:
  @DF-RHF Final Energy:  -290.48642797475077
    Total Energy =                       -290.4864279747507680
  Basis Set: CC-PVTZ
  Basis Set:
  Basis Set: CC-PVTZ
  Basis Set:
  @DF-RHF Final Energy:  -290.48643402155608
    Total Energy =                       -290.4864340215557945
  Basis Set: CC-PVTZ
  Basis Set:
  Charge       = 0
  Multiplicity = 1
  Basis Set: CC-PVTZ
  Basis Set:

    Orbital Energies (a.u.)
    -----------------------

    Doubly Occupied:

       1A    -15.527182     2A    -11.236948     3A    -11.235550
       4A    -11.211175     5A    -11.209999     6A    -11.208466
       7A    -11.206613     8A     -1.203964     9A     -1.057570
      10A     -1.027878    11A     -0.929885    12A     -0.873229
      13A     -0.811087    14A     -0.791503    15A     -0.669557
      16A     -0.631269    17A     -0.617052    18A     -0.602944
      19A     -0.579500    20A     -0.556859    21A     -0.541486
      22A     -0.523724    23A     -0.502732    24A     -0.496367
      25A     -0.484198    26A     -0.469375    27A     -0.466066
      28A     -0.462701    29A     -0.354771

  @DF-RHF Final Energy:  -290.48643504329038

   => Energetics <=

    Nuclear Repulsion Energy =            317.8694411947802791
    One-Electron Energy =               -1021.7324670473033166
    Two-Electron Energy =                 413.3765908092326526
    DFT Exchange-Correlation Energy =       0.0000000000000000
    Empirical Dispersion Energy =           0.0000000000000000
    PCM Polarization Energy =               0.0000000000000000
    EFP Energy =                            0.0000000000000000
    Total Energy =                       -290.4864350432903848
    Molecular point group: c1
  Basis Set: CC-PVTZ
  Basis Set:

  -Total Gradient:
     Atom            X                  Y                   Z
    ------   -----------------  -----------------  -----------------
       1       -0.000006066051     0.000002664333    -0.000003023830
       2       -0.000015801304    -0.000005351139    -0.000016726439
       3        0.000017890904    -0.000021704254     0.000035548714
       4       -0.000006401288     0.000002021255     0.000002623213
       5        0.000011572709    -0.000003133124    -0.000002478614
       6        0.000374095559     0.000468748309    -0.002939571376
       7       -0.000006197610     0.000006599930     0.000000295615
       8       -0.000009564657    -0.000007224429     0.000006827099
       9       -0.000107273473    -0.000439840540    -0.003336983534
      10       -0.000295961415    -0.000240057088     0.003470285038
      11       -0.000021855231     0.000016202182    -0.000003581948
      12        0.000054447894     0.000253111037     0.002774789466
      13        0.000029184605    -0.000008180945    -0.000005479509
      14       -0.000005612683    -0.000011847512     0.000000883656
      15       -0.000011049549    -0.000009723818    -0.000003029859
      16        0.000002701064    -0.000015571733     0.000020112366
      17        0.000001447686     0.000002882675     0.000005148061
      18       -0.000002229656     0.000006322301    -0.000003038821
      19       -0.000003197187     0.000003818243    -0.000000879854
      20        0.000000601500     0.000001489179     0.000000570679
      21       -0.000000670833    -0.000000339285    -0.000000471116
      22       -0.000000060982    -0.000000885578    -0.000001819004

  **** Optimization is complete! (in 7 steps) ****
    Final optimized geometry and variables:
    Molecular point group: c1

    Geometry (in Angstrom), charge = 0, multiplicity = 1:

    H            3.091049638434    -2.341723524168     1.658091228002
    C            3.022990919321    -1.601541004028     0.869577645813
    C            1.652046161724    -0.932773175624     0.855517618636
    H            3.813489091432    -0.875563155554     1.028859101287
    H            3.222945306208    -2.103630871643    -0.071368347941
    C            1.534730758142     0.108394945971    -0.260899388041
    H            1.471154665503    -0.451584939120     1.813798711272
    H            0.887111298905    -1.693095695398     0.742456087622
    N            0.312320741405     0.888704836480    -0.313221970951
    H            2.352536206258     0.810839130949    -0.139438772729
    H            1.674024964836    -0.382313517757    -1.220046989896
    C           -0.937080176828     0.159028709663    -0.249053480678
    H            0.328193164579     1.587188525936     0.399214819954
    C           -2.120245240554     1.081806804517    -0.505617713689
    H           -0.915162366441    -0.613812019553    -1.012738530632
    H           -1.085424318819    -0.351760785027     0.703101437389
    C           -3.459991062706     0.355674871681    -0.455893216043
    H           -1.987278248675     1.556702030261    -1.471021414494
    H           -2.115199405675     1.879640287469     0.233346798487
    H           -3.508071620364    -0.429501407513    -1.203238269256
    H           -4.280727637636     1.038102200022    -0.642739985125
    H           -3.626205536587    -0.101833482377     0.513793487750

  Mulliken Charges: (a.u.)
   Center  Symbol    Alpha    Beta     Spin     Total
       1     H     0.44741  0.44741  0.00000  0.10518
       2     C     3.15207  3.15207  0.00000 -0.30413
       3     C     3.08869  3.08869  0.00000 -0.17738
       4     H     0.45491  0.45491  0.00000  0.09017
       5     H     0.45485  0.45485  0.00000  0.09031
       6     C     3.04470  3.04470  0.00000 -0.08941
       7     H     0.45731  0.45731  0.00000  0.08537
       8     H     0.45228  0.45228  0.00000  0.09543
       9     N     3.64224  3.64224  0.00000 -0.28448
      10     H     0.45199  0.45199  0.00000  0.09602
      11     H     0.45325  0.45325  0.00000  0.09349
      12     C     3.02590  3.02590  0.00000 -0.05179
      13     H     0.44516  0.44516  0.00000  0.10968
      14     C     3.07973  3.07973  0.00000 -0.15945
      15     H     0.45888  0.45888  0.00000  0.08224
      16     H     0.46894  0.46894  0.00000  0.06211
      17     C     3.15388  3.15388  0.00000 -0.30776
      18     H     0.44902  0.44902  0.00000  0.10197
      19     H     0.45940  0.45940  0.00000  0.08119
      20     H     0.45512  0.45512  0.00000  0.08976
      21     H     0.44764  0.44764  0.00000  0.10471
      22     H     0.45662  0.45662  0.00000  0.08676

   Total alpha = 29.00000, Total beta = 29.00000, Total charge = -0.00000
