                              Psi4 1.0.54 Driver

  ==> Input File <==

--------------------------------------------------------------------------
set {
	reference rhf
	basis cc-pvtz
}

set_num_threads( 4 )
memory 2 gb

molecule MOL {
0 1

H	 0.705678	 -1.968183	 -0.899450
C	 -0.021812	 -1.184023	 -1.116938
N	 -0.537714	 -0.645117	 0.000000
O	 -0.295524	 -0.875005	 -2.233319
C	 -1.522613	 0.412524	 0.000000
H	 -0.217502	 -1.000693	 0.866610
H	 -2.150256	 0.356137	 -0.880771
H	 -1.005621	 1.357208	 0.000000
H	 -2.150256	 0.356137	 0.880771

	symmetry c1
}
set optking {
	frozen_dihedral = ("
		6 3 5 7
	")
}

ee,wfn = optimize('scf', return_wfn=True)
oeprop( wfn, 'DIPOLE', 'QUADRUPOLE', 'MULLIKEN_CHARGES')
f=open( 'psi4out.xyz', 'w' )
f.write( "9  " )
f.write( str(ee) + "\n" )
f.write( MOL.save_string_xyz() )
f.close()
--------------------------------------------------------------------------

    Molecular point group: c1
  Charge       = 0
  Multiplicity = 1
  Basis Set: CC-PVTZ
  Basis Set:
  @DF-RHF Final Energy:  -208.04290464744832
    Total Energy =                       -208.0429046474483243
    Molecular point group: c1
  Basis Set: CC-PVTZ
  Basis Set:
  Basis Set: CC-PVTZ
  Basis Set:
  @DF-RHF Final Energy:  -206.89358728272231
    Total Energy =                       -206.8935872827222795
  Basis Set: CC-PVTZ
  Basis Set:
  Basis Set: CC-PVTZ
  Basis Set:
  @DF-RHF Final Energy:  -207.03642353599366
    Total Energy =                       -207.0364235359936060
  Basis Set: CC-PVTZ
  Basis Set:
  Basis Set: CC-PVTZ
  Basis Set:
  @DF-RHF Final Energy:  -207.34692049697105
    Total Energy =                       -207.3469204969711370
  Basis Set: CC-PVTZ
  Basis Set:
  @DF-RHF Final Energy:  -207.67085255677353
    Total Energy =                       -207.6708525567735251
  @DF-RHF Final Energy:  -207.83152307098882
    Total Energy =                       -207.8315230709887942
  @DF-RHF Final Energy:  -207.76529145402870
    Total Energy =                       -207.7652914540288691
  @DF-RHF Final Energy:  -207.91501196450844
    Total Energy =                       -207.9150119645084658
  @DF-RHF Final Energy:  -207.85788610733727
    Total Energy =                       -207.8578861073372650
  @DF-RHF Final Energy:  -207.89929004759972
    Total Energy =                       -207.8992900475996066
  @DF-RHF Final Energy:  -207.95384229659618
    Total Energy =                       -207.9538422965960649
  @DF-RHF Final Energy:  -207.78862304851265
    Total Energy =                       -207.7886230485125907
  @DF-RHF Final Energy:  -207.70952070871505
    Total Energy =                       -207.7095207087150470
  @DF-RHF Final Energy:  -207.69981765068357
    Total Energy =                       -207.6998176506835136
  @DF-RHF Final Energy:  -207.68638988037486
    Total Energy =                       -207.6863898803748896
  @DF-RHF Final Energy:  -207.88949327130283
    Total Energy =                       -207.8894932713029107
  @DF-RHF Final Energy:  -207.90675334562468
    Total Energy =                       -207.9067533456246224
  @DF-RHF Final Energy:  -207.94881740490263
    Total Energy =                       -207.9488174049025986
  @DF-RHF Final Energy:  -208.01015075053527
    Total Energy =                       -208.0101507505353595
  @DF-RHF Final Energy:  -208.03943275583632
    Total Energy =                       -208.0394327558363727
  @DF-RHF Final Energy:  -208.02990782368045
    Total Energy =                       -208.0299078236802757
  @DF-RHF Final Energy:  -207.73088954785177
    Total Energy =                       -207.7308895478518025
  @DF-RHF Final Energy:  -207.93515427832375
    Total Energy =                       -207.9351542783238926
  @DF-RHF Final Energy:  -207.98111950390626
    Total Energy =                       -207.9811195039061715
  @DF-RHF Final Energy:  -208.01381503060230
    Total Energy =                       -208.0138150306022169
  @DF-RHF Final Energy:  -208.03821365364107
    Total Energy =                       -208.0382136536409803
  @DF-RHF Final Energy:  -208.04184701151513
    Total Energy =                       -208.0418470115152445
  @DF-RHF Final Energy:  -208.04301932801195
    Total Energy =                       -208.0430193280120363
  @DF-RHF Final Energy:  -208.04144041605292
    Total Energy =                       -208.0414404160530921
  @DF-RHF Final Energy:  -208.04359355493469
    Total Energy =                       -208.0435935549347164
  Basis Set: CC-PVTZ
  Basis Set:
  @DF-RHF Final Energy:  -208.04324150365380
    Total Energy =                       -208.0432415036538316
  Basis Set: CC-PVTZ
  Basis Set:
  Basis Set: CC-PVTZ
  Basis Set:
  @DF-RHF Final Energy:  -208.04365784145199
    Total Energy =                       -208.0436578414521591
  Basis Set: CC-PVTZ
  Basis Set:
  Basis Set: CC-PVTZ
  Basis Set:
  @DF-RHF Final Energy:  -208.04367411191333
    Total Energy =                       -208.0436741119133330
  Basis Set: CC-PVTZ
  Basis Set:
  Charge       = 0
  Multiplicity = 1
  Basis Set: CC-PVTZ
  Basis Set:

    Orbital Energies (a.u.)
    -----------------------

    Doubly Occupied:

       1A    -20.516873     2A    -15.584594     3A    -11.336699
       4A    -11.259959     5A     -1.394157     6A     -1.239560
       7A     -0.969856     8A     -0.808674     9A     -0.748843
      10A     -0.646209    11A     -0.629869    12A     -0.596286
      13A     -0.557962    14A     -0.538884    15A     -0.428663
      16A     -0.396692

  @DF-RHF Final Energy:  -208.04367460296714

   => Energetics <=

    Nuclear Repulsion Energy =            122.8482082581197261
    One-Electron Energy =                -526.4762090677330661
    Two-Electron Energy =                 195.5843262066461818
    DFT Exchange-Correlation Energy =       0.0000000000000000
    Empirical Dispersion Energy =           0.0000000000000000
    PCM Polarization Energy =               0.0000000000000000
    EFP Energy =                            0.0000000000000000
    Total Energy =                       -208.0436746029671724
    Molecular point group: c1
  Basis Set: CC-PVTZ
  Basis Set:

  -Total Gradient:
     Atom            X                  Y                   Z
    ------   -----------------  -----------------  -----------------
       1       -0.000001140524    -0.000049923620    -0.000049851940
       2       -0.000034739135     0.000044069498    -0.000006558804
       3        0.000088939094     0.000076657100     0.000020659977
       4        0.000023808778    -0.000035358085     0.000017812864
       5       -0.000023162550     0.000021111213     0.000034593198
       6       -0.000066474494    -0.000047512412     0.000042955561
       7       -0.000052078369    -0.000038821078     0.000043643301
       8        0.000059093073     0.000019399761    -0.000105763542
       9        0.000005754127     0.000010377624     0.000002509385

  **** Optimization is complete! (in 30 steps) ****
    Final optimized geometry and variables:
    Molecular point group: c1

    Geometry (in Angstrom), charge = 0, multiplicity = 1:

    H           -0.476784373942    -0.953160527091    -1.606384457373
    C           -0.055635257455    -0.608101824610    -0.660079946036
    N           -0.527327829921     0.594028369103    -0.291313911245
    O            0.743284145464    -1.249023589215    -0.053899578546
    C           -0.159502528303     1.225774125661     0.955992192240
    H           -1.255349158565     0.988346082979    -0.833538814447
    H            0.887740623860     1.055284357924     1.149285799211
    H           -0.728717278416     0.834755923997     1.791080171922
    H           -0.334862255897     2.289528416188     0.879223826093

  Mulliken Charges: (a.u.)
   Center  Symbol    Alpha    Beta     Spin     Total
       1     H     0.46385  0.46385  0.00000  0.07230
       2     C     2.88037  2.88037  0.00000  0.23925
       3     N     3.60623  3.60623  0.00000 -0.21246
       4     O     4.21395  4.21395  0.00000 -0.42790
       5     C     3.07755  3.07755  0.00000 -0.15509
       6     H     0.41053  0.41053  0.00000  0.17895
       7     H     0.43887  0.43887  0.00000  0.12227
       8     H     0.45475  0.45475  0.00000  0.09049
       9     H     0.45390  0.45390  0.00000  0.09220

   Total alpha = 16.00000, Total beta = 16.00000, Total charge = -0.00000

*** Psi4 exiting successfully. Buy a developer a beer!
