  ==> Input File <==

--------------------------------------------------------------------------
set {
	reference rhf
	basis 6-31G*
}

set_num_threads( 4 )
memory 2 gb

molecule MOL {
0 1

O	 -1.276010	 1.052711	 -0.768302
C	 -1.204840	 0.067374	 -0.106123
C	 -2.388195	 -0.672128	 0.458071
O	 -0.067104	 -0.527208	 0.221609
H	 -2.388023	 -1.694060	 0.097175
H	 -3.300579	 -0.174919	 0.164318
H	 -2.315377	 -0.706351	 1.539059
C	 1.170111	 0.034140	 -0.238951
C	 2.156850	 -0.139031	 0.902077
C	 0.960409	 1.488857	 -0.629423
H	 1.491295	 -0.532711	 -1.100362
H	 2.264972	 -1.186640	 1.159123
H	 3.130155	 0.246046	 0.616201
H	 1.821386	 0.396497	 1.783738
H	 1.898168	 1.926122	 -0.957179
H	 0.248355	 1.569786	 -1.440844
H	 0.594638	 2.059935	 0.217978

	symmetry c1
}
set optking {
	frozen_dihedral = ("
		11 8 4 2
	")
}

ee = optimize('scf')
oeprop('DIPOLE', 'QUADRUPOLE', 'MULLIKEN_CHARGES')
f=open( 'psi4out.xyz', 'w' )
f.write( "17  " )
f.write( str(ee) + "\n" )
f.write( MOL.save_string_xyz() )
f.close()
--------------------------------------------------------------------------

    Molecular point group: c1
  Charge       = 0
  Multiplicity = 1
  Basis Set: 6-31G*
  Basis Set:
  @DF-RHF Final Energy:  -344.87389156646020
    Total Energy =                       -344.8738915664602018
    Molecular point group: c1
  Basis Set: 6-31G*
  Basis Set:
  Basis Set: 6-31G*
  Basis Set:
  @DF-RHF Final Energy:  -344.89747000553871
    Total Energy =                       -344.8974700055387075
  Basis Set: 6-31G*
  Basis Set:
  Basis Set: 6-31G*
  Basis Set:
  @DF-RHF Final Energy:  -344.90236281997727
    Total Energy =                       -344.9023628199773839
  Basis Set: 6-31G*
  Basis Set:
  Basis Set: 6-31G*
  Basis Set:
  @DF-RHF Final Energy:  -344.90351521237108
    Total Energy =                       -344.9035152123714170
  Basis Set: 6-31G*
  Basis Set:
  @DF-RHF Final Energy:  -344.90414752774558
    Total Energy =                       -344.9041475277459767
  Basis Set: 6-31G*
  Basis Set:
  @DF-RHF Final Energy:  -344.90451959610425
    Total Energy =                       -344.9045195961039099
  Basis Set: 6-31G*
  Basis Set:
  Basis Set: 6-31G*
  Basis Set:
  @DF-RHF Final Energy:  -344.90453462639107
    Total Energy =                       -344.9045346263907845
  Basis Set: 6-31G*
  Basis Set:
  Basis Set: 6-31G*
  Basis Set:
  @DF-RHF Final Energy:  -344.90453658931386
    Total Energy =                       -344.9045365893138069
  Basis Set: 6-31G*
  Basis Set:
  Charge       = 0
  Multiplicity = 1
  Basis Set: 6-31G*
  Basis Set:

    Orbital Energies (a.u.)
    -----------------------

    Doubly Occupied:

       1A    -20.596585     2A    -20.539960     3A    -11.374956
       4A    -11.297114     5A    -11.229938     6A    -11.219673
       7A    -11.213201     8A     -1.459218     9A     -1.361298
      10A     -1.080325    11A     -1.002695    12A     -0.946099
      13A     -0.860375    14A     -0.746386    15A     -0.687773
      16A     -0.679047    17A     -0.656062    18A     -0.613485
      19A     -0.585481    20A     -0.579096    21A     -0.555246
      22A     -0.546818    23A     -0.542447    24A     -0.515951
      25A     -0.502740    26A     -0.485697    27A     -0.441391
      28A     -0.427897

  @DF-RHF Final Energy:  -344.90453730946001

   => Energetics <=

    Nuclear Repulsion Energy =            323.4452473894264131
    One-Electron Energy =               -1111.2056625336695106
    Two-Electron Energy =                 442.8558778347828024
    DFT Exchange-Correlation Energy =       0.0000000000000000
    Empirical Dispersion Energy =           0.0000000000000000
    PCM Polarization Energy =               0.0000000000000000
    EFP Energy =                            0.0000000000000000
    Total Energy =                       -344.9045373094602951
    Molecular point group: c1
  Basis Set: 6-31G*
  Basis Set:

  -Total Gradient:
     Atom            X                  Y                   Z
    ------   -----------------  -----------------  -----------------
       1       -0.000008433129     0.000050445964    -0.000060743804
       2       -0.000015368923     0.002496343473     0.003875655822
       3       -0.000002500093     0.000071156723     0.000058720392
       4        0.000383520982    -0.004594747483    -0.005357676633
       5       -0.000006733076    -0.000009680855    -0.000023001371
       6        0.000006576704    -0.000012629450    -0.000008749053
       7       -0.000004169137    -0.000032189076     0.000009013348
       8       -0.002765524307     0.004949869240    -0.001395143156
       9        0.000047209807     0.000012876899    -0.000031635198
      10        0.000013559392     0.000010185437     0.000026944460
      11        0.002311284492    -0.002920096781     0.002941301355
      12        0.000010408659     0.000001741526     0.000004924962
      13        0.000008516570    -0.000004484022     0.000018395397
      14       -0.000003010090    -0.000003449595    -0.000016833658
      15        0.000016375144     0.000020974345     0.000002144214
      16       -0.000017475457    -0.000010095062    -0.000052965862
      17        0.000025762466    -0.000026221280     0.000009648785

  **** Optimization is complete! (in 9 steps) ****
    Final optimized geometry and variables:
    Molecular point group: c1

    Geometry (in Angstrom), charge = 0, multiplicity = 1:

    O           -1.410692800983     0.695393579637    -0.900140137325
    C           -1.173606987031    -0.173676074762    -0.125849198517
    C           -2.227962488032    -0.932166589255     0.639344396024
    O            0.030987129751    -0.635639967563     0.172773439160
    H           -2.154541053956    -1.989593466141     0.413058285991
    H           -3.206224700400    -0.563166194847     0.369407076837
    H           -2.065958633379    -0.813136960215     1.704437785643
    C            1.289923069359    -0.056586876322    -0.217946136417
    C            2.218482465938    -0.355016341564     0.952402884501
    C            1.275860478292     1.428466550006    -0.553204961193
    H            1.630939358266    -0.636704064423    -1.067236262812
    H            2.199499243625    -1.411246786543     1.193477248982
    H            3.237476233906    -0.076705934971     0.704813724575
    H            1.913357435906     0.202131959147     1.832143927676
    H            2.305411978099     1.746169313417    -0.687604770324
    H            0.722538338975     1.647462050779    -1.451348411533
    H            0.850901223361     2.005918559345     0.260455410108

  Mulliken Charges: (a.u.)
   Center  Symbol    Alpha    Beta     Spin     Total
       1     O     4.28296  4.28296  0.00000 -0.56592
       2     C     2.61717  2.61717  0.00000  0.76566
       3     C     3.28021  3.28021  0.00000 -0.56042
       4     O     4.32219  4.32219  0.00000 -0.64437
       5     H     0.40111  0.40111  0.00000  0.19778
       6     H     0.39827  0.39827  0.00000  0.20345
       7     H     0.40276  0.40276  0.00000  0.19448
       8     C     2.91355  2.91355  0.00000  0.17290
       9     C     3.24200  3.24200  0.00000 -0.48400
      10     C     3.25350  3.25350  0.00000 -0.50699
      11     H     0.41334  0.41334  0.00000  0.17333
      12     H     0.41031  0.41031  0.00000  0.17937
      13     H     0.41870  0.41870  0.00000  0.16261
      14     H     0.41630  0.41630  0.00000  0.16739
      15     H     0.42062  0.42062  0.00000  0.15876
      16     H     0.39124  0.39124  0.00000  0.21753
      17     H     0.41578  0.41578  0.00000  0.16845

   Total alpha = 28.00000, Total beta = 28.00000, Total charge =  0.00000
