  ==> Input File <==

--------------------------------------------------------------------------
set {
	reference rhf
	basis cc-pvtz
}

set_num_threads( 4 )
memory 2 gb

molecule MOL {
0 1

H	 -1.928080	 -0.414684	 2.125366
C	 -1.372303	 -0.267373	 1.223509
C	 -1.942534	 0.386381	 0.084827
C	 -0.110482	 -0.692850	 1.124461
H	 -2.955266	 0.740342	 0.132185
C	 -1.225752	 0.557636	 -1.030283
H	 0.385204	 -1.190894	 1.934021
N	 0.640204	 -0.530428	 -0.000115
H	 -1.619261	 1.041624	 -1.900265
C	 0.149770	 0.092578	 -1.134649
C	 2.006991	 -1.033007	 -0.000020
O	 0.825408	 0.227770	 -2.118254
H	 2.182444	 -1.636914	 -0.880881
H	 2.678769	 -0.195442	 -0.002236
H	 2.183828	 -1.633244	 0.883082

	symmetry c1
}
set optking {
	frozen_dihedral = ("
		10 8 11 13
	")
}

ee = optimize('scf')
oeprop('DIPOLE', 'QUADRUPOLE', 'MULLIKEN_CHARGES')
f=open( 'psi4out.xyz', 'w' )
f.write( "15  " )
f.write( str(ee) + "\n" )
f.write( MOL.save_string_xyz() )
f.close()
--------------------------------------------------------------------------

    Molecular point group: c1
  Charge       = 0
  Multiplicity = 1
  Basis Set: CC-PVTZ
  Basis Set:
  @DF-RHF Final Energy:  -360.72269109248185
    Total Energy =                       -360.7226910924819094
    Molecular point group: c1
  Basis Set: CC-PVTZ
  Basis Set:
  Basis Set: CC-PVTZ
  Basis Set:
  @DF-RHF Final Energy:  -360.72346332381142
    Total Energy =                       -360.7234633238115862
  Basis Set: CC-PVTZ
  Basis Set:
  Basis Set: CC-PVTZ
  Basis Set:
  @DF-RHF Final Energy:  -360.72354969501419
    Total Energy =                       -360.7235496950141851
  Basis Set: CC-PVTZ
  Basis Set:
  Basis Set: CC-PVTZ
  Basis Set:
  @DF-RHF Final Energy:  -360.72350760835633
    Total Energy =                       -360.7235076083563854
  Basis Set: CC-PVTZ
  Basis Set:
  Charge       = 0
  Multiplicity = 1
  Basis Set: CC-PVTZ
  Basis Set:

    Orbital Energies (a.u.)
    -----------------------

    Doubly Occupied:

       1A    -20.502020     2A    -15.617832     3A    -11.337593
       4A    -11.294632     5A    -11.265997     6A    -11.258149
       7A    -11.229483     8A    -11.227780     9A     -1.391386
      10A     -1.285895    11A     -1.118827    12A     -1.029374
      13A     -0.972623    14A     -0.876606    15A     -0.838981
      16A     -0.719675    17A     -0.702015    18A     -0.664057
      19A     -0.653266    20A     -0.626334    21A     -0.611962
      22A     -0.575489    23A     -0.552066    24A     -0.551055
      25A     -0.531430    26A     -0.484866    27A     -0.420473
      28A     -0.410680    29A     -0.310061

  @DF-RHF Final Energy:  -360.72356262855709

   => Energetics <=

    Nuclear Repulsion Energy =            358.8897298778209120
    One-Electron Energy =               -1201.1053698772022926
    Two-Electron Energy =                 481.4920773708243473
    DFT Exchange-Correlation Energy =       0.0000000000000000
    Empirical Dispersion Energy =           0.0000000000000000
    PCM Polarization Energy =               0.0000000000000000
    EFP Energy =                            0.0000000000000000
    Total Energy =                       -360.7235626285570902
    Molecular point group: c1
  Basis Set: CC-PVTZ
  Basis Set:

  -Total Gradient:
     Atom            X                  Y                   Z
    ------   -----------------  -----------------  -----------------
       1       -0.000003366542    -0.000002341121     0.000003669554
       2        0.000271105326    -0.000089738331     0.000034296783
       3       -0.000046134724     0.000108722558    -0.000239408849
       4       -0.000310766265    -0.000020211816     0.000274810842
       5        0.000008343092    -0.000005749118     0.000008095014
       6       -0.000228598224     0.000056172797     0.000108337598
       7        0.000023241089     0.000015205356    -0.000023049303
       8        0.000334468343     0.000845818469    -0.000164001345
       9        0.000018978890     0.000005787564    -0.000023900515
      10        0.000099822401    -0.000696863190     0.000076692190
      11       -0.000298543749    -0.000841110012     0.000256332447
      12       -0.000048688059     0.000093596340    -0.000069695197
      13        0.000155645624     0.000514139384    -0.000251000890
      14        0.000010125218     0.000029525960    -0.000009961464
      15        0.000014367578    -0.000012954839     0.000018783131

  **** Optimization is complete! (in 5 steps) ****
    Final optimized geometry and variables:
    Molecular point group: c1

    Geometry (in Angstrom), charge = 0, multiplicity = 1:

    H           -1.886280582625    -0.230658633851     2.376039780962
    C           -1.323021553801    -0.089262505695     1.477906256284
    C           -1.883659863833     0.558081428269     0.331978887097
    C           -0.060814476895    -0.521390889815     1.393034845948
    H           -2.896499371945     0.912811470442     0.370978145077
    C           -1.159704144933     0.723062895245    -0.780638346618
    H            0.423849585474    -1.016515067680     2.209817175597
    N            0.693777688806    -0.366447836081     0.272272891027
    H           -1.546133251952     1.203288708586    -1.656000482858
    C            0.215193091134     0.258686151642    -0.864096379276
    C            2.065217883501    -0.849506922461     0.229231685069
    O            0.919692425562     0.389686610292    -1.828142196401
    H            2.218932734215    -1.434061948091    -0.663343259157
    H            2.758687090871    -0.020357486644     0.209276174865
    H            2.253116996230    -1.456180659917     1.101653463843

  Mulliken Charges: (a.u.)
   Center  Symbol    Alpha    Beta     Spin     Total
       1     H     0.41401  0.41401  0.00000  0.17197
       2     C     3.10684  3.10684  0.00000 -0.21367
       3     C     3.05937  3.05937  0.00000 -0.11873
       4     C     3.03884  3.03884  0.00000 -0.07769
       5     H     0.41843  0.41843  0.00000  0.16315
       6     C     3.11835  3.11835  0.00000 -0.23670
       7     H     0.41901  0.41901  0.00000  0.16198
       8     N     3.50852  3.50852  0.00000 -0.01703
       9     H     0.40936  0.40936  0.00000  0.18129
      10     C     2.84566  2.84566  0.00000  0.30867
      11     C     3.09217  3.09217  0.00000 -0.18434
      12     O     4.23565  4.23565  0.00000 -0.47129
      13     H     0.43578  0.43578  0.00000  0.12844
      14     H     0.44274  0.44274  0.00000  0.11453
      15     H     0.45529  0.45529  0.00000  0.08943

   Total alpha = 29.00000, Total beta = 29.00000, Total charge = -0.00000
