  ==> Input File <==

--------------------------------------------------------------------------
set {
	reference rhf
	basis 6-31G*
}

set_num_threads( 4 )
memory 2 gb

molecule MOL {
0 1

O	 3.225979	 0.970355	 -0.599647
C	 2.701189	 0.057885	 -0.047330
C	 1.245376	 -0.013843	 0.345420
O	 3.347903	 -1.046386	 0.304773
C	 1.015106	 0.209901	 1.838413
H	 0.715852	 0.713244	 -0.261326
H	 0.874319	 -0.986970	 0.033908
C	 -0.444945	 0.036497	 2.270472
H	 1.363886	 1.201614	 2.110400
H	 1.634552	 -0.487374	 2.392054
C	 -1.413011	 1.080927	 1.707333
H	 -0.482025	 0.078441	 3.356561
H	 -0.788546	 -0.959664	 1.995498
C	 -2.834134	 0.930814	 2.254027
H	 -1.040835	 2.076984	 1.942229
H	 -1.445564	 1.015021	 0.622175
C	 -3.811421	 1.966002	 1.694183
H	 -2.812073	 1.009003	 3.339677
H	 -3.202875	 -0.068697	 2.028843
C	 -5.227438	 1.811585	 2.248034
H	 -3.443949	 2.965382	 1.917445
H	 -3.838125	 1.886475	 0.609405
H	 -5.896385	 2.558996	 1.832712
H	 -5.239722	 1.920901	 3.328819
H	 -5.636601	 0.833443	 2.011182
C	 4.728119	 -1.109107	 -0.004993
H	 4.882018	 -1.033965	 -1.071845
H	 5.068212	 -2.067527	 0.355250
H	 5.265056	 -0.311663	 0.488280

	symmetry c1
}
set optking {
	frozen_dihedral = ("
		6 3 2 1
	")
}

ee = optimize('scf')
oeprop('DIPOLE', 'QUADRUPOLE', 'MULLIKEN_CHARGES')
f=open( 'psi4out.xyz', 'w' )
f.write( "29  " )
f.write( str(ee) + "\n" )
f.write( MOL.save_string_xyz() )
f.close()
--------------------------------------------------------------------------

    Molecular point group: c1
  Charge       = 0
  Multiplicity = 1
  Basis Set: 6-31G*
  Basis Set:
  @DF-RHF Final Energy:  -501.04235745200310
    Total Energy =                       -501.0423574520033299
    Molecular point group: c1
  Basis Set: 6-31G*
  Basis Set:
  Basis Set: 6-31G*
  Basis Set:
  @DF-RHF Final Energy:  -501.04213983574141
    Total Energy =                       -501.0421398357418639
  Basis Set: 6-31G*
  Basis Set:
  Basis Set: 6-31G*
  Basis Set:
  @DF-RHF Final Energy:  -501.04255489640627
    Total Energy =                       -501.0425548964060454
  Basis Set: 6-31G*
  Basis Set:
  Basis Set: 6-31G*
  Basis Set:
  @DF-RHF Final Energy:  -501.04286726635075
    Total Energy =                       -501.0428672663510952
  Basis Set: 6-31G*
  Basis Set:
  Charge       = 0
  Multiplicity = 1
  Basis Set: 6-31G*
  Basis Set:

    Orbital Energies (a.u.)
    -----------------------

    Doubly Occupied:

       1A    -20.603792     2A    -20.542876     3A    -11.370216
       4A    -11.280335     5A    -11.232772     6A    -11.229387
       7A    -11.221757     8A    -11.217366     9A    -11.216300
      10A    -11.215516    11A    -11.209372    12A     -1.468086
      13A     -1.360704    14A     -1.101115    15A     -1.068533
      16A     -1.019533    17A     -0.974620    18A     -0.930877
      19A     -0.864371    20A     -0.799646    21A     -0.791206
      22A     -0.772097    23A     -0.697602    24A     -0.678169
      25A     -0.672848    26A     -0.652160    27A     -0.626460
      28A     -0.603906    29A     -0.596013    30A     -0.579579
      31A     -0.566844    32A     -0.551477    33A     -0.540714
      34A     -0.528133    35A     -0.520261    36A     -0.514705
      37A     -0.496092    38A     -0.483655    39A     -0.471290
      40A     -0.464586    41A     -0.463043    42A     -0.454745
      43A     -0.443646    44A     -0.427426

  @DF-RHF Final Energy:  -501.04286649452069

   => Energetics <=

    Nuclear Repulsion Energy =            611.9656096720564165
    One-Electron Energy =               -1894.9692980347365392
    Two-Electron Energy =                 781.9608218681584049
    DFT Exchange-Correlation Energy =       0.0000000000000000
    Empirical Dispersion Energy =           0.0000000000000000
    PCM Polarization Energy =               0.0000000000000000
    EFP Energy =                            0.0000000000000000
    Total Energy =                       -501.0428664945217179
    Molecular point group: c1
  Basis Set: 6-31G*
  Basis Set:

  -Total Gradient:
     Atom            X                  Y                   Z
    ------   -----------------  -----------------  -----------------
       1        0.000002664368    -0.000019231227     0.000161675631
       2       -0.000015233234    -0.000003166518    -0.000216742392
       3        0.000014721037     0.000258081042     0.000400607099
       4       -0.000006438185    -0.000047104844    -0.000073062459
       5        0.000066503811    -0.000159582237    -0.000067964272
       6       -0.000176777714    -0.000129470970    -0.000249159373
       7        0.000007258170     0.000101308150    -0.000013259249
       8       -0.000011168088     0.000045239499     0.000041522914
       9       -0.000047682724    -0.000083851240     0.000021041052
      10        0.000038069529     0.000026132180     0.000023607134
      11        0.000034001892     0.000034391890    -0.000013738638
      12        0.000048180030     0.000030507611     0.000001395769
      13       -0.000009039823    -0.000009093206     0.000047681716
      14       -0.000019356390    -0.000033053424    -0.000035087789
      15       -0.000025137201     0.000003294990     0.000034441783
      16        0.000063082312     0.000022067045    -0.000081220596
      17        0.000000865863    -0.000010879144    -0.000024785804
      18        0.000010041391     0.000011461026    -0.000010174614
      19       -0.000010765701    -0.000013559502     0.000008468651
      20        0.000007807432    -0.000010964096     0.000005479358
      21        0.000006958293    -0.000002494767     0.000002682104
      22       -0.000002123948     0.000001755869    -0.000003338121
      23        0.000007195488     0.000001291084    -0.000001352125
      24       -0.000001371644    -0.000000273458     0.000002339217
      25       -0.000002024499    -0.000000521634    -0.000000202507
      26       -0.000020935795     0.000001689569     0.000082230148
      27       -0.000016202766     0.000003017940    -0.000009972172
      28        0.000034695233    -0.000007276977    -0.000017139500
      29        0.000022212855    -0.000009714651    -0.000015972961

  **** Optimization is complete! (in 5 steps) ****
    Final optimized geometry and variables:
    Molecular point group: c1

    Geometry (in Angstrom), charge = 0, multiplicity = 1:

    O            2.924961432838     0.549487085041    -1.644569039508
    C            2.411278202007    -0.393215767068    -1.133150891864
    C            0.952494764584    -0.487553001725    -0.763099087914
    O            3.080111015818    -1.488673645142    -0.794124300804
    C            0.745828003415    -0.260362453509     0.743424943635
    H            0.427672652642     0.255645378844    -1.347091600913
    H            0.585224908192    -1.470526378072    -1.038307235930
    C           -0.710448637009    -0.409792984232     1.196131891988
    H            1.108185451337     0.730560726203     1.005628055899
    H            1.357357522540    -0.972705371265     1.288254043809
    C           -1.671408978513     0.639129972915     0.630133863000
    H           -0.732098136402    -0.353595696391     2.282107057962
    H           -1.066135530543    -1.405584986002     0.937310665175
    C           -3.091134610254     0.502823104604     1.184151885350
    H           -1.290264512459     1.633504374013     0.856738710799
    H           -1.708382085113     0.566203867650    -0.454063758768
    C           -4.063223055482     1.540068781947     0.619161941721
    H           -3.064391690124     0.590076512493     2.269051682371
    H           -3.467657861955    -0.495963178399     0.968791555803
    C           -5.478047769848     1.399987514220     1.179760148317
    H           -3.687897495433     2.538624619320     0.832510840903
    H           -4.094488042351     1.451527269174    -0.464704090876
    H           -6.143262226328     2.148494611866     0.760544955549
    H           -5.485521065431     1.518606736143     2.259627143552
    H           -5.894909462719     0.422764433384     0.952723046896
    C            4.471261996958    -1.498825270656    -1.057369163211
    H            4.657819470493    -1.383016156655    -2.115279055813
    H            4.829636717757    -2.457931388906    -0.717160665489
    H            4.965646507559    -0.702054858317    -0.520428885890

  Mulliken Charges: (a.u.)
   Center  Symbol    Alpha    Beta     Spin     Total
       1     O     4.28482  4.28482  0.00000 -0.56963
       2     C     2.61685  2.61685  0.00000  0.76629
       3     C     3.19611  3.19611  0.00000 -0.39223
       4     O     4.30299  4.30299  0.00000 -0.60598
       5     C     3.16729  3.16729  0.00000 -0.33458
       6     H     0.39753  0.39753  0.00000  0.20493
       7     H     0.40519  0.40519  0.00000  0.18962
       8     C     3.15469  3.15469  0.00000 -0.30938
       9     H     0.41202  0.41202  0.00000  0.17595
      10     H     0.40812  0.40812  0.00000  0.18376
      11     C     3.15531  3.15531  0.00000 -0.31062
      12     H     0.41837  0.41837  0.00000  0.16325
      13     H     0.42175  0.42175  0.00000  0.15650
      14     C     3.15067  3.15067  0.00000 -0.30133
      15     H     0.42142  0.42142  0.00000  0.15716
      16     H     0.42164  0.42164  0.00000  0.15672
      17     C     3.15161  3.15161  0.00000 -0.30323
      18     H     0.42362  0.42362  0.00000  0.15277
      19     H     0.42388  0.42388  0.00000  0.15225
      20     C     3.23944  3.23944  0.00000 -0.47887
      21     H     0.42235  0.42235  0.00000  0.15530
      22     H     0.42278  0.42278  0.00000  0.15444
      23     H     0.41889  0.41889  0.00000  0.16221
      24     H     0.42171  0.42171  0.00000  0.15658
      25     H     0.42184  0.42184  0.00000  0.15632
      26     C     3.09238  3.09238  0.00000 -0.18475
      27     H     0.40861  0.40861  0.00000  0.18278
      28     H     0.40890  0.40890  0.00000  0.18220
      29     H     0.40923  0.40923  0.00000  0.18155

   Total alpha = 44.00000, Total beta = 44.00000, Total charge = -0.00000
