  ==> Input File <==

--------------------------------------------------------------------------
set {
	reference rhf
	basis 6-31G*
}

set_num_threads( 4 )
memory 2 gb

molecule MOL {
0 1

O	 -2.042549	 -1.228399	 -0.269030
C	 -1.653912	 -0.146171	 0.050137
C	 -0.332303	 0.024011	 0.778412
C	 -2.438579	 1.106236	 -0.272369
C	 0.321368	 1.368742	 0.423043
H	 -0.477777	 -0.043935	 1.852937
H	 0.318609	 -0.787678	 0.472804
C	 1.671886	 1.567503	 1.112700
H	 -0.344475	 2.185312	 0.696810
H	 0.447720	 1.418194	 -0.654330
C	 2.328353	 2.900036	 0.754074
H	 1.539661	 1.507613	 2.190826
H	 2.336608	 0.751390	 0.839440
H	 1.701732	 3.737859	 1.046394
H	 2.503015	 2.975245	 -0.315169
H	 3.284873	 3.012264	 1.254576
H	 -3.277823	 0.863061	 -0.908988
H	 -1.806773	 1.843019	 -0.759671
H	 -2.802853	 1.554979	 0.648059

	symmetry c1
}
set optking {
	frozen_dihedral = ("
		5 3 2 4
	")
}

ee = optimize('scf')
oeprop('DIPOLE', 'QUADRUPOLE', 'MULLIKEN_CHARGES')
f=open( 'psi4out.xyz', 'w' )
f.write( "19  " )
f.write( str(ee) + "\n" )
f.write( MOL.save_string_xyz() )
f.close()
--------------------------------------------------------------------------

    Molecular point group: c1
  Charge       = 0
  Multiplicity = 1
  Basis Set: 6-31G*
  Basis Set:
  @DF-RHF Final Energy:  -309.05959458115245
    Total Energy =                       -309.0595945811527372
    Molecular point group: c1
  Basis Set: 6-31G*
  Basis Set:
  Basis Set: 6-31G*
  Basis Set:
  @DF-RHF Final Energy:  -309.06199746281123
    Total Energy =                       -309.0619974628113482
  Basis Set: 6-31G*
  Basis Set:
  Basis Set: 6-31G*
  Basis Set:
  @DF-RHF Final Energy:  -309.06337793517366
    Total Energy =                       -309.0633779351736621
  Basis Set: 6-31G*
  Basis Set:
  Basis Set: 6-31G*
  Basis Set:
  @DF-RHF Final Energy:  -309.06357638972679
    Total Energy =                       -309.0635763897269044
  Basis Set: 6-31G*
  Basis Set:
  @DF-RHF Final Energy:  -309.06295994554392
    Total Energy =                       -309.0629599455440939
  @DF-RHF Final Energy:  -309.06361814851425
    Total Energy =                       -309.0636181485143652
  Basis Set: 6-31G*
  Basis Set:
  @DF-RHF Final Energy:  -309.06351842331185
    Total Energy =                       -309.0635184233117343
  Basis Set: 6-31G*
  Basis Set:
  Basis Set: 6-31G*
  Basis Set:
  @DF-RHF Final Energy:  -309.06367783803546
    Total Energy =                       -309.0636778380352894
  Basis Set: 6-31G*
  Basis Set:
  Basis Set: 6-31G*
  Basis Set:
  @DF-RHF Final Energy:  -309.06368233013251
    Total Energy =                       -309.0636823301323375
  Basis Set: 6-31G*
  Basis Set:
  Charge       = 0
  Multiplicity = 1
  Basis Set: 6-31G*
  Basis Set:

    Orbital Energies (a.u.)
    -----------------------

    Doubly Occupied:

       1A    -20.546437     2A    -11.325461     3A    -11.232082
       4A    -11.230725     5A    -11.227692     6A    -11.227035
       7A    -11.217340     8A     -1.392780     9A     -1.094538
      10A     -1.028360    11A     -0.982382    12A     -0.895459
      13A     -0.810441    14A     -0.731982    15A     -0.663210
      16A     -0.647290    17A     -0.627002    18A     -0.612302
      19A     -0.584968    20A     -0.573361    21A     -0.553672
      22A     -0.530884    23A     -0.520379    24A     -0.493527
      25A     -0.486313    26A     -0.480720    27A     -0.469808
      28A     -0.396941

  @DF-RHF Final Energy:  -309.06368235501833

   => Energetics <=

    Nuclear Repulsion Energy =            300.9200636797854145
    One-Electron Energy =               -1014.8013123009455967
    Two-Electron Energy =                 404.8175662661420802
    DFT Exchange-Correlation Energy =       0.0000000000000000
    Empirical Dispersion Energy =           0.0000000000000000
    PCM Polarization Energy =               0.0000000000000000
    EFP Energy =                            0.0000000000000000
    Total Energy =                       -309.0636823550181589
    Molecular point group: c1
  Basis Set: 6-31G*
  Basis Set:

  -Total Gradient:
     Atom            X                  Y                   Z
    ------   -----------------  -----------------  -----------------
       1        0.000029673385    -0.000003023566    -0.000002869327
       2       -0.001136427256     0.000054352078     0.002130228199
       3        0.001152888116    -0.000672571797    -0.001971997685
       4        0.000574991777     0.000124194375    -0.001148131022
       5       -0.000596503202     0.000510355836     0.000963105781
       6        0.000002516515     0.000003382112    -0.000011983802
       7        0.000002779663    -0.000017150881     0.000003853676
       8       -0.000011105509     0.000002680356     0.000028123428
       9       -0.000026957815    -0.000001449468    -0.000000193306
      10        0.000008959962     0.000008094878     0.000008206635
      11        0.000003781160    -0.000016323174    -0.000027048892
      12        0.000000820805     0.000014667449     0.000004881999
      13       -0.000006487169    -0.000009150522     0.000012568781
      14       -0.000000225413    -0.000007912340     0.000005855433
      15        0.000000344784     0.000009533628    -0.000008304798
      16        0.000000251356    -0.000009270241    -0.000006841046
      17        0.000005602076    -0.000002568362     0.000001827228
      18       -0.000007232675     0.000002234219     0.000007506708
      19        0.000002329440     0.000009925422     0.000011212009

  **** Optimization is complete! (in 10 steps) ****
    Final optimized geometry and variables:
    Molecular point group: c1

    Geometry (in Angstrom), charge = 0, multiplicity = 1:

    O           -1.711842523097    -2.078301796629    -0.586761007580
    C           -1.370942455107    -0.962452745984    -0.335480809825
    C           -0.033984416365    -0.708197899277     0.345614188586
    C           -2.264165275073     0.215171454156    -0.663419320612
    C            0.654365995004     0.626415104718     0.046703990740
    H           -0.221451608583    -0.781901307014     1.416899492673
    H            0.608486948022    -1.543035089416     0.090468038368
    C            2.004714417291     0.751132095347     0.755477125469
    H            0.017725621287     1.453378565052     0.349680023970
    H            0.805808248699     0.730363859210    -1.026021628414
    C            2.708833915352     2.075102450693     0.462300289249
    H            1.857936093847     0.648978132095     1.828501275391
    H            2.645889969552    -0.074066486729     0.454991535235
    H            2.106954814707     2.920020031130     0.784711411154
    H            2.899066017906     2.191332855930    -0.600807495821
    H            3.662600202889     2.133418093767     0.976851445892
    H           -3.212597887681    -0.151283956972    -1.030322360593
    H           -1.803432387096     0.840077428209    -1.422100378484
    H           -2.426387612938     0.836909058460     0.212071955458

  Mulliken Charges: (a.u.)
   Center  Symbol    Alpha    Beta     Spin     Total
       1     O     4.26326  4.26326  0.00000 -0.52652
       2     C     2.73231  2.73231  0.00000  0.53539
       3     C     3.20704  3.20704  0.00000 -0.41407
       4     C     3.29210  3.29210  0.00000 -0.58421
       5     C     3.16194  3.16194  0.00000 -0.32388
       6     H     0.40585  0.40585  0.00000  0.18830
       7     H     0.39846  0.39846  0.00000  0.20309
       8     C     3.15212  3.15212  0.00000 -0.30424
       9     H     0.41941  0.41941  0.00000  0.16119
      10     H     0.41847  0.41847  0.00000  0.16306
      11     C     3.24003  3.24003  0.00000 -0.48006
      12     H     0.42095  0.42095  0.00000  0.15810
      13     H     0.41895  0.41895  0.00000  0.16209
      14     H     0.42110  0.42110  0.00000  0.15780
      15     H     0.42026  0.42026  0.00000  0.15947
      16     H     0.41661  0.41661  0.00000  0.16679
      17     H     0.39566  0.39566  0.00000  0.20867
      18     H     0.40564  0.40564  0.00000  0.18873
      19     H     0.40985  0.40985  0.00000  0.18031

   Total alpha = 28.00000, Total beta = 28.00000, Total charge = -0.00000
