                              Psi4 1.0.54 Driver

  ==> Input File <==

--------------------------------------------------------------------------
set {
	reference rhf
	basis cc-pvtz
}

set_num_threads( 4 )
memory 2 gb

molecule MOL {
0 1

H	 0.356731	 1.281593	 -1.049253
O	 0.057669	 1.301365	 -0.158528
C	 0.004145	 -0.005141	 0.363049
C	 1.199168	 -0.827145	 -0.096690
C	 -1.316386	 -0.602081	 -0.083515
H	 0.012026	 0.043363	 1.450619
H	 1.216685	 -0.896776	 -1.178167
H	 2.129940	 -0.372354	 0.228035
H	 1.160783	 -1.829622	 0.314294
H	 -1.357882	 -0.655920	 -1.165207
H	 -2.140147	 0.011735	 0.257253
H	 -1.440790	 -1.601175	 0.317669

	symmetry c1
}
set optking {
	frozen_dihedral = ("
		1 2 3 4
	")
}

ee,wfn = optimize('scf', return_wfn=True)
oeprop( wfn, 'DIPOLE', 'QUADRUPOLE', 'MULLIKEN_CHARGES')
f=open( 'psi4out.xyz', 'w' )
f.write( "12  " )
f.write( str(ee) + "\n" )
f.write( MOL.save_string_xyz() )
f.close()
--------------------------------------------------------------------------

    Molecular point group: c1
  Charge       = 0
  Multiplicity = 1
  Basis Set: CC-PVTZ
  Basis Set:
  @DF-RHF Final Energy:  -193.19349748140417
    Total Energy =                       -193.1934974814042221
    Molecular point group: c1
  Basis Set: CC-PVTZ
  Basis Set:
  Basis Set: CC-PVTZ
  Basis Set:
  @DF-RHF Final Energy:  -193.19392133974941
    Total Energy =                       -193.1939213397493802
  Basis Set: CC-PVTZ
  Basis Set:
  Basis Set: CC-PVTZ
  Basis Set:
  @DF-RHF Final Energy:  -193.19501087387553
    Total Energy =                       -193.1950108738754466
  Basis Set: CC-PVTZ
  Basis Set:
  Basis Set: CC-PVTZ
  Basis Set:
  @DF-RHF Final Energy:  -193.19503292417903
    Total Energy =                       -193.1950329241790030
  Basis Set: CC-PVTZ
  Basis Set:
  Charge       = 0
  Multiplicity = 1
  Basis Set: CC-PVTZ
  Basis Set:

    Orbital Energies (a.u.)
    -----------------------

    Doubly Occupied:

       1A    -20.543305     2A    -11.274083     3A    -11.214685
       4A    -11.207308     5A     -1.364037     6A     -1.043259
       7A     -0.942057     8A     -0.819674     9A     -0.663228
      10A     -0.647876    11A     -0.604895    12A     -0.572441
      13A     -0.545249    14A     -0.517522    15A     -0.512044
      16A     -0.467156    17A     -0.433152

  @DF-RHF Final Energy:  -193.19503366132039

   => Energetics <=

    Nuclear Repulsion Energy =            135.6063517426363205
    One-Electron Energy =                -530.8588300068752233
    Two-Electron Energy =                 202.0574446029186788
    DFT Exchange-Correlation Energy =       0.0000000000000000
    Empirical Dispersion Energy =           0.0000000000000000
    PCM Polarization Energy =               0.0000000000000000
    EFP Energy =                            0.0000000000000000
    Total Energy =                       -193.1950336613202239
    Molecular point group: c1
  Basis Set: CC-PVTZ
  Basis Set:

  -Total Gradient:
     Atom            X                  Y                   Z
    ------   -----------------  -----------------  -----------------
       1        0.001308376959     0.000084686153     0.000677349916
       2       -0.001772381020    -0.000223769045    -0.001162240795
       3        0.000787499408     0.000272223351     0.001351296305
       4       -0.000330695571    -0.000221120950    -0.000806610436
       5       -0.000009079988     0.000070043447    -0.000044912606
       6        0.000025659217     0.000022621351     0.000003878163
       7       -0.000002314053    -0.000005129762     0.000011072445
       8        0.000022088621    -0.000003991729    -0.000011169073
       9       -0.000013573972    -0.000002455236     0.000006611332
      10       -0.000014153098    -0.000014058190    -0.000026634686
      11       -0.000024393381     0.000004913882    -0.000004679629
      12        0.000022966877     0.000016036729     0.000006039063

  **** Optimization is complete! (in 5 steps) ****
    Final optimized geometry and variables:
    Molecular point group: c1

    Geometry (in Angstrom), charge = 0, multiplicity = 1:

    H            0.587400826872     1.247712046097    -1.025092460300
    O            0.151474385508     1.313953216866    -0.194740655955
    C           -0.042513415761     0.031613926001     0.354157207585
    C            1.170842679429    -0.855190525249     0.120859058329
    C           -1.323779061022    -0.589642800040    -0.182696179791
    H           -0.155833807926     0.195663350519     1.419106516795
    H            1.317948802744    -1.033382119311    -0.941328695455
    H            2.065249697699    -0.388492811117     0.515206700943
    H            1.046437583620    -1.817987771410     0.602083466913
    H           -1.247003344442    -0.766764365252    -1.251296578373
    H           -2.161041884918     0.074472050734    -0.010772742857
    H           -1.529979040552    -1.537650164488     0.302164135889

  Mulliken Charges: (a.u.)
   Center  Symbol    Alpha    Beta     Spin     Total
       1     H     0.39412  0.39412  0.00000  0.21176
       2     O     4.20995  4.20995  0.00000 -0.41990
       3     C     2.92564  2.92564  0.00000  0.14872
       4     C     3.15179  3.15179  0.00000 -0.30359
       5     C     3.14150  3.14150  0.00000 -0.28301
       6     H     0.45260  0.45260  0.00000  0.09481
       7     H     0.46115  0.46115  0.00000  0.07769
       8     H     0.44418  0.44418  0.00000  0.11164
       9     H     0.45372  0.45372  0.00000  0.09257
      10     H     0.46121  0.46121  0.00000  0.07758
      11     H     0.44584  0.44584  0.00000  0.10832
      12     H     0.45829  0.45829  0.00000  0.08342

   Total alpha = 17.00000, Total beta = 17.00000, Total charge = -0.00000

*** Psi4 exiting successfully. Buy a developer a beer!
