                              Psi4 1.0.54 Driver

  ==> Input File <==

--------------------------------------------------------------------------
set {
	reference rhf
	basis cc-pvtz
}

set_num_threads( 4 )
memory 2 gb

molecule MOL {
0 1

H	 3.083659	 -1.378387	 0.000000
O	 2.179005	 -1.633391	 0.000000
C	 1.366950	 -0.558201	 0.000000
C	 0.920623	 0.032752	 -1.172283
C	 0.979686	 -0.045450	 1.221120
H	 1.223283	 -0.367981	 -2.122672
C	 0.089368	 1.133364	 -1.121050
H	 1.322695	 -0.499606	 2.128275
C	 0.146412	 1.057835	 1.263338
H	 -0.249652	 1.582237	 -2.034506
C	 -0.302661	 1.652423	 0.096452
C	 -0.278069	 1.619862	 2.572276
H	 -0.948981	 2.508174	 0.139442
O	 0.045303	 1.191707	 3.626570
H	 -0.936325	 2.491418	 2.503804

	symmetry c1
}
set optking {
	frozen_dihedral = ("
		4 3 2 1
	")
}

ee,wfn = optimize('scf', return_wfn=True)
oeprop( wfn, 'DIPOLE', 'QUADRUPOLE', 'MULLIKEN_CHARGES')
f=open( 'psi4out.xyz', 'w' )
f.write( "15  " )
f.write( str(ee) + "\n" )
f.write( MOL.save_string_xyz() )
f.close()
--------------------------------------------------------------------------

    Molecular point group: c1
  Charge       = 0
  Multiplicity = 1
  Basis Set: CC-PVTZ
  Basis Set:
  @DF-RHF Final Energy:  -418.43439291008451
    Total Energy =                       -418.4343929100843980
    Molecular point group: c1
  Basis Set: CC-PVTZ
  Basis Set:
  Basis Set: CC-PVTZ
  Basis Set:
  @DF-RHF Final Energy:  -418.43521010868665
    Total Energy =                       -418.4352101086868743
  Basis Set: CC-PVTZ
  Basis Set:
  Basis Set: CC-PVTZ
  Basis Set:
  @DF-RHF Final Energy:  -418.43483714500456
    Total Energy =                       -418.4348371450049626
  Basis Set: CC-PVTZ
  Basis Set:
  Basis Set: CC-PVTZ
  Basis Set:
  @DF-RHF Final Energy:  -418.43530810727378
    Total Energy =                       -418.4353081072736131
  Basis Set: CC-PVTZ
  Basis Set:
  Basis Set: CC-PVTZ
  Basis Set:
  @DF-RHF Final Energy:  -418.43532442818849
    Total Energy =                       -418.4353244281884372
  Basis Set: CC-PVTZ
  Basis Set:
  Charge       = 0
  Multiplicity = 1
  Basis Set: CC-PVTZ
  Basis Set:

    Orbital Energies (a.u.)
    -----------------------

    Doubly Occupied:

       1A    -20.581606     2A    -20.555221     3A    -11.329025
       4A    -11.302964     5A    -11.251265     6A    -11.250074
       7A    -11.248927     8A    -11.247270     9A    -11.242577
      10A     -1.411289    11A     -1.409305    12A     -1.175310
      13A     -1.052728    14A     -1.030316    15A     -0.900503
      16A     -0.850518    17A     -0.804700    18A     -0.746847
      19A     -0.701876    20A     -0.685119    21A     -0.656899
      22A     -0.639322    23A     -0.623207    24A     -0.610609
      25A     -0.562338    26A     -0.549104    27A     -0.535531
      28A     -0.503431    29A     -0.492238    30A     -0.427470
      31A     -0.357161    32A     -0.347228

  @DF-RHF Final Energy:  -418.43532597169570

   => Energetics <=

    Nuclear Repulsion Energy =            403.5132555475931326
    One-Electron Energy =               -1369.7332051694511392
    Two-Electron Energy =                 547.7846236501623025
    DFT Exchange-Correlation Energy =       0.0000000000000000
    Empirical Dispersion Energy =           0.0000000000000000
    PCM Polarization Energy =               0.0000000000000000
    EFP Energy =                            0.0000000000000000
    Total Energy =                       -418.4353259716956472
    Molecular point group: c1
  Basis Set: CC-PVTZ
  Basis Set:

  -Total Gradient:
     Atom            X                  Y                   Z
    ------   -----------------  -----------------  -----------------
       1        0.000028519347    -0.000013119474    -0.000233313476
       2        0.000108774950    -0.000001324262     0.000327987463
       3       -0.000247548298    -0.000084615746    -0.000399640936
       4        0.000257377284    -0.000088801673     0.000107447499
       5       -0.000102867089     0.000123758851     0.000160883063
       6       -0.000010890071    -0.000009820715    -0.000011007767
       7       -0.000073677160     0.000204053096     0.000148364489
       8       -0.000018163183     0.000000913330    -0.000024375102
       9        0.000131927738    -0.000097266691     0.000153558799
      10        0.000009752479    -0.000019567752    -0.000002130815
      11       -0.000062196735    -0.000035075268    -0.000234919376
      12       -0.000068092401     0.000053683706     0.000032342975
      13        0.000001617623    -0.000001310744     0.000036826534
      14       -0.000017581085     0.000034356008    -0.000085794413
      15        0.000063046601    -0.000065862671     0.000023771061

  **** Optimization is complete! (in 6 steps) ****
    Final optimized geometry and variables:
    Molecular point group: c1

    Geometry (in Angstrom), charge = 0, multiplicity = 1:

    H            2.475767978963    -1.873952639890    -0.830843581559
    O            1.566404500675    -2.115419320074    -0.799919231209
    C            0.771743005275    -1.006364306022    -0.747097207185
    C            0.324966132951    -0.425144982724    -1.924086473242
    C            0.375889768115    -0.498694282693     0.468288047659
    H            0.633044367833    -0.846810322584    -2.861260331092
    C           -0.512044060771     0.669890779365    -1.881626025840
    H            0.708223767769    -0.954159046183     1.379350855736
    C           -0.466489796472     0.603756421719     0.509369396819
    H           -0.855593163313     1.114939853235    -2.795100946619
    C           -0.909635304120     1.187774135259    -0.662189011411
    C           -0.899768185080     1.165116441030     1.813337007921
    H           -1.563319903756     2.038855956209    -0.624335402879
    O           -0.568655538918     0.747939078854     2.870015094740
    H           -1.571613651786     2.026069202998     1.740469335843

  Mulliken Charges: (a.u.)
   Center  Symbol    Alpha    Beta     Spin     Total
       1     H     0.38746  0.38746  0.00000  0.22508
       2     O     4.18854  4.18854  0.00000 -0.37708
       3     C     2.86185  2.86185  0.00000  0.27630
       4     C     3.10330  3.10330  0.00000 -0.20661
       5     C     3.12045  3.12045  0.00000 -0.24090
       6     H     0.41371  0.41371  0.00000  0.17258
       7     C     3.06743  3.06743  0.00000 -0.13487
       8     H     0.40246  0.40246  0.00000  0.19508
       9     C     2.98091  2.98091  0.00000  0.03817
      10     H     0.41861  0.41861  0.00000  0.16277
      11     C     3.09709  3.09709  0.00000 -0.19419
      12     C     2.90882  2.90882  0.00000  0.18235
      13     H     0.42229  0.42229  0.00000  0.15542
      14     O     4.17066  4.17066  0.00000 -0.34132
      15     H     0.45640  0.45640  0.00000  0.08720

   Total alpha = 32.00000, Total beta = 32.00000, Total charge = -0.00000

*** Psi4 exiting successfully. Buy a developer a beer!
