  ==> Input File <==

--------------------------------------------------------------------------
set {
	reference rhf
	basis 6-31G*
}

set_num_threads( 4 )
memory 2 gb

molecule MOL {
0 1

O	 1.846825	 1.296220	 0.000415
C	 1.705091	 0.115954	 0.001797
C	 0.381791	 -0.609817	 0.001258
O	 2.721346	 -0.737485	 -0.000216
C	 -0.823008	 0.326187	 0.001381
H	 0.371250	 -1.265087	 -0.865474
H	 0.370908	 -1.265746	 0.867490
C	 -2.149452	 -0.435131	 -0.000098
H	 -0.770201	 0.977095	 -0.865636
H	 -0.771220	 0.975655	 0.869608
C	 -3.368779	 0.488503	 -0.000883
H	 -2.193746	 -1.087250	 -0.871175
H	 -2.195311	 -1.087803	 0.870418
C	 -4.435648	 0.067215	 -1.010615
H	 -3.048875	 1.505557	 -0.216301
H	 -3.803328	 0.510486	 0.996023
H	 -4.040573	 0.068930	 -2.022606
H	 -5.286699	 0.740721	 -0.987110
H	 -4.800710	 -0.934312	 -0.800889
C	 4.024888	 -0.184556	 -0.001949
H	 4.179030	 0.422472	 -0.882452
H	 4.701782	 -1.024608	 -0.003642
H	 4.181981	 0.421185	 0.878906

	symmetry c1
}
set optking {
	frozen_dihedral = ("
		15 11 8 12
	")
}

ee = optimize('scf')
oeprop('DIPOLE', 'QUADRUPOLE', 'MULLIKEN_CHARGES')
f=open( 'psi4out.xyz', 'w' )
f.write( "23  " )
f.write( str(ee) + "\n" )
f.write( MOL.save_string_xyz() )
f.close()
--------------------------------------------------------------------------

    Molecular point group: c1
  Charge       = 0
  Multiplicity = 1
  Basis Set: 6-31G*
  Basis Set:
  @DF-RHF Final Energy:  -422.97124368342605
    Total Energy =                       -422.9712436834259961
    Molecular point group: c1
  Basis Set: 6-31G*
  Basis Set:
  Basis Set: 6-31G*
  Basis Set:
  @DF-RHF Final Energy:  -422.97146591681559
    Total Energy =                       -422.9714659168150774
  Basis Set: 6-31G*
  Basis Set:
  Basis Set: 6-31G*
  Basis Set:
  @DF-RHF Final Energy:  -422.97131476887233
    Total Energy =                       -422.9713147688718209
  Basis Set: 6-31G*
  Basis Set:
  Basis Set: 6-31G*
  Basis Set:
  @DF-RHF Final Energy:  -422.97157287817640
    Total Energy =                       -422.9715728781757207
  Basis Set: 6-31G*
  Basis Set:
  Basis Set: 6-31G*
  Basis Set:
  @DF-RHF Final Energy:  -422.97157770239500
    Total Energy =                       -422.9715777023947112
  Basis Set: 6-31G*
  Basis Set:
  Charge       = 0
  Multiplicity = 1
  Basis Set: 6-31G*
  Basis Set:

    Orbital Energies (a.u.)
    -----------------------

    Doubly Occupied:

       1A    -20.603649     2A    -20.545452     3A    -11.372317
       4A    -11.280860     5A    -11.235410     6A    -11.219773
       7A    -11.217536     8A    -11.216082     9A    -11.209922
      10A     -1.469347    11A     -1.362796    12A     -1.091872
      13A     -1.042258    14A     -0.987053    15A     -0.931880
      16A     -0.844809    17A     -0.795190    18A     -0.767540
      19A     -0.696865    20A     -0.683517    21A     -0.671823
      22A     -0.645546    23A     -0.610661    24A     -0.599148
      25A     -0.575685    26A     -0.565661    27A     -0.546828
      28A     -0.525005    29A     -0.521912    30A     -0.504735
      31A     -0.490865    32A     -0.470206    33A     -0.460579
      34A     -0.459331    35A     -0.454213    36A     -0.435358

  @DF-RHF Final Energy:  -422.97157859851893

   => Energetics <=

    Nuclear Repulsion Energy =            452.4573271951535389
    One-Electron Energy =               -1472.6344492063863072
    Two-Electron Energy =                 597.2055434127139506
    DFT Exchange-Correlation Energy =       0.0000000000000000
    Empirical Dispersion Energy =           0.0000000000000000
    PCM Polarization Energy =               0.0000000000000000
    EFP Energy =                            0.0000000000000000
    Total Energy =                       -422.9715785985188177
    Molecular point group: c1
  Basis Set: 6-31G*
  Basis Set:

  -Total Gradient:
     Atom            X                  Y                   Z
    ------   -----------------  -----------------  -----------------
       1        0.000006419639    -0.000005954582    -0.000003743293
       2       -0.000004755811     0.000002076936     0.000015379742
       3       -0.000016105445    -0.000004197710    -0.000004306780
       4        0.000008808982     0.000005517478    -0.000004915235
       5        0.000016083221     0.000024480918     0.000007610347
       6        0.000002509115    -0.000005198669    -0.000003060580
       7       -0.000001274350     0.000006127673    -0.000004200242
       8        0.002122676297     0.002862456046    -0.001391221380
       9        0.000005551295    -0.000014784841    -0.000003811616
      10       -0.000009625650     0.000012956847    -0.000007057072
      11       -0.000977038387    -0.001182316752    -0.003510172454
      12       -0.001643788783    -0.002205037716     0.001749265284
      13        0.000001421223    -0.000004725529    -0.000007749976
      14       -0.000015054453    -0.000013533010    -0.000030562692
      15        0.000478432290     0.000521196320     0.003187729581
      16        0.000010179191    -0.000004717263    -0.000002880202
      17        0.000001186642     0.000000811896     0.000000642189
      18        0.000004125118     0.000003363139     0.000010108814
      19        0.000006489061     0.000003380974     0.000000766950
      20        0.000000722450    -0.000002950946     0.000003887415
      21       -0.000000512790    -0.000000252104    -0.000000642751
      22        0.000002223238     0.000000772909    -0.000000551751
      23        0.000001327906     0.000000527983    -0.000000514300

  **** Optimization is complete! (in 6 steps) ****
    Final optimized geometry and variables:
    Molecular point group: c1

    Geometry (in Angstrom), charge = 0, multiplicity = 1:

    O            1.826986291806     1.255539246571     0.111482581777
    C            1.683827663247     0.075483326814     0.118743890201
    C            0.359607999590    -0.648591426131     0.109215937176
    O            2.698908795487    -0.779147659963     0.136624708806
    C           -0.843552982535     0.288682053984     0.089454669573
    H            0.357206308572    -1.310158807984    -0.752883289075
    H            0.338461967273    -1.298238252085     0.979965150581
    C           -2.171185577982    -0.469314638009     0.074439714868
    H           -0.780631264273     0.935819627266    -0.779775105554
    H           -0.803392640128     0.942491468503     0.955312434204
    C           -3.406753774925     0.454609379436     0.101864650060
    H           -2.217941105728    -1.120684696541    -0.796254279814
    H           -2.207566363126    -1.141619853680     0.929378629437
    C           -4.513758958383     0.026125121748    -0.859552586405
    H           -3.105821173235     1.477031966680    -0.112221270563
    H           -3.807729300200     0.485379475359     1.111720666346
    H           -4.166044393350     0.043699142323    -1.888618124711
    H           -5.374254803229     0.684149588235    -0.788042679517
    H           -4.850386171290    -0.983921303337    -0.642675267254
    C            4.003103976520    -0.227774630346     0.147183375857
    H            4.169436889018     0.371711552900    -0.736256545121
    H            4.678899220430    -1.068650635947     0.161151691467
    H            4.149575586518     0.385021882559     1.024987484249

  Mulliken Charges: (a.u.)
   Center  Symbol    Alpha    Beta     Spin     Total
       1     O     4.28610  4.28610  0.00000 -0.57221
       2     C     2.60510  2.60510  0.00000  0.78979
       3     C     3.20870  3.20870  0.00000 -0.41740
       4     O     4.30725  4.30725  0.00000 -0.61450
       5     C     3.15406  3.15406  0.00000 -0.30813
       6     H     0.40053  0.40053  0.00000  0.19895
       7     H     0.40060  0.40060  0.00000  0.19880
       8     C     3.15698  3.15698  0.00000 -0.31395
       9     H     0.41131  0.41131  0.00000  0.17737
      10     H     0.41129  0.41129  0.00000  0.17742
      11     C     3.15483  3.15483  0.00000 -0.30966
      12     H     0.42166  0.42166  0.00000  0.15668
      13     H     0.42202  0.42202  0.00000  0.15595
      14     C     3.23997  3.23997  0.00000 -0.47994
      15     H     0.41785  0.41785  0.00000  0.16430
      16     H     0.42022  0.42022  0.00000  0.15957
      17     H     0.42140  0.42140  0.00000  0.15720
      18     H     0.41946  0.41946  0.00000  0.16107
      19     H     0.42165  0.42165  0.00000  0.15670
      20     C     3.09244  3.09244  0.00000 -0.18488
      21     H     0.40908  0.40908  0.00000  0.18185
      22     H     0.40843  0.40843  0.00000  0.18315
      23     H     0.40907  0.40907  0.00000  0.18186

   Total alpha = 36.00000, Total beta = 36.00000, Total charge =  0.00000
