  ==> Input File <==

--------------------------------------------------------------------------
set {
	reference rhf
	basis 6-31G*
}

set_num_threads( 4 )
memory 2 gb

molecule MOL {
0 1

O	 0.972906	 1.691161	 -0.484992
C	 0.405175	 1.261023	 -1.436677
C	 -0.873104	 0.459084	 -1.408520
O	 0.835434	 1.436034	 -2.679747
C	 -1.412532	 0.227344	 -0.000452
H	 -1.597944	 0.981792	 -2.026693
H	 -0.677155	 -0.482143	 -1.914930
C	 -2.706999	 -0.587347	 -0.000541
H	 -1.580781	 1.185630	 0.481093
H	 -0.658426	 -0.280011	 0.593196
C	 -3.956778	 0.291888	 0.000910
H	 -2.726114	 -1.239230	 -0.871609
H	 -2.725217	 -1.240844	 0.869333
H	 -3.985213	 0.933254	 -0.875158
H	 -4.860123	 -0.309979	 0.000519
H	 -3.984618	 0.931166	 0.878514
C	 2.031302	 2.175501	 -2.847758
H	 1.917094	 3.176570	 -2.457496
H	 2.211918	 2.206960	 -3.910931
H	 2.853152	 1.688910	 -2.342487

	symmetry c1
}
set optking {
	frozen_dihedral = ("
		9 5 8 12
	")
}

ee = optimize('scf')
oeprop('DIPOLE', 'QUADRUPOLE', 'MULLIKEN_CHARGES')
f=open( 'psi4out.xyz', 'w' )
f.write( "20  " )
f.write( str(ee) + "\n" )
f.write( MOL.save_string_xyz() )
f.close()
--------------------------------------------------------------------------

    Molecular point group: c1
  Charge       = 0
  Multiplicity = 1
  Basis Set: 6-31G*
  Basis Set:
  @DF-RHF Final Energy:  -383.93763600541223
    Total Energy =                       -383.9376360054121733
    Molecular point group: c1
  Basis Set: 6-31G*
  Basis Set:
  Basis Set: 6-31G*
  Basis Set:
  @DF-RHF Final Energy:  -383.93787969995685
    Total Energy =                       -383.9378796999569659
  Basis Set: 6-31G*
  Basis Set:
  Basis Set: 6-31G*
  Basis Set:
  @DF-RHF Final Energy:  -383.93777653911133
    Total Energy =                       -383.9377765391111552
  Basis Set: 6-31G*
  Basis Set:
  Basis Set: 6-31G*
  Basis Set:
  @DF-RHF Final Energy:  -383.93796037037225
    Total Energy =                       -383.9379603703722523
  Basis Set: 6-31G*
  Basis Set:
  Charge       = 0
  Multiplicity = 1
  Basis Set: 6-31G*
  Basis Set:

    Orbital Energies (a.u.)
    -----------------------

    Doubly Occupied:

       1A    -20.603721     2A    -20.545607     3A    -11.372273
       4A    -11.280925     5A    -11.235758     6A    -11.220353
       7A    -11.219419     8A    -11.212187     9A     -1.469411
      10A     -1.362870    11A     -1.088082    12A     -1.022838
      13A     -0.968240    14A     -0.889586    15A     -0.802510
      16A     -0.766511    17A     -0.700770    18A     -0.682796
      19A     -0.672367    20A     -0.632911    21A     -0.611731
      22A     -0.595414    23A     -0.571943    24A     -0.546333
      25A     -0.526089    26A     -0.523432    27A     -0.512600
      28A     -0.474548    29A     -0.472956    30A     -0.466875
      31A     -0.455688    32A     -0.437001

  @DF-RHF Final Energy:  -383.93796111524625

   => Energetics <=

    Nuclear Repulsion Energy =            383.7880269495484526
    One-Electron Energy =               -1283.5644844900407406
    Two-Electron Energy =                 515.8384964252454665
    DFT Exchange-Correlation Energy =       0.0000000000000000
    Empirical Dispersion Energy =           0.0000000000000000
    PCM Polarization Energy =               0.0000000000000000
    EFP Energy =                            0.0000000000000000
    Total Energy =                       -383.9379611152468215
    Molecular point group: c1
  Basis Set: 6-31G*
  Basis Set:

  -Total Gradient:
     Atom            X                  Y                   Z
    ------   -----------------  -----------------  -----------------
       1        0.000014328698     0.000001526639    -0.000009430278
       2        0.000004358676    -0.000013022450    -0.000005445867
       3       -0.000037258304     0.000001335410     0.000032120995
       4        0.000000019566     0.000007944119     0.000013332802
       5        0.000671972527    -0.001078477974     0.003386989616
       6        0.000002626101    -0.000006686868    -0.000011947756
       7        0.000000218759    -0.000002191393    -0.000020637920
       8        0.001626935883    -0.002854286324     0.001607571715
       9       -0.000830736798     0.001397080308    -0.003077339290
      10       -0.000014718497    -0.000006808444    -0.000010209142
      11        0.000047893444    -0.000000728414    -0.000002326574
      12       -0.001496183399     0.002518384379    -0.001874167216
      13        0.000008162735     0.000028686874    -0.000011649414
      14       -0.000006359660     0.000013861002     0.000001365735
      15        0.000011028645    -0.000008540822    -0.000017783249
      16       -0.000012138750     0.000001476472     0.000006406358
      17        0.000009105333    -0.000004322714    -0.000006352590
      18       -0.000001907595    -0.000000032624     0.000000502734
      19        0.000002615586     0.000003133193    -0.000000123771
      20        0.000000037038     0.000001669629    -0.000000876891

  **** Optimization is complete! (in 5 steps) ****
    Final optimized geometry and variables:
    Molecular point group: c1

    Geometry (in Angstrom), charge = 0, multiplicity = 1:

    O            1.525050249610     0.814207477858     0.637919848806
    C            0.964473149339     0.367064894954    -0.310258886890
    C           -0.298038329161    -0.459316433520    -0.275322710101
    O            1.390401232319     0.541968179868    -1.554923305985
    C           -0.826944441745    -0.700383140168     1.138162442600
    H           -1.033541402518     0.048096824344    -0.893543363719
    H           -0.085186076214    -1.397635344475    -0.779853937251
    C           -2.152808532524    -1.482418466772     1.138605019862
    H           -0.967910889230     0.264697444254     1.613212679665
    H           -0.070959031290    -1.224692876055     1.711095683452
    C           -3.383888294907    -0.573141835423     1.103215366146
    H           -2.191923082960    -2.139612495779     0.272829447023
    H           -2.206770822895    -2.116334298148     2.018011711244
    H           -3.371364535750     0.080717603149     0.235390361793
    H           -4.299631020404    -1.154750097523     1.061139104483
    H           -3.429735351061     0.055390590755     1.987571590943
    C            2.572271477385     1.302250392462    -1.728919672419
    H            2.440143713389     2.303442128696    -1.344642239029
    H            2.751101016546     1.330523063919    -2.792490256218
    H            3.403512127857     0.833962985689    -1.221716854941

  Mulliken Charges: (a.u.)
   Center  Symbol    Alpha    Beta     Spin     Total
       1     O     4.28590  4.28590  0.00000 -0.57181
       2     C     2.60584  2.60584  0.00000  0.78833
       3     C     3.20934  3.20934  0.00000 -0.41869
       4     O     4.30711  4.30711  0.00000 -0.61421
       5     C     3.15426  3.15426  0.00000 -0.30851
       6     H     0.40059  0.40059  0.00000  0.19882
       7     H     0.40046  0.40046  0.00000  0.19908
       8     C     3.15785  3.15785  0.00000 -0.31570
       9     H     0.40988  0.40988  0.00000  0.18024
      10     H     0.40971  0.40971  0.00000  0.18058
      11     C     3.24041  3.24041  0.00000 -0.48083
      12     H     0.42252  0.42252  0.00000  0.15496
      13     H     0.41638  0.41638  0.00000  0.16725
      14     H     0.42307  0.42307  0.00000  0.15385
      15     H     0.41869  0.41869  0.00000  0.16262
      16     H     0.41901  0.41901  0.00000  0.16199
      17     C     3.09244  3.09244  0.00000 -0.18487
      18     H     0.40907  0.40907  0.00000  0.18187
      19     H     0.40844  0.40844  0.00000  0.18313
      20     H     0.40905  0.40905  0.00000  0.18189

   Total alpha = 32.00000, Total beta = 32.00000, Total charge =  0.00000
