  ==> Input File <==

--------------------------------------------------------------------------
set {
	reference rhf
	basis 6-31G*
}

set_num_threads( 4 )
memory 2 gb

molecule MOL {
0 1

H	 1.136379	 0.211822	 1.465562
C	 1.135357	 0.094285	 0.374742
C	 0.065331	 0.871482	 -0.349150
O	 1.941633	 -0.601957	 -0.151457
C	 -1.347094	 0.361945	 -0.028357
H	 0.270742	 0.827229	 -1.412522
H	 0.152357	 1.910223	 -0.033549
C	 -1.616298	 -1.046959	 -0.558395
H	 -2.067358	 1.052842	 -0.454844
H	 -1.504269	 0.386228	 1.047909
H	 -1.498731	 -1.085171	 -1.636933
H	 -2.627285	 -1.361848	 -0.321609
H	 -0.935129	 -1.775755	 -0.129147

	symmetry c1
}
set optking {
	frozen_dihedral = ("
		6 3 2 4
	")
}

ee = optimize('scf')
oeprop('DIPOLE', 'QUADRUPOLE', 'MULLIKEN_CHARGES')
f=open( 'psi4out.xyz', 'w' )
f.write( "13  " )
f.write( str(ee) + "\n" )
f.write( MOL.save_string_xyz() )
f.close()
--------------------------------------------------------------------------

    Molecular point group: c1
  Charge       = 0
  Multiplicity = 1
  Basis Set: 6-31G*
  Basis Set:
  @DF-RHF Final Energy:  -230.98449404170026
    Total Energy =                       -230.9844940417003727
    Molecular point group: c1
  Basis Set: 6-31G*
  Basis Set:
  Basis Set: 6-31G*
  Basis Set:
  @DF-RHF Final Energy:  -230.98354302249578
    Total Energy =                       -230.9835430224959509
  Basis Set: 6-31G*
  Basis Set:
  Basis Set: 6-31G*
  Basis Set:
  @DF-RHF Final Energy:  -230.98451725796602
    Total Energy =                       -230.9845172579660186
  Basis Set: 6-31G*
  Basis Set:
  Basis Set: 6-31G*
  Basis Set:
  @DF-RHF Final Energy:  -230.98452846367064
    Total Energy =                       -230.9845284636706424
  Basis Set: 6-31G*
  Basis Set:
  Basis Set: 6-31G*
  Basis Set:
  @DF-RHF Final Energy:  -230.98454164313219
    Total Energy =                       -230.9845416431322747
  Basis Set: 6-31G*
  Basis Set:
  Charge       = 0
  Multiplicity = 1
  Basis Set: 6-31G*
  Basis Set:

    Orbital Energies (a.u.)
    -----------------------

    Doubly Occupied:

       1A    -20.563469     2A    -11.327046     3A    -11.239185
       4A    -11.235685     5A    -11.219233     6A     -1.403164
       7A     -1.085731     8A     -0.972605     9A     -0.846933
      10A     -0.787685    11A     -0.668573    12A     -0.649928
      13A     -0.622227    14A     -0.594218    15A     -0.558132
      16A     -0.532114    17A     -0.506134    18A     -0.493036
      19A     -0.480814    20A     -0.410517

  @DF-RHF Final Energy:  -230.98454180691104

   => Energetics <=

    Nuclear Repulsion Energy =            174.3684830565082677
    One-Electron Energy =                -658.3131896878165890
    Two-Electron Energy =                 252.9601648243973102
    DFT Exchange-Correlation Energy =       0.0000000000000000
    Empirical Dispersion Energy =           0.0000000000000000
    PCM Polarization Energy =               0.0000000000000000
    EFP Energy =                            0.0000000000000000
    Total Energy =                       -230.9845418069110394
    Molecular point group: c1
  Basis Set: 6-31G*
  Basis Set:

  -Total Gradient:
     Atom            X                  Y                   Z
    ------   -----------------  -----------------  -----------------
       1        0.000022470547     0.000027134411    -0.000007145057
       2        0.000745384307     0.000899838272    -0.000089998872
       3       -0.000698970221    -0.000987576234    -0.000032343370
       4       -0.000457323912    -0.000552374963     0.000080245111
       5       -0.000001426770     0.000030252822     0.000003323124
       6        0.000395431192     0.000593153045     0.000058326774
       7       -0.000006991688    -0.000004043154     0.000014280624
       8       -0.000001650389     0.000009589181    -0.000018868693
       9        0.000006735996     0.000001579832    -0.000015980562
      10       -0.000011040734     0.000008378772    -0.000001063281
      11       -0.000019686890    -0.000004521579    -0.000004712690
      12        0.000018093340    -0.000006822978     0.000022018666
      13        0.000008975222    -0.000014587429    -0.000008081774

  **** Optimization is complete! (in 6 steps) ****
    Final optimized geometry and variables:
    Molecular point group: c1

    Geometry (in Angstrom), charge = 0, multiplicity = 1:

    H            1.082294900891     0.294093084932     1.615401953353
    C            1.094900545445     0.184067604917     0.524073668521
    C            0.030715990657     0.960539574666    -0.207967662427
    O            1.895924570249    -0.523892254867     0.004938066335
    C           -1.380602205469     0.444878500503     0.119205490939
    H            0.233341265673     0.904371334017    -1.271285316591
    H            0.109313120799     2.002123440053     0.097766299369
    C           -1.652128223847    -0.961864737629    -0.414711471319
    H           -2.102656041335     1.137596171024    -0.301281360720
    H           -1.532003681440     0.466074920419     1.196424532368
    H           -1.549124743522    -0.993191049957    -1.494911048599
    H           -2.659724259163    -1.278837310447    -0.166251055071
    H           -0.963460923531    -1.690655366183     0.000484322628

  Mulliken Charges: (a.u.)
   Center  Symbol    Alpha    Beta     Spin     Total
       1     H     0.43192  0.43192  0.00000  0.13617
       2     C     2.83322  2.83322  0.00000  0.33356
       3     C     3.20555  3.20555  0.00000 -0.41111
       4     O     4.23634  4.23634  0.00000 -0.47268
       5     C     3.16576  3.16576  0.00000 -0.33152
       6     H     0.40016  0.40016  0.00000  0.19968
       7     H     0.40997  0.40997  0.00000  0.18006
       8     C     3.24197  3.24197  0.00000 -0.48393
       9     H     0.41147  0.41147  0.00000  0.17707
      10     H     0.41836  0.41836  0.00000  0.16327
      11     H     0.41586  0.41586  0.00000  0.16828
      12     H     0.41617  0.41617  0.00000  0.16767
      13     H     0.41326  0.41326  0.00000  0.17348

   Total alpha = 20.00000, Total beta = 20.00000, Total charge = -0.00000
