  ==> Input File <==

--------------------------------------------------------------------------
set {
	reference rhf
	basis 6-31G*
}

set_num_threads( 4 )
memory 2 gb

molecule MOL {
0 1

H	 -4.031818	 -0.453427	 -0.000094
C	 -2.967712	 -0.297022	 -0.000064
C	 -2.458620	 0.992929	 0.000032
C	 -2.109895	 -1.385637	 -0.000122
H	 -3.124998	 1.836319	 0.000077
C	 -1.090278	 1.193236	 0.000070
H	 -2.506361	 -2.384847	 -0.000198
C	 -0.739812	 -1.187531	 -0.000085
H	 -0.678594	 2.184290	 0.000146
C	 -0.226438	 0.104061	 0.000012
H	 -0.072310	 -2.027032	 -0.000131
C	 1.239129	 0.373821	 0.000060
O	 1.940715	 -0.570194	 0.609335
O	 1.738825	 1.335730	 -0.493798
C	 3.345497	 -0.393882	 0.655938
H	 3.754805	 -0.351612	 -0.342799
H	 3.731846	 -1.251778	 1.183767
H	 3.595426	 0.515407	 1.182862

	symmetry c1
}
set optking {
	frozen_dihedral = ("
		13 12 10 6
	")
}

ee = optimize('scf')
oeprop('DIPOLE', 'QUADRUPOLE', 'MULLIKEN_CHARGES')
f=open( 'psi4out.xyz', 'w' )
f.write( "18  " )
f.write( str(ee) + "\n" )
f.write( MOL.save_string_xyz() )
f.close()
--------------------------------------------------------------------------

    Molecular point group: c1
  Charge       = 0
  Multiplicity = 1
  Basis Set: 6-31G*
  Basis Set:
  @DF-RHF Final Energy:  -457.34808399554817
    Total Energy =                       -457.3480839955479951
    Molecular point group: c1
  Basis Set: 6-31G*
  Basis Set:
  Basis Set: 6-31G*
  Basis Set:
  @DF-RHF Final Energy:  -457.34617806021816
    Total Energy =                       -457.3461780602184490
  Basis Set: 6-31G*
  Basis Set:
  Basis Set: 6-31G*
  Basis Set:
  @DF-RHF Final Energy:  -457.34830099547571
    Total Energy =                       -457.3483009954755971
  Basis Set: 6-31G*
  Basis Set:
  Basis Set: 6-31G*
  Basis Set:
  @DF-RHF Final Energy:  -457.34835380055165
    Total Energy =                       -457.3483538005515356
  Basis Set: 6-31G*
  Basis Set:
  Charge       = 0
  Multiplicity = 1
  Basis Set: 6-31G*
  Basis Set:

    Orbital Energies (a.u.)
    -----------------------

    Doubly Occupied:

       1A    -20.608394     2A    -20.545570     3A    -11.378120
       4A    -11.283106     5A    -11.246681     6A    -11.244501
       7A    -11.244305     8A    -11.242555     9A    -11.238167
      10A    -11.237464    11A     -1.473190    12A     -1.364660
      13A     -1.165816    14A     -1.048501    15A     -1.025268
      16A     -0.978481    17A     -0.860211    18A     -0.835550
      19A     -0.778324    20A     -0.739123    21A     -0.683654
      22A     -0.677783    23A     -0.673366    24A     -0.630773
      25A     -0.625769    26A     -0.597604    27A     -0.586990
      28A     -0.557629    29A     -0.531266    30A     -0.516313
      31A     -0.504993    32A     -0.500474    33A     -0.458629
      34A     -0.444502    35A     -0.344307    36A     -0.341522

  @DF-RHF Final Energy:  -457.34835469175306

   => Energetics <=

    Nuclear Repulsion Energy =            492.8467611474878254
    One-Electron Energy =               -1599.9631104181848968
    Two-Electron Energy =                 649.7679945789441263
    DFT Exchange-Correlation Energy =       0.0000000000000000
    Empirical Dispersion Energy =           0.0000000000000000
    PCM Polarization Energy =               0.0000000000000000
    EFP Energy =                            0.0000000000000000
    Total Energy =                       -457.3483546917530020
    Molecular point group: c1
  Basis Set: 6-31G*
  Basis Set:

  -Total Gradient:
     Atom            X                  Y                   Z
    ------   -----------------  -----------------  -----------------
       1       -0.000001181523     0.000005121952     0.000019631602
       2        0.000010550263    -0.000065703149    -0.000063299528
       3        0.000058776524     0.000042551937     0.000025348856
       4       -0.000058798567     0.000012432173    -0.000002074062
       5       -0.000000758525    -0.000001219910    -0.000008616501
       6       -0.000085040473    -0.000022244270     0.003807904637
       7        0.000004860349    -0.000001274598     0.000003237029
       8        0.000040505887     0.000014828881     0.000050247495
       9        0.000008226343    -0.000005383959     0.000002081171
      10       -0.000014773330     0.000637274407    -0.004311110425
      11       -0.000015079857     0.000009278590    -0.000037152847
      12        0.000491955778    -0.002472770855    -0.002802204327
      13       -0.000397864661     0.001842342537     0.003407919410
      14       -0.000025168599     0.000035220273    -0.000021588132
      15       -0.000003330232    -0.000071169110    -0.000159606691
      16        0.000029253481     0.000004943829     0.000044270155
      17       -0.000005462992     0.000009100707     0.000026529147
      18       -0.000036669874     0.000026670561     0.000018483011

  **** Optimization is complete! (in 5 steps) ****
    Final optimized geometry and variables:
    Molecular point group: c1

    Geometry (in Angstrom), charge = 0, multiplicity = 1:

    H           -4.022538217357    -0.488575394438    -0.066959226533
    C           -2.959269628607    -0.327692942775    -0.078627175297
    C           -2.455572098805     0.963974269704    -0.086060995328
    C           -2.096510405926    -1.412682863893    -0.080959233728
    H           -3.125281131086     1.804722594187    -0.076104378962
    C           -1.087760725744     1.170728296095    -0.107842768997
    H           -2.488510996110    -2.413611803455    -0.072735533643
    C           -0.727541326054    -1.207998525297    -0.083469269358
    H           -0.682562215650     2.164763707460    -0.126398054614
    C           -0.221025275051     0.085239690965    -0.114340741075
    H           -0.055350851118    -2.044550188026    -0.066047376115
    C            1.244785718209     0.355645504066    -0.096693576625
    O            1.934244975078    -0.600128901635     0.507777261146
    O            1.745741566823     1.342707846832    -0.535381326548
    C            3.339804404941    -0.433156314213     0.569752760636
    H            3.759629844838    -0.369379201875    -0.423681267583
    H            3.716600544475    -1.304787641404     1.081571273933
    H            3.588610579582     0.462375055698     1.120053293550

  Mulliken Charges: (a.u.)
   Center  Symbol    Alpha    Beta     Spin     Total
       1     H     0.39561  0.39561  0.00000  0.20878
       2     C     3.09139  3.09139  0.00000 -0.18279
       3     C     3.10563  3.10563  0.00000 -0.21126
       4     C     3.10626  3.10626  0.00000 -0.21253
       5     H     0.39541  0.39541  0.00000  0.20918
       6     C     3.09066  3.09066  0.00000 -0.18132
       7     H     0.39613  0.39613  0.00000  0.20774
       8     C     3.08853  3.08853  0.00000 -0.17706
       9     H     0.37903  0.37903  0.00000  0.24194
      10     C     3.05408  3.05408  0.00000 -0.10815
      11     H     0.38400  0.38400  0.00000  0.23200
      12     C     2.60127  2.60127  0.00000  0.79746
      13     O     4.30708  4.30708  0.00000 -0.61417
      14     O     4.28877  4.28877  0.00000 -0.57754
      15     C     3.09348  3.09348  0.00000 -0.18697
      16     H     0.40810  0.40810  0.00000  0.18381
      17     H     0.40754  0.40754  0.00000  0.18492
      18     H     0.40702  0.40702  0.00000  0.18596

   Total alpha = 36.00000, Total beta = 36.00000, Total charge =  0.00000
