  ==> Input File <==

--------------------------------------------------------------------------
set {
	reference rhf
	basis 6-31G*
}

set_num_threads( 4 )
memory 2 gb

molecule MOL {
0 1

H	 0.540033	 1.990959	 3.699780
O	 1.482564	 1.930423	 3.754939
C	 1.866863	 0.581061	 3.829719
C	 1.708732	 -0.163115	 2.508386
H	 2.908767	 0.587614	 4.123092
H	 1.312889	 0.070111	 4.616372
C	 0.260571	 -0.271827	 2.024773
H	 2.308287	 0.340939	 1.754841
H	 2.125434	 -1.161624	 2.629654
C	 0.129634	 -1.070488	 0.724844
H	 -0.143299	 0.726265	 1.879634
H	 -0.344660	 -0.745827	 2.797663
C	 -1.309753	 -1.282496	 0.241564
H	 0.702986	 -0.576971	 -0.057815
H	 0.591252	 -2.045017	 0.869423
C	 -2.037799	 -0.007733	 -0.193645
H	 -1.289906	 -1.974169	 -0.598085
H	 -1.882995	 -1.775684	 1.025144
C	 -3.489788	 0.042957	 0.286558
H	 -2.017067	 0.064384	 -1.280144
H	 -1.513726	 0.868678	 0.179924
C	 -4.216917	 1.317354	 -0.141063
H	 -4.025645	 -0.823308	 -0.095450
H	 -3.513059	 -0.038752	 1.371301
H	 -4.239342	 1.411634	 -1.223113
H	 -5.243387	 1.322503	 0.212445
H	 -3.726170	 2.201406	 0.256408

	symmetry c1
}
set optking {
	frozen_dihedral = ("
		10 13 16 20
	")
}

ee = optimize('scf')
oeprop('DIPOLE', 'QUADRUPOLE', 'MULLIKEN_CHARGES')
f=open( 'psi4out.xyz', 'w' )
f.write( "27  " )
f.write( str(ee) + "\n" )
f.write( MOL.save_string_xyz() )
f.close()
--------------------------------------------------------------------------

    Molecular point group: c1
  Charge       = 0
  Multiplicity = 1
  Basis Set: 6-31G*
  Basis Set:
  @DF-RHF Final Energy:  -388.27713135345613
    Total Energy =                       -388.2771313534560704
    Molecular point group: c1
  Basis Set: 6-31G*
  Basis Set:
  Basis Set: 6-31G*
  Basis Set:
  @DF-RHF Final Energy:  -388.27744815801657
    Total Energy =                       -388.2774481580163410
  Basis Set: 6-31G*
  Basis Set:
  Basis Set: 6-31G*
  Basis Set:
  @DF-RHF Final Energy:  -388.27768395314854
    Total Energy =                       -388.2776839531487667
  Basis Set: 6-31G*
  Basis Set:
  Basis Set: 6-31G*
  Basis Set:
  @DF-RHF Final Energy:  -388.27766082148707
    Total Energy =                       -388.2776608214868475
  Basis Set: 6-31G*
  Basis Set:
  Basis Set: 6-31G*
  Basis Set:
  @DF-RHF Final Energy:  -388.27768998842964
    Total Energy =                       -388.2776899884302111
  Basis Set: 6-31G*
  Basis Set:
  Basis Set: 6-31G*
  Basis Set:
  @DF-RHF Final Energy:  -388.27769983515867
    Total Energy =                       -388.2776998351585007
  Basis Set: 6-31G*
  Basis Set:
  Charge       = 0
  Multiplicity = 1
  Basis Set: 6-31G*
  Basis Set:

    Orbital Energies (a.u.)
    -----------------------

    Doubly Occupied:

       1A    -20.552559     2A    -11.267275     3A    -11.220207
       4A    -11.217395     5A    -11.216501     6A    -11.215464
       7A    -11.215347     8A    -11.214017     9A    -11.209296
      10A     -1.359296    11A     -1.094501    12A     -1.060978
      13A     -1.011260    14A     -0.947942    15A     -0.887922
      16A     -0.821329    17A     -0.798545    18A     -0.781385
      19A     -0.694183    20A     -0.648412    21A     -0.640860
      22A     -0.612924    23A     -0.599173    24A     -0.585793
      25A     -0.578974    26A     -0.553416    27A     -0.546111
      28A     -0.523889    29A     -0.506436    30A     -0.493352
      31A     -0.485807    32A     -0.477675    33A     -0.468864
      34A     -0.459272    35A     -0.449974    36A     -0.440827
      37A     -0.423573

  @DF-RHF Final Energy:  -388.27769914379274

   => Energetics <=

    Nuclear Repulsion Energy =            463.2403592168372484
    One-Electron Energy =               -1444.4746476456869004
    Two-Electron Energy =                 592.9565892850575892
    DFT Exchange-Correlation Energy =       0.0000000000000000
    Empirical Dispersion Energy =           0.0000000000000000
    PCM Polarization Energy =               0.0000000000000000
    EFP Energy =                            0.0000000000000000
    Total Energy =                       -388.2776991437920060
    Molecular point group: c1
  Basis Set: 6-31G*
  Basis Set:

  -Total Gradient:
     Atom            X                  Y                   Z
    ------   -----------------  -----------------  -----------------
       1       -0.000000786856    -0.000015114183    -0.000006528050
       2        0.000044920672     0.000031284000     0.000013223745
       3       -0.000069386556    -0.000002754022    -0.000006278805
       4        0.000058433113     0.000038670435    -0.000045565040
       5       -0.000009908602     0.000009921109    -0.000000104805
       6        0.000002595892    -0.000005640125     0.000007836371
       7       -0.000018546988     0.000013773048    -0.000016390465
       8        0.000018449605    -0.000022982251    -0.000036027612
       9       -0.000005401747     0.000007673985     0.000019229154
      10       -0.000715362619     0.000299848317     0.002175312137
      11        0.000040012140     0.000024822056     0.000034777687
      12       -0.000056300673    -0.000062303151    -0.000035598528
      13        0.000432345435    -0.000908622603    -0.002981255344
      14       -0.000063313412     0.000052680401     0.000042219164
      15        0.000028506239    -0.000026679754    -0.000048525158
      16        0.002860423548     0.002008563395     0.000899571772
      17        0.000010945563    -0.000082832211     0.000037785957
      18        0.000049742562     0.000073943814     0.000004298823
      19       -0.000049085388    -0.000016567382    -0.000071588452
      20       -0.002568478890    -0.001467805894     0.000019829324
      21       -0.000000271481     0.000056168218    -0.000044513978
      22        0.000013062401     0.000019519787     0.000049653806
      23       -0.000026106311     0.000006155487    -0.000020099329
      24        0.000011404696    -0.000029510422    -0.000002030403
      25        0.000004179252    -0.000015249806     0.000004978979
      26        0.000006727978    -0.000000749672     0.000008337237
      27        0.000001200430     0.000013787424    -0.000002548198

  **** Optimization is complete! (in 7 steps) ****
    Final optimized geometry and variables:
    Molecular point group: c1

    Geometry (in Angstrom), charge = 0, multiplicity = 1:

    H            1.060999438009     1.679089452435     2.376390742391
    O            2.006414621749     1.712372728668     2.362477451720
    C            2.525193804641     0.407233636158     2.322558752535
    C            2.347124204440    -0.268708004084     0.967541890887
    H            3.579612840585     0.502830947312     2.547671808945
    H            2.081233198864    -0.203603767325     3.107736647716
    C            0.885602895519    -0.491402195321     0.571301045382
    H            2.841911558422     0.336063785833     0.212117307903
    H            2.864149158278    -1.226468147995     0.995801713369
    C            0.736570640764    -1.232631275524    -0.759949373136
    H            0.380092494646     0.469162313841     0.512805707302
    H            0.381238498533    -1.062130972067     1.350903269068
    C           -0.718270741262    -1.442994476570    -1.198145545265
    H            1.275259879399    -0.692672455442    -1.536787294981
    H            1.223037812618    -2.201718971365    -0.671937574102
    C           -1.432387783573    -0.166380097238    -1.689136389688
    H           -0.749666641569    -2.195395101480    -1.980941467915
    H           -1.267590374272    -1.866677396616    -0.359336767647
    C           -2.883284560369    -0.061641968234    -1.210378772885
    H           -1.435234604430    -0.152613433910    -2.776496486960
    H           -0.891677957153     0.721266496734    -1.372172722493
    C           -3.602172494089     1.176633550403    -1.743422419404
    H           -3.426889205653    -0.954114076539    -1.513974577670
    H           -2.901756894846    -0.050932010502    -0.122353715659
    H           -3.635713645412     1.173559575779    -2.829277937327
    H           -4.624567398412     1.225211552509    -1.381428784021
    H           -3.097743747104     2.087448165048    -1.432636704346

  Mulliken Charges: (a.u.)
   Center  Symbol    Alpha    Beta     Spin     Total
       1     H     0.27986  0.27986  0.00000  0.44028
       2     O     4.37092  4.37092  0.00000 -0.74185
       3     C     2.99756  2.99756  0.00000  0.00488
       4     C     3.16078  3.16078  0.00000 -0.32156
       5     H     0.41439  0.41439  0.00000  0.17123
       6     H     0.43194  0.43194  0.00000  0.13612
       7     C     3.16267  3.16267  0.00000 -0.32535
       8     H     0.41491  0.41491  0.00000  0.17019
       9     H     0.42416  0.42416  0.00000  0.15168
      10     C     3.15360  3.15360  0.00000 -0.30719
      11     H     0.42389  0.42389  0.00000  0.15222
      12     H     0.42514  0.42514  0.00000  0.14972
      13     C     3.15675  3.15675  0.00000 -0.31351
      14     H     0.42138  0.42138  0.00000  0.15724
      15     H     0.42186  0.42186  0.00000  0.15628
      16     C     3.15431  3.15431  0.00000 -0.30862
      17     H     0.41845  0.41845  0.00000  0.16310
      18     H     0.42268  0.42268  0.00000  0.15463
      19     C     3.15293  3.15293  0.00000 -0.30587
      20     H     0.42113  0.42113  0.00000  0.15773
      21     H     0.42114  0.42114  0.00000  0.15772
      22     C     3.23980  3.23980  0.00000 -0.47961
      23     H     0.42246  0.42246  0.00000  0.15508
      24     H     0.42456  0.42456  0.00000  0.15087
      25     H     0.42140  0.42140  0.00000  0.15719
      26     H     0.41930  0.41930  0.00000  0.16140
      27     H     0.42200  0.42200  0.00000  0.15601

   Total alpha = 37.00000, Total beta = 37.00000, Total charge =  0.00000
