                              Psi4 1.0.54 Driver

  ==> Input File <==

--------------------------------------------------------------------------
set {
	reference rhf
	basis cc-pvtz
}

set_num_threads( 4 )
memory 2 gb

molecule MOL {
0 1

H	 2.828711	 -0.346904	 0.001083
C	 1.876752	 0.015931	 -0.363450
C	 0.776285	 -0.474665	 0.563092
H	 1.728113	 -0.357244	 -1.367440
H	 1.906171	 1.096574	 -0.386153
N	 -0.540022	 0.017605	 0.071630
H	 0.707111	 -1.548969	 0.573035
H	 0.886169	 -0.084184	 1.560432
O	 -0.531514	 0.948243	 -0.661879
O	 -1.508701	 -0.536840	 0.469937

	symmetry c1
}
set optking {
	frozen_dihedral = ("
		9 6 3 2
	")
}

ee,wfn = optimize('scf', return_wfn=True)
oeprop( wfn, 'DIPOLE', 'QUADRUPOLE', 'MULLIKEN_CHARGES')
f=open( 'psi4out.xyz', 'w' )
f.write( "10  " )
f.write( str(ee) + "\n" )
f.write( MOL.save_string_xyz() )
f.close()
--------------------------------------------------------------------------

    Molecular point group: c1
  Charge       = 0
  Multiplicity = 1
  Basis Set: CC-PVTZ
  Basis Set:
  @DF-RHF Final Energy:  -282.81141179334043
    Total Energy =                       -282.8114117933404259
    Molecular point group: c1
  Basis Set: CC-PVTZ
  Basis Set:
  Basis Set: CC-PVTZ
  Basis Set:
  @DF-RHF Final Energy:  -281.89558326942648
    Total Energy =                       -281.8955832694264245
  Basis Set: CC-PVTZ
  Basis Set:
  Basis Set: CC-PVTZ
  Basis Set:
  @DF-RHF Final Energy:  -282.06188942689039
    Total Energy =                       -282.0618894268903318
  Basis Set: CC-PVTZ
  Basis Set:
  Basis Set: CC-PVTZ
  Basis Set:
  @DF-RHF Final Energy:  -282.40089047659581
    Total Energy =                       -282.4008904765958050
  Basis Set: CC-PVTZ
  Basis Set:
  @DF-RHF Final Energy:  -282.59686517311559
    Total Energy =                       -282.5968651731154750
  @DF-RHF Final Energy:  -282.72761312210810
    Total Energy =                       -282.7276131221080391
  @DF-RHF Final Energy:  -282.79121128653571
    Total Energy =                       -282.7912112865358267
  @DF-RHF Final Energy:  -282.81242288410493
    Total Energy =                       -282.8124228841048762
  @DF-RHF Final Energy:  -282.81166947089753
    Total Energy =                       -282.8116694708974705
  @DF-RHF Final Energy:  -282.80444581693456
    Total Energy =                       -282.8044458169346171
  Basis Set: CC-PVTZ
  Basis Set:
  @DF-RHF Final Energy:  -282.81274113810548
    Total Energy =                       -282.8127411381052525
  Basis Set: CC-PVTZ
  Basis Set:
  Basis Set: CC-PVTZ
  Basis Set:
  @DF-RHF Final Energy:  -282.81290182461532
    Total Energy =                       -282.8129018246153237
  Basis Set: CC-PVTZ
  Basis Set:
  Basis Set: CC-PVTZ
  Basis Set:
  @DF-RHF Final Energy:  -282.81291366471396
    Total Energy =                       -282.8129136647138466
  Basis Set: CC-PVTZ
  Basis Set:
  Charge       = 0
  Multiplicity = 1
  Basis Set: CC-PVTZ
  Basis Set:

    Orbital Energies (a.u.)
    -----------------------

    Doubly Occupied:

       1A    -20.594148     2A    -20.589807     3A    -15.839573
       4A    -11.303218     5A    -11.244047     6A     -1.638552
       7A     -1.422794     8A     -1.124056     9A     -0.966954
      10A     -0.835264    11A     -0.763557    12A     -0.751545
      13A     -0.732138    14A     -0.640768    15A     -0.594187
      16A     -0.564137    17A     -0.538893    18A     -0.490155
      19A     -0.479872    20A     -0.455491

  @DF-RHF Final Energy:  -282.81291636407610

   => Energetics <=

    Nuclear Repulsion Energy =            186.5649772074978046
    One-Electron Energy =                -755.6174799198703340
    Two-Electron Energy =                 286.2395863482964842
    DFT Exchange-Correlation Energy =       0.0000000000000000
    Empirical Dispersion Energy =           0.0000000000000000
    PCM Polarization Energy =               0.0000000000000000
    EFP Energy =                            0.0000000000000000
    Total Energy =                       -282.8129163640760453
    Molecular point group: c1
  Basis Set: CC-PVTZ
  Basis Set:

  -Total Gradient:
     Atom            X                  Y                   Z
    ------   -----------------  -----------------  -----------------
       1        0.000009063370    -0.000016440407     0.000009410221
       2        0.000071075179     0.000094607951    -0.000043658992
       3       -0.000084793934    -0.000142044479     0.000042029334
       4       -0.000000334440    -0.000013022727     0.000002294294
       5        0.000002112730    -0.000000477555    -0.000013762464
       6        0.000160852760     0.000141195390     0.000024333298
       7       -0.000000025598    -0.000011644712     0.000012243747
       8        0.000013195588     0.000016842334     0.000005901722
       9       -0.000065729931    -0.000094021492    -0.000045034231
      10       -0.000105415724     0.000025005697     0.000006243066

  **** Optimization is complete! (in 14 steps) ****
    Final optimized geometry and variables:
    Molecular point group: c1

    Geometry (in Angstrom), charge = 0, multiplicity = 1:

    H            2.722389762175    -0.747152441354     0.565527562017
    C            1.859030775133    -0.625617094438    -0.077184274641
    C            0.737213924716    -0.034228790286     0.745620537420
    H            1.586991017062    -1.595059780999    -0.471393469839
    H            2.126681829654     0.017271627763    -0.901401366969
    N           -0.527349360591     0.158276222422    -0.027641413197
    H            0.456773439419    -0.648062587381     1.585168359384
    H            0.975312820714     0.953815938955     1.113619137907
    O           -0.465437238161     0.195930687047    -1.208862886895
    O           -1.516451531845     0.287772076793     0.612392567760

  Mulliken Charges: (a.u.)
   Center  Symbol    Alpha    Beta     Spin     Total
       1     H     0.44935  0.44935  0.00000  0.10130
       2     C     3.13901  3.13901  0.00000 -0.27802
       3     C     3.04293  3.04293  0.00000 -0.08587
       4     H     0.44402  0.44402  0.00000  0.11196
       5     H     0.43880  0.43880  0.00000  0.12241
       6     N     3.27642  3.27642  0.00000  0.44717
       7     H     0.43162  0.43162  0.00000  0.13675
       8     H     0.43514  0.43514  0.00000  0.12972
       9     O     4.17003  4.17003  0.00000 -0.34006
      10     O     4.17268  4.17268  0.00000 -0.34536

   Total alpha = 20.00000, Total beta = 20.00000, Total charge = -0.00000

*** Psi4 exiting successfully. Buy a developer a beer!
