                              Psi4 1.0.54 Driver

  ==> Input File <==

--------------------------------------------------------------------------
set {
	reference rhf
	basis cc-pvtz
}

set_num_threads( 4 )
memory 2 gb

molecule MOL {
0 1

H	 -2.171709	 0.882708	 0.500286
C	 -2.016894	 0.001719	 -0.114152
O	 -0.775228	 0.000056	 -0.739966
H	 -2.760846	 0.003757	 -0.898169
H	 -2.174774	 -0.879864	 0.498643
C	 -0.691354	 -0.178988	 -2.140033
C	 0.804486	 -0.118843	 -2.429397
C	 -1.247213	 -1.542286	 -2.556058
C	 -1.410940	 0.947195	 -2.884684
H	 1.321652	 -0.898532	 -1.884671
H	 1.207366	 0.835601	 -2.115026
H	 1.000835	 -0.246432	 -3.487290
H	 -0.780194	 -2.330885	 -1.978411
H	 -1.045379	 -1.722935	 -3.605114
H	 -2.319214	 -1.605017	 -2.416625
H	 -1.059348	 1.911659	 -2.538442
H	 -1.216088	 0.875096	 -3.948033
H	 -2.484326	 0.905166	 -2.748146

	symmetry c1
}
set optking {
	frozen_dihedral = ("
		6 3 2 5
	")
}

ee,wfn = optimize('scf', return_wfn=True)
oeprop( wfn, 'DIPOLE', 'QUADRUPOLE', 'MULLIKEN_CHARGES')
f=open( 'psi4out.xyz', 'w' )
f.write( "18  " )
f.write( str(ee) + "\n" )
f.write( MOL.save_string_xyz() )
f.close()
--------------------------------------------------------------------------

    Molecular point group: c1
  Charge       = 0
  Multiplicity = 1
  Basis Set: CC-PVTZ
  Basis Set:
  @DF-RHF Final Energy:  -271.27213809056991
    Total Energy =                       -271.2721380905697970
    Molecular point group: c1
  Basis Set: CC-PVTZ
  Basis Set:
  Basis Set: CC-PVTZ
  Basis Set:
  @DF-RHF Final Energy:  -271.27392666605056
    Total Energy =                       -271.2739266660506701
  Basis Set: CC-PVTZ
  Basis Set:
  Basis Set: CC-PVTZ
  Basis Set:
  @DF-RHF Final Energy:  -271.27454607866923
    Total Energy =                       -271.2745460786691183
  Basis Set: CC-PVTZ
  Basis Set:
  Basis Set: CC-PVTZ
  Basis Set:
  @DF-RHF Final Energy:  -271.27429465814407
    Total Energy =                       -271.2742946581439583
  Basis Set: CC-PVTZ
  Basis Set:
  Basis Set: CC-PVTZ
  Basis Set:
  @DF-RHF Final Energy:  -271.27464161524205
    Total Energy =                       -271.2746416152419897
  Basis Set: CC-PVTZ
  Basis Set:
  Basis Set: CC-PVTZ
  Basis Set:
  @DF-RHF Final Energy:  -271.27464428251920
    Total Energy =                       -271.2746442825190911
  Basis Set: CC-PVTZ
  Basis Set:
  Basis Set: CC-PVTZ
  Basis Set:
  @DF-RHF Final Energy:  -271.27464711996743
    Total Energy =                       -271.2746471199675398
  Basis Set: CC-PVTZ
  Basis Set:
  Charge       = 0
  Multiplicity = 1
  Basis Set: CC-PVTZ
  Basis Set:

    Orbital Energies (a.u.)
    -----------------------

    Doubly Occupied:

       1A    -20.538277     2A    -11.280752     3A    -11.258430
       4A    -11.207296     5A    -11.206823     6A    -11.201799
       7A     -1.371352     8A     -1.074150     9A     -0.946537
      10A     -0.940955    11A     -0.913513    12A     -0.753789
      13A     -0.656477    14A     -0.645548    15A     -0.640557
      16A     -0.590762    17A     -0.572247    18A     -0.552560
      19A     -0.538739    20A     -0.524825    21A     -0.515380
      22A     -0.491551    23A     -0.488202    24A     -0.439730
      25A     -0.404163

  @DF-RHF Final Energy:  -271.27464792633782

   => Energetics <=

    Nuclear Repulsion Energy =            272.5050560670513278
    One-Electron Energy =                -908.0505822498066664
    Two-Electron Energy =                 364.2708782564176317
    DFT Exchange-Correlation Energy =       0.0000000000000000
    Empirical Dispersion Energy =           0.0000000000000000
    PCM Polarization Energy =               0.0000000000000000
    EFP Energy =                            0.0000000000000000
    Total Energy =                       -271.2746479263377068
    Molecular point group: c1
  Basis Set: CC-PVTZ
  Basis Set:

  -Total Gradient:
     Atom            X                  Y                   Z
    ------   -----------------  -----------------  -----------------
       1        0.000012966525    -0.000000264791    -0.000009092017
       2       -0.000666852189    -0.000329274937    -0.001281711669
       3        0.000292787396    -0.001328192549     0.000553929055
       4       -0.000006999232     0.000004578194    -0.000009356690
       5        0.000491409447     0.000655813812     0.000930602124
       6       -0.000122309983     0.001007860681    -0.000185236158
       7       -0.000007347161    -0.000001192258     0.000003337618
       8        0.000003653442    -0.000003778030    -0.000008296239
       9        0.000009110599    -0.000005281298     0.000006571242
      10       -0.000000160158    -0.000001128095     0.000001643730
      11       -0.000006351903     0.000000384675     0.000000412188
      12       -0.000001310290    -0.000000713392    -0.000002430084
      13       -0.000000083988     0.000005880905    -0.000001871903
      14       -0.000000484971    -0.000005165979    -0.000004663074
      15        0.000001825595     0.000003213993     0.000001946765
      16        0.000000627600     0.000000540828     0.000001663428
      17        0.000000594477     0.000001234772    -0.000005706280
      18       -0.000001075206    -0.000004516533     0.000008257964

  **** Optimization is complete! (in 8 steps) ****
    Final optimized geometry and variables:
    Molecular point group: c1

    Geometry (in Angstrom), charge = 0, multiplicity = 1:

    H           -1.148389539174     1.070020800676     2.325837489838
    C           -1.078012643259     0.184040087923     1.706448093022
    O            0.145926684561     0.203240416652     1.038280103564
    H           -1.930504504429     0.174684140182     1.040629774526
    H           -1.139315656495    -0.684599185245     2.353672999457
    C            0.205559205596    -0.039442131565    -0.352955845764
    C            1.695864915369    -0.003047875071    -0.672705282412
    C           -0.365605523038    -1.417034596871    -0.693871693978
    C           -0.516831890128     1.062668802385    -1.130302077598
    H            2.218184180865    -0.764477764456    -0.107667369080
    H            2.111723558296     0.959960316495    -0.405131604124
    H            1.869906017349    -0.174218573082    -1.728479613801
    H            0.138134657037    -2.183805162260    -0.117824509477
    H           -0.225729812428    -1.633912557126    -1.746257916089
    H           -1.426824036471    -1.478741698144    -0.486200742004
    H           -0.124085082539     2.033002042229    -0.852164215835
    H           -0.372613874057     0.928110021697    -2.195863811687
    H           -1.583636586905     1.062364957086    -0.944698359674

  Mulliken Charges: (a.u.)
   Center  Symbol    Alpha    Beta     Spin     Total
       1     H     0.45048  0.45048  0.00000  0.09904
       2     C     3.04321  3.04321  0.00000 -0.08642
       3     O     4.19354  4.19354  0.00000 -0.38707
       4     H     0.46821  0.46821  0.00000  0.06357
       5     H     0.45704  0.45704  0.00000  0.08592
       6     C     2.87910  2.87910  0.00000  0.24179
       7     C     3.14290  3.14290  0.00000 -0.28580
       8     C     3.16056  3.16056  0.00000 -0.32111
       9     C     3.16071  3.16071  0.00000 -0.32142
      10     H     0.44919  0.44919  0.00000  0.10162
      11     H     0.44882  0.44882  0.00000  0.10237
      12     H     0.45923  0.45923  0.00000  0.08155
      13     H     0.44657  0.44657  0.00000  0.10685
      14     H     0.44820  0.44820  0.00000  0.10359
      15     H     0.44862  0.44862  0.00000  0.10275
      16     H     0.44647  0.44647  0.00000  0.10707
      17     H     0.44897  0.44897  0.00000  0.10206
      18     H     0.44817  0.44817  0.00000  0.10365

   Total alpha = 25.00000, Total beta = 25.00000, Total charge =  0.00000

*** Psi4 exiting successfully. Buy a developer a beer!
