                              Psi4 1.0.54 Driver

  ==> Input File <==

--------------------------------------------------------------------------
set {
	reference rhf
	basis cc-pvtz
}

set_num_threads( 4 )
memory 2 gb

molecule MOL {
0 1

H	 -3.258660	 -0.290394	 1.471450
C	 -3.307964	 -0.275695	 0.374072
C	 -2.653809	 0.914422	 -0.273689
O	 -3.855140	 -1.148880	 -0.205112
C	 -1.216901	 1.136108	 0.207794
H	 -2.700131	 0.790676	 -1.347875
H	 -3.256452	 1.781007	 -0.010713
C	 -0.247837	 0.040196	 -0.230469
H	 -0.872882	 2.093195	 -0.169002
H	 -1.209325	 1.218376	 1.291938
C	 1.181757	 0.280428	 0.247371
H	 -0.259600	 -0.030819	 -1.314870
H	 -0.591284	 -0.923375	 0.136958
C	 2.151032	 -0.811012	 -0.202643
H	 1.515939	 1.247397	 -0.115449
H	 1.191514	 0.341223	 1.333422
C	 3.580021	 -0.656538	 0.320835
H	 2.170545	 -0.847575	 -1.289412
H	 1.766632	 -1.772905	 0.124928
C	 4.216459	 0.704235	 0.048202
H	 4.196005	 -1.425503	 -0.134849
H	 3.593428	 -0.853086	 1.389711
H	 4.211054	 0.930892	 -1.013208
H	 3.697282	 1.505571	 0.560062
H	 5.247394	 0.719880	 0.382706

	symmetry c1
}
set optking {
	frozen_dihedral = ("
		20 17 14 18
	")
}

ee,wfn = optimize('scf', return_wfn=True)
oeprop( wfn, 'DIPOLE', 'QUADRUPOLE', 'MULLIKEN_CHARGES')
f=open( 'psi4out.xyz', 'w' )
f.write( "25  " )
f.write( str(ee) + "\n" )
f.write( MOL.save_string_xyz() )
f.close()
--------------------------------------------------------------------------

    Molecular point group: c1
  Charge       = 0
  Multiplicity = 1
  Basis Set: CC-PVTZ
  Basis Set:
  @DF-RHF Final Energy:  -387.25968866978178
    Total Energy =                       -387.2596886697820082
    Molecular point group: c1
  Basis Set: CC-PVTZ
  Basis Set:
  Basis Set: CC-PVTZ
  Basis Set:
  @DF-RHF Final Energy:  -387.25971210773162
    Total Energy =                       -387.2597121077316160
  Basis Set: CC-PVTZ
  Basis Set:
  Basis Set: CC-PVTZ
  Basis Set:
  @DF-RHF Final Energy:  -387.25984521534133
    Total Energy =                       -387.2598452153413291
  Basis Set: CC-PVTZ
  Basis Set:
  Basis Set: CC-PVTZ
  Basis Set:
  @DF-RHF Final Energy:  -387.25976357511456
    Total Energy =                       -387.2597635751149028
  Basis Set: CC-PVTZ
  Basis Set:
  Basis Set: CC-PVTZ
  Basis Set:
  @DF-RHF Final Energy:  -387.25984913508125
    Total Energy =                       -387.2598491350811400
  Basis Set: CC-PVTZ
  Basis Set:
  Basis Set: CC-PVTZ
  Basis Set:
  @DF-RHF Final Energy:  -387.25985332442281
    Total Energy =                       -387.2598533244229202
  Basis Set: CC-PVTZ
  Basis Set:
  Charge       = 0
  Multiplicity = 1
  Basis Set: CC-PVTZ
  Basis Set:

    Orbital Energies (a.u.)
    -----------------------

    Doubly Occupied:

       1A    -20.551409     2A    -11.321017     3A    -11.233834
       4A    -11.232876     5A    -11.221783     6A    -11.217927
       7A    -11.216356     8A    -11.215048     9A    -11.208829
      10A     -1.406409    11A     -1.105395    12A     -1.070827
      13A     -1.014360    14A     -0.943422    15A     -0.877445
      16A     -0.821915    17A     -0.788784    18A     -0.779357
      19A     -0.668165    20A     -0.663665    21A     -0.636362
      22A     -0.626831    23A     -0.602638    24A     -0.595027
      25A     -0.577379    26A     -0.551002    27A     -0.536824
      28A     -0.527898    29A     -0.510177    30A     -0.497304
      31A     -0.492230    32A     -0.479934    33A     -0.461723
      34A     -0.460146    35A     -0.443621    36A     -0.411923

  @DF-RHF Final Energy:  -387.25985290295034

   => Energetics <=

    Nuclear Repulsion Energy =            440.1659196672451344
    One-Electron Energy =               -1396.9118636442817660
    Two-Electron Energy =                 569.4860910740862892
    DFT Exchange-Correlation Energy =       0.0000000000000000
    Empirical Dispersion Energy =           0.0000000000000000
    PCM Polarization Energy =               0.0000000000000000
    EFP Energy =                            0.0000000000000000
    Total Energy =                       -387.2598529029503425
    Molecular point group: c1
  Basis Set: CC-PVTZ
  Basis Set:

  -Total Gradient:
     Atom            X                  Y                   Z
    ------   -----------------  -----------------  -----------------
       1        0.000015899696    -0.000005333579     0.000015117883
       2       -0.000044274313     0.000045039609     0.000064991603
       3        0.000013815196    -0.000003127810    -0.000025897026
       4       -0.000006616870    -0.000032378074    -0.000035230307
       5       -0.000003958256    -0.000037720176     0.000056728620
       6        0.000005945377    -0.000015351674    -0.000027943599
       7        0.000004647220     0.000024967740    -0.000012029483
       8        0.000006083044     0.000037944942    -0.000037884983
       9       -0.000014994041     0.000021812045    -0.000005120219
      10        0.000002138132    -0.000015087332     0.000014350847
      11       -0.000023116508    -0.000014996388     0.000025136548
      12       -0.000004340308    -0.000011321412    -0.000030778847
      13        0.000008240146    -0.000012312379     0.000005299701
      14       -0.000611832501     0.003504679695     0.000722161246
      15        0.000007108145     0.000021257482    -0.000014084063
      16       -0.000000679967     0.000011649944     0.000038296441
      17        0.001071493243    -0.001540611574    -0.002496878993
      18        0.000244005629    -0.002619573475    -0.000015695700
      19       -0.000007575717    -0.000021516135    -0.000004254203
      20       -0.000698376763     0.000621972009     0.001710247972
      21        0.000008933702    -0.000033351761     0.000012500887
      22       -0.000006296261     0.000001649713     0.000022819561
      23       -0.000007467717     0.000005806626    -0.000036376898
      24       -0.000023379412     0.000069882087     0.000026747694
      25        0.000064599106    -0.000003980123     0.000027775317

  **** Optimization is complete! (in 7 steps) ****
    Final optimized geometry and variables:
    Molecular point group: c1

    Geometry (in Angstrom), charge = 0, multiplicity = 1:

    H           -3.206224455281    -0.389873916651     1.508200588622
    C           -3.284218163546    -0.359455121020     0.412781438557
    C           -2.670855041293     0.853470088309    -0.232772265209
    O           -3.828599939199    -1.234647341729    -0.166028524619
    C           -1.227745192021     1.098914258123     0.217429308514
    H           -2.740675944818     0.744303039143    -1.307317619295
    H           -3.285092782508     1.703104802978     0.057373594790
    C           -0.245640418672     0.034278628739    -0.266510750452
    H           -0.915008281315     2.070810389553    -0.148607085792
    H           -1.194769143942     1.160284571254     1.302522275431
    C            1.189874819627     0.298788957505     0.179833503418
    H           -0.283346860646    -0.016173147218    -1.351543830681
    H           -0.557631398614    -0.943829644103     0.090306103574
    C            2.170713503053    -0.756384087260    -0.324604962956
    H            1.490254772737     1.282296156842    -0.167162519945
    H            1.227141071275     0.333230543397     1.266748812965
    C            3.601725002272    -0.629237576391     0.203923836932
    H            2.187036313729    -0.756380332890    -1.412119041016
    H            1.797621493335    -1.737882659215    -0.043296347332
    C            4.256976765404     0.732093022878    -0.017226540422
    H            4.208571944000    -1.397807437134    -0.263835119788
    H            3.605168538528    -0.848741843555     1.268631759512
    H            4.241273922165     1.011774640642    -1.066260949499
    H            3.758788081822     1.515084701700     0.541203307506
    H            5.292773553016     0.713488893838     0.302011414493

  Mulliken Charges: (a.u.)
   Center  Symbol    Alpha    Beta     Spin     Total
       1     H     0.46424  0.46424  0.00000  0.07152
       2     C     2.90479  2.90479  0.00000  0.19041
       3     C     3.08912  3.08912  0.00000 -0.17825
       4     O     4.16625  4.16625  0.00000 -0.33249
       5     C     3.11600  3.11600  0.00000 -0.23200
       6     H     0.44291  0.44291  0.00000  0.11418
       7     H     0.44049  0.44049  0.00000  0.11902
       8     C     3.09037  3.09037  0.00000 -0.18073
       9     H     0.44313  0.44313  0.00000  0.11375
      10     H     0.44993  0.44993  0.00000  0.10014
      11     C     3.09358  3.09358  0.00000 -0.18717
      12     H     0.44982  0.44982  0.00000  0.10036
      13     H     0.44765  0.44765  0.00000  0.10471
      14     C     3.09635  3.09635  0.00000 -0.19270
      15     H     0.45042  0.45042  0.00000  0.09916
      16     H     0.45365  0.45365  0.00000  0.09270
      17     C     3.09025  3.09025  0.00000 -0.18051
      18     H     0.45185  0.45185  0.00000  0.09630
      19     H     0.44907  0.44907  0.00000  0.10187
      20     C     3.15542  3.15542  0.00000 -0.31085
      21     H     0.44782  0.44782  0.00000  0.10435
      22     H     0.45428  0.45428  0.00000  0.09145
      23     H     0.45419  0.45419  0.00000  0.09161
      24     H     0.45319  0.45319  0.00000  0.09363
      25     H     0.44523  0.44523  0.00000  0.10953

   Total alpha = 36.00000, Total beta = 36.00000, Total charge = -0.00000

*** Psi4 exiting successfully. Buy a developer a beer!
