                              Psi4 1.0.54 Driver

  ==> Input File <==

--------------------------------------------------------------------------
set {
	reference rhf
	basis cc-pvtz
}

set_num_threads( 4 )
memory 2 gb

molecule MOL {
0 1

H	 1.712797	 -1.526643	 -0.251582
O	 1.675515	 -0.612943	 -0.465627
C	 1.135873	 0.113391	 0.608264
C	 0.027642	 1.012027	 0.090274
H	 1.902972	 0.727968	 1.072615
H	 0.756163	 -0.561896	 1.370018
C	 -1.138737	 0.285728	 -0.581921
H	 0.464661	 1.708096	 -0.618252
H	 -0.340737	 1.603071	 0.925246
C	 -1.933983	 -0.631436	 0.343653
H	 -0.763151	 -0.285569	 -1.422081
H	 -1.808359	 1.035291	 -0.992333
H	 -2.789188	 -1.049673	 -0.174718
H	 -1.335629	 -1.461368	 0.700418
H	 -2.305435	 -0.092167	 1.209725

	symmetry c1
}
set optking {
	frozen_dihedral = ("
		1 2 3 4
	")
}

ee,wfn = optimize('scf', return_wfn=True)
oeprop( wfn, 'DIPOLE', 'QUADRUPOLE', 'MULLIKEN_CHARGES')
f=open( 'psi4out.xyz', 'w' )
f.write( "15  " )
f.write( str(ee) + "\n" )
f.write( MOL.save_string_xyz() )
f.close()
--------------------------------------------------------------------------

    Molecular point group: c1
  Charge       = 0
  Multiplicity = 1
  Basis Set: CC-PVTZ
  Basis Set:
  @DF-RHF Final Energy:  -232.23578781563825
    Total Energy =                       -232.2357878156382185
    Molecular point group: c1
  Basis Set: CC-PVTZ
  Basis Set:
  Basis Set: CC-PVTZ
  Basis Set:
  @DF-RHF Final Energy:  -232.23599103184466
    Total Energy =                       -232.2359910318444349
  Basis Set: CC-PVTZ
  Basis Set:
  Basis Set: CC-PVTZ
  Basis Set:
  @DF-RHF Final Energy:  -232.23607997836760
    Total Energy =                       -232.2360799783676839
  Basis Set: CC-PVTZ
  Basis Set:
  Basis Set: CC-PVTZ
  Basis Set:
  @DF-RHF Final Energy:  -232.23607625165931
    Total Energy =                       -232.2360762516591990
  Basis Set: CC-PVTZ
  Basis Set:
  Charge       = 0
  Multiplicity = 1
  Basis Set: CC-PVTZ
  Basis Set:

    Orbital Energies (a.u.)
    -----------------------

    Doubly Occupied:

       1A    -20.545562     2A    -11.265783     3A    -11.211020
       4A    -11.210364     5A    -11.207669     6A     -1.362864
       7A     -1.067153     8A     -0.973851     9A     -0.872890
      10A     -0.778431    11A     -0.707571    12A     -0.647584
      13A     -0.609904    14A     -0.582421    15A     -0.564151
      16A     -0.538099    17A     -0.508107    18A     -0.483816
      19A     -0.470763    20A     -0.455895    21A     -0.429828

  @DF-RHF Final Energy:  -232.23608344988054

   => Energetics <=

    Nuclear Repulsion Energy =            191.4838561683215516
    One-Electron Energy =                -694.4524321761796273
    Two-Electron Energy =                 270.7324925579777073
    DFT Exchange-Correlation Energy =       0.0000000000000000
    Empirical Dispersion Energy =           0.0000000000000000
    PCM Polarization Energy =               0.0000000000000000
    EFP Energy =                            0.0000000000000000
    Total Energy =                       -232.2360834498803683
    Molecular point group: c1
  Basis Set: CC-PVTZ
  Basis Set:

  -Total Gradient:
     Atom            X                  Y                   Z
    ------   -----------------  -----------------  -----------------
       1       -0.000773115359    -0.000143200659    -0.000387666550
       2        0.000829225754    -0.000078897777     0.000412195228
       3        0.000334848916     0.000616156187    -0.000152590730
       4       -0.000323658038    -0.000432106808     0.000100613397
       5       -0.000042383857     0.000037955125     0.000030741724
       6       -0.000021714194    -0.000001936715    -0.000007105242
       7        0.000021488997     0.000012854762     0.000024041952
       8        0.000009830662    -0.000006836888     0.000004091891
       9       -0.000014209061     0.000015924509     0.000003820428
      10       -0.000023993202     0.000005124489     0.000020699378
      11        0.000009863388    -0.000014856429    -0.000023254268
      12       -0.000009223553     0.000004238757    -0.000006259746
      13       -0.000009248116    -0.000004474614     0.000007400855
      14        0.000001953585     0.000006220846    -0.000005806832
      15        0.000010334078    -0.000016164786    -0.000020921484

  **** Optimization is complete! (in 5 steps) ****
    Final optimized geometry and variables:
    Molecular point group: c1

    Geometry (in Angstrom), charge = 0, multiplicity = 1:

    H            1.802101953139    -1.497287769815    -0.293980629945
    O            1.745280314752    -0.578968228572    -0.473348507037
    C            1.140022583812     0.102087727618     0.599433985755
    C            0.022308296518     1.000480847244     0.096105083075
    H            1.889405504788     0.708109443433     1.098110308833
    H            0.761824945044    -0.602854555161     1.332298543435
    C           -1.143625093330     0.275045475920    -0.576114892330
    H            0.454416659383     1.702558383536    -0.609754999757
    H           -0.343836912176     1.587085045133     0.935752428866
    C           -1.963697830541    -0.612515091895     0.357317886863
    H           -0.763354849743    -0.315962225657    -1.401275310853
    H           -1.800502214683     1.021086544046    -1.012100599156
    H           -2.809282800854    -1.042817886447    -0.166806928241
    H           -1.379974275602    -1.434891449837     0.755206786319
    H           -2.350976069549    -0.046281824448     1.198448632936

  Mulliken Charges: (a.u.)
   Center  Symbol    Alpha    Beta     Spin     Total
       1     H     0.39123  0.39123  0.00000  0.21753
       2     O     4.20695  4.20695  0.00000 -0.41389
       3     C     2.98012  2.98012  0.00000  0.03976
       4     C     3.08820  3.08820  0.00000 -0.17640
       5     H     0.45641  0.45641  0.00000  0.08718
       6     H     0.47017  0.47017  0.00000  0.05965
       7     C     3.09378  3.09378  0.00000 -0.18756
       8     H     0.44823  0.44823  0.00000  0.10355
       9     H     0.45517  0.45517  0.00000  0.08965
      10     C     3.15335  3.15335  0.00000 -0.30671
      11     H     0.44778  0.44778  0.00000  0.10444
      12     H     0.44920  0.44920  0.00000  0.10160
      13     H     0.44589  0.44589  0.00000  0.10823
      14     H     0.45832  0.45832  0.00000  0.08337
      15     H     0.45520  0.45520  0.00000  0.08960

   Total alpha = 21.00000, Total beta = 21.00000, Total charge =  0.00000

*** Psi4 exiting successfully. Buy a developer a beer!
