  ==> Input File <==

--------------------------------------------------------------------------
set {
	reference rhf
	basis 6-31G*
}

set_num_threads( 4 )
memory 2 gb

molecule MOL {
0 1

H	 -2.165586	 0.123746	 1.969288
O	 -1.754776	 0.976734	 1.975052
C	 -0.898248	 1.095535	 0.870862
C	 0.375235	 0.293466	 1.072338
H	 -1.384555	 0.784247	 -0.049444
H	 -0.653016	 2.143924	 0.774991
O	 1.171513	 0.459272	 -0.058250
H	 0.134305	 -0.761049	 1.220429
H	 0.887121	 0.639666	 1.968275
C	 2.397842	 -0.198080	 -0.002151
H	 2.508049	 -0.905315	 -0.822092
H	 3.173794	 0.550865	 -0.078850
H	 2.517602	 -0.735921	 0.936026

	symmetry c1
}
set optking {
	frozen_dihedral = ("
		4 7 10 13
	")
}

ee = optimize('scf')
oeprop('DIPOLE', 'QUADRUPOLE', 'MULLIKEN_CHARGES')
f=open( 'psi4out.xyz', 'w' )
f.write( "13  " )
f.write( str(ee) + "\n" )
f.write( MOL.save_string_xyz() )
f.close()
--------------------------------------------------------------------------

    Molecular point group: c1
  Charge       = 0
  Multiplicity = 1
  Basis Set: 6-31G*
  Basis Set:
  @DF-RHF Final Energy:  -267.94621421610861
    Total Energy =                       -267.9462142161086149
    Molecular point group: c1
  Basis Set: 6-31G*
  Basis Set:
  Basis Set: 6-31G*
  Basis Set:
  @DF-RHF Final Energy:  -267.94662443566347
    Total Energy =                       -267.9466244356633524
  Basis Set: 6-31G*
  Basis Set:
  Basis Set: 6-31G*
  Basis Set:
  @DF-RHF Final Energy:  -267.94675009315336
    Total Energy =                       -267.9467500931533550
  Basis Set: 6-31G*
  Basis Set:
  Charge       = 0
  Multiplicity = 1
  Basis Set: 6-31G*
  Basis Set:

    Orbital Energies (a.u.)
    -----------------------

    Doubly Occupied:

       1A    -20.559774     2A    -20.558383     3A    -11.271305
       4A    -11.269796     5A    -11.268330     6A     -1.383914
       7A     -1.364197     8A     -1.018186     9A     -0.913631
      10A     -0.841420    11A     -0.708533    12A     -0.670999
      13A     -0.657934    14A     -0.636076    15A     -0.596310
      16A     -0.568678    17A     -0.548723    18A     -0.489282
      19A     -0.481366    20A     -0.437758    21A     -0.416180

  @DF-RHF Final Energy:  -267.94675088682902

   => Energetics <=

    Nuclear Repulsion Energy =            189.8881055812239254
    One-Electron Energy =                -742.3481607771631161
    Two-Electron Energy =                 284.5133043091101399
    DFT Exchange-Correlation Energy =       0.0000000000000000
    Empirical Dispersion Energy =           0.0000000000000000
    PCM Polarization Energy =               0.0000000000000000
    EFP Energy =                            0.0000000000000000
    Total Energy =                       -267.9467508868290224
    Molecular point group: c1
  Basis Set: 6-31G*
  Basis Set:

  -Total Gradient:
     Atom            X                  Y                   Z
    ------   -----------------  -----------------  -----------------
       1        0.000002779735     0.000005898525    -0.000002750682
       2       -0.000063144513     0.000037774330     0.000057336979
       3       -0.000004207919    -0.000045162550     0.000028076018
       4       -0.000043584202    -0.000011651303    -0.000030595605
       5        0.000030838907     0.000006880454    -0.000003057421
       6       -0.000014951727     0.000000949171     0.000000621856
       7        0.000136205883    -0.000120384282    -0.000001206649
       8       -0.000004618220     0.000012436108     0.000016491542
       9        0.000008095065     0.000001695670    -0.000040979785
      10        0.000025203863     0.000150345635    -0.000022854907
      11       -0.000027858297    -0.000008292213     0.000000277706
      12        0.000025511216    -0.000005930252    -0.000001133126
      13       -0.000070269785    -0.000024559293    -0.000000225928

  **** Optimization is complete! (in 4 steps) ****
    Final optimized geometry and variables:
    Molecular point group: c1

    Geometry (in Angstrom), charge = 0, multiplicity = 1:

    H           -2.424471489836    -0.380504466718     1.166772466858
    O           -2.007896675044     0.469637591565     1.174691660647
    C           -1.139124484881     0.579937203605     0.078753672177
    C            0.129134102020    -0.225710389575     0.297312634427
    H           -1.616747738481     0.265660867248    -0.844954519238
    H           -0.888810779847     1.626819450147    -0.020176992900
    O            0.935156769017    -0.063382648760    -0.828488246770
    H           -0.119405583467    -1.277567256760     0.447445963121
    H            0.630180120697     0.124504799247     1.196912696384
    C            2.177522958780    -0.705263242651    -0.799541535745
    H            2.244436755998    -1.405541121084    -1.625008395382
    H            2.969026800758     0.029121391004    -0.900014365043
    H            2.329342326900    -1.250323800007     0.126770739523

  Mulliken Charges: (a.u.)
   Center  Symbol    Alpha    Beta     Spin     Total
       1     H     0.28132  0.28132  0.00000  0.43737
       2     O     4.37096  4.37096  0.00000 -0.74192
       3     C     3.00495  3.00495  0.00000 -0.00991
       4     C     2.99624  2.99624  0.00000  0.00753
       5     H     0.42234  0.42234  0.00000  0.15532
       6     H     0.40851  0.40851  0.00000  0.18299
       7     O     4.31257  4.31257  0.00000 -0.62514
       8     H     0.43745  0.43745  0.00000  0.12510
       9     H     0.42310  0.42310  0.00000  0.15380
      10     C     3.07659  3.07659  0.00000 -0.15319
      11     H     0.41962  0.41962  0.00000  0.16075
      12     H     0.41850  0.41850  0.00000  0.16300
      13     H     0.42785  0.42785  0.00000  0.14430

   Total alpha = 21.00000, Total beta = 21.00000, Total charge =  0.00000
