  ==> Input File <==

--------------------------------------------------------------------------
set {
	reference rhf
	basis cc-pvtz
}

set_num_threads( 4 )
memory 2 gb

molecule MOL {
0 1

O	 0.633000	 1.378000	 -0.000000
C	 0.493000	 0.197000	 -0.000000
C	 1.615000	 -0.814000	 -0.000000
O	 -0.691000	 -0.398000	 -0.000000
C	 2.998000	 -0.172000	 0.000000
H	 1.477000	 -1.453000	 -0.867000
H	 1.476000	 -1.454000	 0.866000
H	 3.138000	 0.452000	 -0.874000
H	 3.765000	 -0.939000	 0.000000
H	 3.137000	 0.451000	 0.875000
C	 -1.846000	 0.435000	 -0.000000
C	 -3.059000	 -0.471000	 0.000000
H	 -1.822000	 1.071000	 -0.874000
H	 -1.822000	 1.071000	 0.874000
H	 -3.066000	 -1.106000	 -0.879000
H	 -3.966000	 0.125000	 0.000000
H	 -3.065000	 -1.105000	 0.879000

	symmetry c1
}
ee = optimize('scf')
oeprop('DIPOLE', 'QUADRUPOLE', 'MULLIKEN_CHARGES')
f=open( 'psi4out.xyz', 'w' )
f.write( "17  " )
f.write( str(ee) + "\n" )
f.write( MOL.save_string_xyz() )
f.close()
--------------------------------------------------------------------------

    Molecular point group: c1
  Charge       = 0
  Multiplicity = 1
  Basis Set: CC-PVTZ
  Basis Set:
  @DF-RHF Final Energy:  -345.04052207711408
    Total Energy =                       -345.0405220771139625
    Molecular point group: c1
  Basis Set: CC-PVTZ
  Basis Set:
  Basis Set: CC-PVTZ
  Basis Set:
  @DF-RHF Final Energy:  -345.04064104104719
    Total Energy =                       -345.0406410410472517
  Basis Set: CC-PVTZ
  Basis Set:
  Basis Set: CC-PVTZ
  Basis Set:
  @DF-RHF Final Energy:  -345.04064412090435
    Total Energy =                       -345.0406441209045170
  Basis Set: CC-PVTZ
  Basis Set:
  Basis Set: CC-PVTZ
  Basis Set:
  @DF-RHF Final Energy:  -345.04062923379161
    Total Energy =                       -345.0406292337917762
  Basis Set: CC-PVTZ
  Basis Set:
  Basis Set: CC-PVTZ
  Basis Set:
  @DF-RHF Final Energy:  -345.04064470784238
    Total Energy =                       -345.0406447078416932
  Basis Set: CC-PVTZ
  Basis Set:
  Charge       = 0
  Multiplicity = 1
  Basis Set: CC-PVTZ
  Basis Set:

    Orbital Energies (a.u.)
    -----------------------

    Doubly Occupied:

       1A    -20.593459     2A    -20.532888     3A    -11.363480
       4A    -11.282582     5A    -11.235874     6A    -11.220349
       7A    -11.213820     8A     -1.470496     9A     -1.364875
      10A     -1.070896    11A     -1.032555    12A     -0.911860
      13A     -0.847630    14A     -0.774847    15A     -0.698064
      16A     -0.692590    17A     -0.667828    18A     -0.630432
      19A     -0.584331    20A     -0.573821    21A     -0.558631
      22A     -0.524732    23A     -0.519956    24A     -0.515183
      25A     -0.505748    26A     -0.493953    27A     -0.456048
      28A     -0.439328

  @DF-RHF Final Energy:  -345.04064472422789

   => Energetics <=

    Nuclear Repulsion Energy =            315.2201973426310246
    One-Electron Energy =               -1094.9691727972644912
    Two-Electron Energy =                 434.7083307304054074
    DFT Exchange-Correlation Energy =       0.0000000000000000
    Empirical Dispersion Energy =           0.0000000000000000
    PCM Polarization Energy =               0.0000000000000000
    EFP Energy =                            0.0000000000000000
    Total Energy =                       -345.0406447242280024
    Molecular point group: c1
  Basis Set: CC-PVTZ
  Basis Set:

  -Total Gradient:
     Atom            X                  Y                   Z
    ------   -----------------  -----------------  -----------------
       1       -0.000000841303     0.000005344648     0.000006778601
       2       -0.000019342330    -0.000016668297    -0.000035786435
       3        0.000012483200     0.000001315028     0.000011345805
       4        0.000022848130     0.000000166888    -0.000002225478
       5       -0.000010699945    -0.000002583421     0.000002312788
       6       -0.000004605790     0.000001271788    -0.000003985308
       7        0.000000754799    -0.000002182489     0.000003083486
       8        0.000000219911     0.000002466037    -0.000003024926
       9        0.000002790131    -0.000003269020     0.000000092202
      10        0.000002821225     0.000004230835     0.000004124743
      11       -0.000010298668     0.000004512108     0.000048719216
      12        0.000008812063     0.000002919652    -0.000011449403
      13        0.000005461210     0.000001104006    -0.000011321505
      14       -0.000006964382    -0.000000522793    -0.000007200618
      15       -0.000002039366    -0.000003278981    -0.000001794895
      16       -0.000004562966     0.000003015404    -0.000001228955
      17        0.000003164081     0.000002158609     0.000001560681

  **** Optimization is complete! (in 6 steps) ****
    Final optimized geometry and variables:
    Molecular point group: c1

    Geometry (in Angstrom), charge = 0, multiplicity = 1:

    O            0.623971448981     1.347240985755    -0.000777335877
    C            0.485107266409     0.171416377400    -0.000133820401
    C            1.606966437097    -0.836201022370     0.000173619579
    O           -0.695553981531    -0.422405620620     0.000602484960
    C            2.988787934884    -0.202529450890    -0.000114799130
    H            1.465109811083    -1.474645327775    -0.864820775707
    H            1.465208875630    -1.474076880858     0.865596132986
    H            3.131767052115     0.419673259529    -0.873406961505
    H            3.750875784672    -0.972314816781     0.000098418731
    H            3.131883626461     0.420264439087     0.872742024243
    C           -1.852369715629     0.402254327685     0.000717721063
    C           -3.063338244813    -0.501096873771    -0.000436519980
    H           -1.831731781120     1.039441525981    -0.872158253878
    H           -1.832492691341     1.038301129516     0.874429965951
    H           -3.071944215667    -1.133732375227    -0.879112936202
    H           -3.966302133165     0.097975791250    -0.000483161745
    H           -3.072764140747    -1.134833508666     0.877435356535

  Mulliken Charges: (a.u.)
   Center  Symbol    Alpha    Beta     Spin     Total
       1     O     4.19684  4.19684  0.00000 -0.39369
       2     C     2.80913  2.80913  0.00000  0.38174
       3     C     3.09349  3.09349  0.00000 -0.18698
       4     O     4.15120  4.15120  0.00000 -0.30239
       5     C     3.13969  3.13969  0.00000 -0.27938
       6     H     0.44166  0.44166  0.00000  0.11669
       7     H     0.44165  0.44165  0.00000  0.11670
       8     H     0.44843  0.44843  0.00000  0.10314
       9     H     0.45057  0.45057  0.00000  0.09886
      10     H     0.44844  0.44844  0.00000  0.10313
      11     C     2.98047  2.98047  0.00000  0.03905
      12     C     3.13307  3.13307  0.00000 -0.26615
      13     H     0.45400  0.45400  0.00000  0.09199
      14     H     0.45403  0.45403  0.00000  0.09194
      15     H     0.45143  0.45143  0.00000  0.09715
      16     H     0.45446  0.45446  0.00000  0.09107
      17     H     0.45143  0.45143  0.00000  0.09714

   Total alpha = 28.00000, Total beta = 28.00000, Total charge = -0.00000
