  ==> Input File <==

--------------------------------------------------------------------------
set {
	reference rhf
	basis 6-31G*
}

set_num_threads( 4 )
memory 2 gb

molecule MOL {
0 1

H	 -0.936867	 -1.098537	 -0.677771
N	 -1.172117	 -0.314371	 -0.100254
C	 -0.024542	 0.565565	 0.069209
H	 -1.920482	 0.169716	 -0.559260
C	 1.271298	 -0.229563	 -0.014192
H	 -0.049409	 1.297310	 -0.731596
H	 -0.046881	 1.125219	 1.006750
H	 1.332152	 -0.753033	 -0.961461
H	 2.134169	 0.422483	 0.080702
H	 1.326077	 -0.968298	 0.781395

	symmetry c1
}
set optking {
	frozen_dihedral = ("
		1 2 3 6
	")
}

ee = optimize('scf')
oeprop('DIPOLE', 'QUADRUPOLE', 'MULLIKEN_CHARGES')
f=open( 'psi4out.xyz', 'w' )
f.write( "10  " )
f.write( str(ee) + "\n" )
f.write( MOL.save_string_xyz() )
f.close()
--------------------------------------------------------------------------

    Molecular point group: c1
  Charge       = 0
  Multiplicity = 1
  Basis Set: 6-31G*
  Basis Set:
  @DF-RHF Final Energy:  -134.24327514617181
    Total Energy =                       -134.2432751461718681
    Molecular point group: c1
  Basis Set: 6-31G*
  Basis Set:
  Basis Set: 6-31G*
  Basis Set:
  @DF-RHF Final Energy:  -134.24523500802599
    Total Energy =                       -134.2452350080259293
  Basis Set: 6-31G*
  Basis Set:
  Basis Set: 6-31G*
  Basis Set:
  @DF-RHF Final Energy:  -134.24547779663840
    Total Energy =                       -134.2454777966384540
  Basis Set: 6-31G*
  Basis Set:
  Basis Set: 6-31G*
  Basis Set:
  @DF-RHF Final Energy:  -134.24548491552099
    Total Energy =                       -134.2454849155209331
  Basis Set: 6-31G*
  Basis Set:
  Charge       = 0
  Multiplicity = 1
  Basis Set: 6-31G*
  Basis Set:

    Orbital Energies (a.u.)
    -----------------------

    Doubly Occupied:

       1A    -15.529885     2A    -11.242043     3A    -11.211929
       4A     -1.173911     5A     -0.989031     6A     -0.827908
       7A     -0.659314     8A     -0.626922     9A     -0.590410
      10A     -0.521362    11A     -0.501921    12A     -0.496035
      13A     -0.376034

  @DF-RHF Final Energy:  -134.24548566825820

   => Energetics <=

    Nuclear Repulsion Energy =             83.4050311720948940
    One-Electron Energy =                -345.8076229128243426
    Two-Electron Energy =                 128.1571060724712652
    DFT Exchange-Correlation Energy =       0.0000000000000000
    Empirical Dispersion Energy =           0.0000000000000000
    PCM Polarization Energy =               0.0000000000000000
    EFP Energy =                            0.0000000000000000
    Total Energy =                       -134.2454856682581976
    Molecular point group: c1
  Basis Set: 6-31G*
  Basis Set:

  -Total Gradient:
     Atom            X                  Y                   Z
    ------   -----------------  -----------------  -----------------
       1        0.001159465802    -0.001811865643     0.002901583445
       2       -0.001997153662     0.002865184188    -0.003050463744
       3        0.002623887884    -0.003150183211    -0.001898718382
       4        0.000002431861    -0.000004448642    -0.000004677698
       5       -0.000047526484     0.000036020004     0.000055401535
       6       -0.001770411960     0.002040998335     0.001979946947
       7        0.000025071901    -0.000002363978     0.000026399872
       8       -0.000020327577     0.000026211649     0.000017712879
       9        0.000033502636    -0.000003637140    -0.000006489279
      10       -0.000008940402     0.000004084437    -0.000020695577

  **** Optimization is complete! (in 5 steps) ****
    Final optimized geometry and variables:
    Molecular point group: c1

    Geometry (in Angstrom), charge = 0, multiplicity = 1:

    H           -0.990226541996    -1.102163927703    -0.620792040989
    N           -1.184474163727    -0.311593620076    -0.038968896437
    C           -0.029122126738     0.569991726730     0.064298027144
    H           -1.986665971956     0.158794707478    -0.406191044634
    C            1.268304402232    -0.224623508759     0.035291303340
    H           -0.016094641105     1.337701036030    -0.710648793513
    H           -0.094546934399     1.103662685318     1.008382611336
    H            1.398731624009    -0.727059829225    -0.919838522177
    H            2.124107256441     0.424439400440     0.188726963966
    H            1.267463061436    -0.978223377785     0.816015225883

  Mulliken Charges: (a.u.)
   Center  Symbol    Alpha    Beta     Spin     Total
       1     H     0.33358  0.33358  0.00000  0.33285
       2     N     3.92669  3.92669  0.00000 -0.85337
       3     C     3.05215  3.05215  0.00000 -0.10429
       4     H     0.33162  0.33162  0.00000  0.33676
       5     C     3.24971  3.24971  0.00000 -0.49942
       6     H     0.43296  0.43296  0.00000  0.13408
       7     H     0.41971  0.41971  0.00000  0.16058
       8     H     0.42404  0.42404  0.00000  0.15191
       9     H     0.41755  0.41755  0.00000  0.16490
      10     H     0.41200  0.41200  0.00000  0.17600

   Total alpha = 13.00000, Total beta = 13.00000, Total charge =  0.00000
