  ==> Input File <==

--------------------------------------------------------------------------
set {
	reference rhf
	basis 6-31G*
}

set_num_threads( 4 )
memory 2 gb

molecule MOL {
0 1

H	 3.225059	 1.343690	 -0.438066
O	 2.296530	 1.227496	 -0.261751
C	 2.077727	 -0.067559	 -0.035091
C	 0.624473	 -0.343591	 0.253101
O	 2.952372	 -0.870679	 -0.066864
C	 -0.265902	 0.883932	 0.072916
H	 0.324016	 -1.163849	 -0.390541
H	 0.565024	 -0.726111	 1.268924
C	 -1.728698	 0.646073	 0.462102
H	 -0.209144	 1.219470	 -0.958188
H	 0.135059	 1.692851	 0.673903
C	 -2.482460	 -0.343073	 -0.431425
H	 -2.245265	 1.602650	 0.432430
H	 -1.779332	 0.308348	 1.496285
C	 -3.960546	 -0.461025	 -0.060175
H	 -2.395034	 -0.026811	 -1.468912
H	 -2.024850	 -1.327147	 -0.371646
H	 -4.472726	 -1.168004	 -0.705284
H	 -4.465146	 0.496508	 -0.151489
H	 -4.081218	 -0.800940	 0.964585

	symmetry c1
}
set optking {
	frozen_dihedral = ("
		5 3 4 7
	")
}

ee = optimize('scf')
oeprop('DIPOLE', 'QUADRUPOLE', 'MULLIKEN_CHARGES')
f=open( 'psi4out.xyz', 'w' )
f.write( "20  " )
f.write( str(ee) + "\n" )
f.write( MOL.save_string_xyz() )
f.close()
--------------------------------------------------------------------------

    Molecular point group: c1
  Charge       = 0
  Multiplicity = 1
  Basis Set: 6-31G*
  Basis Set:
  @DF-RHF Final Energy:  -383.94442276359553
    Total Energy =                       -383.9444227635955258
    Molecular point group: c1
  Basis Set: 6-31G*
  Basis Set:
  Basis Set: 6-31G*
  Basis Set:
  @DF-RHF Final Energy:  -383.94533391861836
    Total Energy =                       -383.9453339186183030
  Basis Set: 6-31G*
  Basis Set:
  Basis Set: 6-31G*
  Basis Set:
  @DF-RHF Final Energy:  -383.94552541442891
    Total Energy =                       -383.9455254144289142
  Basis Set: 6-31G*
  Basis Set:
  Basis Set: 6-31G*
  Basis Set:
  @DF-RHF Final Energy:  -383.94585929557041
    Total Energy =                       -383.9458592955701874
  Basis Set: 6-31G*
  Basis Set:
  @DF-RHF Final Energy:  -383.94588124370500
    Total Energy =                       -383.9458812437046618
  Basis Set: 6-31G*
  Basis Set:
  @DF-RHF Final Energy:  -383.94588304152433
    Total Energy =                       -383.9458830415243256
  Basis Set: 6-31G*
  Basis Set:
  Basis Set: 6-31G*
  Basis Set:
  @DF-RHF Final Energy:  -383.94588609240924
    Total Energy =                       -383.9458860924096939
  Basis Set: 6-31G*
  Basis Set:
  Basis Set: 6-31G*
  Basis Set:
  @DF-RHF Final Energy:  -383.94588956448888
    Total Energy =                       -383.9458895644888798
  Basis Set: 6-31G*
  Basis Set:
  Charge       = 0
  Multiplicity = 1
  Basis Set: 6-31G*
  Basis Set:

    Orbital Energies (a.u.)
    -----------------------

    Doubly Occupied:

       1A    -20.615355     2A    -20.546215     3A    -11.381505
       4A    -11.240479     5A    -11.226642     6A    -11.222633
       7A    -11.221492     8A    -11.213285     9A     -1.475556
      10A     -1.363723    11A     -1.097968    12A     -1.041299
      13A     -0.959354    14A     -0.861827    15A     -0.827190
      16A     -0.791672    17A     -0.699044    18A     -0.680113
      19A     -0.662192    20A     -0.634058    21A     -0.603317
      22A     -0.591022    23A     -0.576587    24A     -0.551592
      25A     -0.545547    26A     -0.520511    27A     -0.502090
      28A     -0.482736    29A     -0.474036    30A     -0.468293
      31A     -0.456476    32A     -0.433309

  @DF-RHF Final Energy:  -383.94588963701000

   => Energetics <=

    Nuclear Repulsion Energy =            376.3745071833855604
    One-Electron Energy =               -1268.7065616655095255
    Two-Electron Energy =                 508.3861648451141377
    DFT Exchange-Correlation Energy =       0.0000000000000000
    Empirical Dispersion Energy =           0.0000000000000000
    PCM Polarization Energy =               0.0000000000000000
    EFP Energy =                            0.0000000000000000
    Total Energy =                       -383.9458896370098842
    Molecular point group: c1
  Basis Set: 6-31G*
  Basis Set:

  -Total Gradient:
     Atom            X                  Y                   Z
    ------   -----------------  -----------------  -----------------
       1        0.000018615826     0.000018998666    -0.000008142140
       2       -0.000008432943    -0.000015531514    -0.000009977207
       3       -0.000111945823    -0.000043240049    -0.000340369419
       4        0.000069754924    -0.000153412186     0.000286169728
       5        0.000033410540     0.000062745882     0.000229391408
       6        0.000033097762    -0.000001200000     0.000030366263
       7       -0.000046720179     0.000143831156    -0.000157837494
       8       -0.000002993093    -0.000010097763    -0.000004404489
       9        0.000014336412    -0.000029246077     0.000005742561
      10        0.000004183239    -0.000017400315    -0.000013601642
      11       -0.000013457533     0.000021507397     0.000007276423
      12       -0.000016135129     0.000022958924    -0.000028472132
      13        0.000025167189     0.000013538286     0.000002297976
      14        0.000002365031    -0.000005679286    -0.000002832820
      15        0.000006749078    -0.000013139150     0.000013155687
      16       -0.000006319355     0.000004686397    -0.000015673441
      17       -0.000005365948     0.000005406602     0.000003531725
      18        0.000004732905    -0.000006847290     0.000005265868
      19        0.000003272500    -0.000003081160    -0.000007914992
      20       -0.000004315411     0.000005201487     0.000006028138

  **** Optimization is complete! (in 9 steps) ****
    Final optimized geometry and variables:
    Molecular point group: c1

    Geometry (in Angstrom), charge = 0, multiplicity = 1:

    H            3.369415611979     1.133328462894    -0.455579950469
    O            2.431936452003     1.105139517833    -0.288931708648
    C            2.104794675115    -0.156557430465    -0.025444077643
    C            0.638991474448    -0.370696382436     0.274728474078
    O            2.913795428205    -1.027798153378    -0.021184933144
    C           -0.277571503332     0.841300154285     0.100187202462
    H            0.331773917219    -1.199983830101    -0.351667396798
    H            0.595613479078    -0.738503996487     1.296554154428
    C           -1.734320462087     0.562127127802     0.487473736012
    H           -0.234364986748     1.185699526327    -0.929119942699
    H            0.096911538119     1.657237157939     0.708593839265
    C           -2.468642309454    -0.425906486038    -0.423395645855
    H           -2.272419542969     1.507219140135     0.477747285242
    H           -1.773751726126     0.203481682813     1.514982769925
    C           -3.941736551286    -0.585573320700    -0.047924185083
    H           -2.393788204910    -0.086082449010    -1.454435124477
    H           -1.988634489562    -1.400082859616    -0.386324854583
    H           -4.439999796969    -1.291881384940    -0.704453355393
    H           -4.469260712376     0.361340631226    -0.118412055015
    H           -4.049395100466    -0.948166279273     0.970450543731

  Mulliken Charges: (a.u.)
   Center  Symbol    Alpha    Beta     Spin     Total
       1     H     0.26720  0.26720  0.00000  0.46560
       2     O     4.34834  4.34834  0.00000 -0.69667
       3     C     2.62103  2.62103  0.00000  0.75793
       4     C     3.21648  3.21648  0.00000 -0.43295
       5     O     4.28324  4.28324  0.00000 -0.56648
       6     C     3.15460  3.15460  0.00000 -0.30921
       7     H     0.39402  0.39402  0.00000  0.21197
       8     H     0.39689  0.39689  0.00000  0.20622
       9     C     3.15598  3.15598  0.00000 -0.31196
      10     H     0.41454  0.41454  0.00000  0.17093
      11     H     0.40943  0.40943  0.00000  0.18115
      12     C     3.15511  3.15511  0.00000 -0.31022
      13     H     0.41805  0.41805  0.00000  0.16391
      14     H     0.42289  0.42289  0.00000  0.15422
      15     C     3.23935  3.23935  0.00000 -0.47870
      16     H     0.42176  0.42176  0.00000  0.15648
      17     H     0.42137  0.42137  0.00000  0.15726
      18     H     0.41787  0.41787  0.00000  0.16425
      19     H     0.42091  0.42091  0.00000  0.15817
      20     H     0.42095  0.42095  0.00000  0.15811

   Total alpha = 32.00000, Total beta = 32.00000, Total charge =  0.00000
