                              Psi4 1.0.54 Driver

  ==> Input File <==

--------------------------------------------------------------------------
set {
	reference rhf
	basis cc-pvtz
}

set_num_threads( 4 )
memory 2 gb

molecule MOL {
0 1

O	 -2.817697	 1.304178	 0.001046
C	 -2.664672	 0.129869	 0.003507
C	 -3.797908	 -0.860100	 -0.001145
O	 -1.481217	 -0.452708	 0.001092
H	 -4.408836	 -0.679689	 -0.875387
H	 -3.443486	 -1.878443	 -0.002770
H	 -4.412123	 -0.683688	 0.871605
C	 -0.332055	 0.384012	 -0.000250
C	 0.892252	 -0.506059	 -0.000295
H	 -0.360822	 1.020205	 -0.874146
H	 -0.359817	 1.021310	 0.872861
C	 2.188199	 0.299473	 -0.001416
H	 0.857046	 -1.152781	 -0.871031
H	 0.857910	 -1.151798	 0.871202
C	 3.315911	 -0.381470	 0.769109
H	 2.508268	 0.469935	 -1.026343
H	 2.004995	 1.281534	 0.427498
C	 4.610774	 0.423725	 0.769233
H	 3.501107	 -1.362233	 0.340318
H	 2.997283	 -0.552187	 1.793520
H	 4.973554	 0.581748	 -0.240849
H	 5.389601	 -0.086488	 1.323865
H	 4.465738	 1.398208	 1.223326

	symmetry c1
}
set optking {
	frozen_dihedral = ("
		16 12 9 13
	")
}

ee,wfn = optimize('scf', return_wfn=True)
oeprop( wfn, 'DIPOLE', 'QUADRUPOLE', 'MULLIKEN_CHARGES')
f=open( 'psi4out.xyz', 'w' )
f.write( "23  " )
f.write( str(ee) + "\n" )
f.write( MOL.save_string_xyz() )
f.close()
--------------------------------------------------------------------------

    Molecular point group: c1
  Charge       = 0
  Multiplicity = 1
  Basis Set: CC-PVTZ
  Basis Set:
  @DF-RHF Final Energy:  -423.13184739553600
    Total Energy =                       -423.1318473955360560
    Molecular point group: c1
  Basis Set: CC-PVTZ
  Basis Set:
  Basis Set: CC-PVTZ
  Basis Set:
  @DF-RHF Final Energy:  -423.13187125567640
    Total Energy =                       -423.1318712556766286
  Basis Set: CC-PVTZ
  Basis Set:
  Basis Set: CC-PVTZ
  Basis Set:
  @DF-RHF Final Energy:  -423.13093060714459
    Total Energy =                       -423.1309306071447054
  Basis Set: CC-PVTZ
  Basis Set:
  Basis Set: CC-PVTZ
  Basis Set:
  @DF-RHF Final Energy:  -423.13211829986955
    Total Energy =                       -423.1321182998697168
  Basis Set: CC-PVTZ
  Basis Set:
  Basis Set: CC-PVTZ
  Basis Set:
  @DF-RHF Final Energy:  -423.13213484786388
    Total Energy =                       -423.1321348478645632
  Basis Set: CC-PVTZ
  Basis Set:
  Basis Set: CC-PVTZ
  Basis Set:
  @DF-RHF Final Energy:  -423.13215165186421
    Total Energy =                       -423.1321516518644330
  Basis Set: CC-PVTZ
  Basis Set:
  Charge       = 0
  Multiplicity = 1
  Basis Set: CC-PVTZ
  Basis Set:

    Orbital Energies (a.u.)
    -----------------------

    Doubly Occupied:

       1A    -20.595806     2A    -20.529489     3A    -11.366388
       4A    -11.279462     5A    -11.230640     6A    -11.222301
       7A    -11.221430     8A    -11.219413     9A    -11.210667
      10A     -1.471133    11A     -1.363972    12A     -1.094355
      13A     -1.043164    14A     -1.003947    15A     -0.931136
      16A     -0.842835    17A     -0.802593    18A     -0.776868
      19A     -0.693712    20A     -0.688181    21A     -0.672374
      22A     -0.644988    23A     -0.609894    24A     -0.587755
      25A     -0.583227    26A     -0.569573    27A     -0.559151
      28A     -0.537454    29A     -0.525811    30A     -0.503860
      31A     -0.493600    32A     -0.478283    33A     -0.469570
      34A     -0.465491    35A     -0.454849    36A     -0.438702

  @DF-RHF Final Energy:  -423.13215243586410

   => Energetics <=

    Nuclear Repulsion Energy =            450.7501901730861391
    One-Electron Energy =               -1469.4005386553458266
    Two-Electron Energy =                 595.5181960463958148
    DFT Exchange-Correlation Energy =       0.0000000000000000
    Empirical Dispersion Energy =           0.0000000000000000
    PCM Polarization Energy =               0.0000000000000000
    EFP Energy =                            0.0000000000000000
    Total Energy =                       -423.1321524358638726
    Molecular point group: c1
  Basis Set: CC-PVTZ
  Basis Set:

  -Total Gradient:
     Atom            X                  Y                   Z
    ------   -----------------  -----------------  -----------------
       1       -0.000011366623     0.000016578372     0.000012186509
       2        0.000067932186    -0.000064700358    -0.000027508908
       3       -0.000017979295     0.000016755640     0.000009909582
       4       -0.000068237211     0.000022214240    -0.000001046398
       5        0.000012131688    -0.000002737143     0.000017408126
       6       -0.000002786841     0.000001643935    -0.000000017682
       7        0.000011274181    -0.000002134605    -0.000019408027
       8        0.000046026089     0.000028862523     0.000006633642
       9        0.002678653769    -0.004157087424     0.002516883896
      10       -0.000013926253    -0.000007941111     0.000002808577
      11       -0.000000927752    -0.000014878512    -0.000008539728
      12       -0.002947017701     0.004644616423    -0.000570759312
      13       -0.001784730462     0.002749788624    -0.001978396742
      14       -0.000013231843    -0.000009950745    -0.000000080795
      15        0.000007929278    -0.000028661975    -0.000047574580
      16        0.002061035134    -0.003208624853     0.000092829718
      17       -0.000008379980     0.000009554588    -0.000009905404
      18       -0.000006395898     0.000020757619     0.000010526514
      19        0.000015490023     0.000027603986     0.000025454664
      20        0.000032272440     0.000015016796    -0.000055521031
      21       -0.000034959996    -0.000018309501     0.000048225046
      22       -0.000013307882    -0.000001391598     0.000004243525
      23       -0.000009497045    -0.000036974923    -0.000028351194

  **** Optimization is complete! (in 7 steps) ****
    Final optimized geometry and variables:
    Molecular point group: c1

    Geometry (in Angstrom), charge = 0, multiplicity = 1:

    O           -2.799840470696     1.255836426118    -0.188913861769
    C           -2.645371920467     0.081690542553    -0.197849397530
    C           -3.776995084136    -0.909182506722    -0.245446578738
    O           -1.461700523373    -0.499423391963    -0.166922935616
    H           -4.362438799615    -0.720182709700    -1.135199834179
    H           -3.421566769486    -1.927210886013    -0.247215344151
    H           -4.416480534999    -0.742234861456     0.610905410621
    C           -0.314424621195     0.337814835208    -0.119529654711
    C            0.912833655542    -0.550136602644    -0.088106400910
    H           -0.313179091234     0.984497714861    -0.986707760787
    H           -0.371711319593     0.965317046551     0.759211966649
    C            2.206682293567     0.273359310850    -0.116551054336
    H            0.867635945240    -1.203380790745    -0.952062534339
    H            0.872450195348    -1.173467452228     0.797863485471
    C            3.365128608388    -0.412641096645     0.605800844584
    H            2.504831601296     0.438390133688    -1.147315133931
    H            2.041868886443     1.250819737073     0.328132156337
    C            4.670375020509     0.370324753140     0.521660817422
    H            3.510802909348    -1.404396306080     0.186139478068
    H            3.098698331240    -0.560008390437     1.648503992401
    H            4.985280350100     0.497408847332    -0.508636908629
    H            5.467802183193    -0.138669230961     1.050467303886
    H            4.562670900250     1.358188315106     0.957098689877

  Mulliken Charges: (a.u.)
   Center  Symbol    Alpha    Beta     Spin     Total
       1     O     4.20240  4.20240  0.00000 -0.40479
       2     C     2.81482  2.81482  0.00000  0.37036
       3     C     3.13994  3.13994  0.00000 -0.27988
       4     O     4.14571  4.14571  0.00000 -0.29142
       5     H     0.44210  0.44210  0.00000  0.11579
       6     H     0.44184  0.44184  0.00000  0.11632
       7     H     0.44216  0.44216  0.00000  0.11567
       8     C     2.97873  2.97873  0.00000  0.04253
       9     C     3.08274  3.08274  0.00000 -0.16548
      10     H     0.45316  0.45316  0.00000  0.09368
      11     H     0.45434  0.45434  0.00000  0.09131
      12     C     3.09924  3.09924  0.00000 -0.19848
      13     H     0.44949  0.44949  0.00000  0.10103
      14     H     0.45074  0.45074  0.00000  0.09852
      15     C     3.08482  3.08482  0.00000 -0.16965
      16     H     0.45136  0.45136  0.00000  0.09727
      17     H     0.45309  0.45309  0.00000  0.09382
      18     C     3.14959  3.14959  0.00000 -0.29917
      19     H     0.45283  0.45283  0.00000  0.09434
      20     H     0.45395  0.45395  0.00000  0.09209
      21     H     0.45471  0.45471  0.00000  0.09059
      22     H     0.44774  0.44774  0.00000  0.10453
      23     H     0.45449  0.45449  0.00000  0.09101

   Total alpha = 36.00000, Total beta = 36.00000, Total charge =  0.00000

*** Psi4 exiting successfully. Buy a developer a beer!
