  ==> Input File <==

--------------------------------------------------------------------------
set {
	reference rhf
	basis 6-31G*
}

set_num_threads( 4 )
memory 2 gb

molecule MOL {
0 1

H	 -1.558129	 3.293811	 1.714233
O	 -1.347252	 2.413293	 1.438719
C	 -0.274438	 2.445737	 0.531424
C	 0.031547	 1.023609	 0.088541
H	 0.609434	 2.872536	 1.002064
H	 -0.517916	 3.070262	 -0.325190
C	 -1.134819	 0.293262	 -0.585751
H	 0.342624	 0.460035	 0.963700
H	 0.885610	 1.056284	 -0.585795
C	 -1.917817	 -0.639439	 0.339494
H	 -0.758119	 -0.268455	 -1.433105
H	 -1.813832	 1.041889	 -0.986690
H	 -2.777680	 -1.057197	 -0.174994
H	 -1.310268	 -1.471279	 0.680599
H	 -2.283753	 -0.111424	 1.216626

	symmetry c1
}
set optking {
	frozen_dihedral = ("
		8 4 7 11
	")
}

ee = optimize('scf')
oeprop('DIPOLE', 'QUADRUPOLE', 'MULLIKEN_CHARGES')
f=open( 'psi4out.xyz', 'w' )
f.write( "15  " )
f.write( str(ee) + "\n" )
f.write( MOL.save_string_xyz() )
f.close()
--------------------------------------------------------------------------

    Molecular point group: c1
  Charge       = 0
  Multiplicity = 1
  Basis Set: 6-31G*
  Basis Set:
  @DF-RHF Final Energy:  -232.14094200806349
    Total Energy =                       -232.1409420080634618
    Molecular point group: c1
  Basis Set: 6-31G*
  Basis Set:
  Basis Set: 6-31G*
  Basis Set:
  @DF-RHF Final Energy:  -232.14131737518190
    Total Energy =                       -232.1413173751818704
  Basis Set: 6-31G*
  Basis Set:
  Basis Set: 6-31G*
  Basis Set:
  @DF-RHF Final Energy:  -232.14137092306635
    Total Energy =                       -232.1413709230662903
  Basis Set: 6-31G*
  Basis Set:
  Charge       = 0
  Multiplicity = 1
  Basis Set: 6-31G*
  Basis Set:

    Orbital Energies (a.u.)
    -----------------------

    Doubly Occupied:

       1A    -20.554529     2A    -11.268553     3A    -11.212346
       4A    -11.209481     5A    -11.196162     6A     -1.361039
       7A     -1.060628     8A     -0.970548     9A     -0.856358
      10A     -0.783015    11A     -0.705443    12A     -0.641836
      13A     -0.599966    14A     -0.588197    15A     -0.544813
      16A     -0.534038    17A     -0.506391    18A     -0.471333
      19A     -0.464368    20A     -0.450836    21A     -0.430599

  @DF-RHF Final Energy:  -232.14137106147484

   => Energetics <=

    Nuclear Repulsion Energy =            191.9286526382638272
    One-Electron Energy =                -695.3190902746540587
    Two-Electron Energy =                 271.2490665749153322
    DFT Exchange-Correlation Energy =       0.0000000000000000
    Empirical Dispersion Energy =           0.0000000000000000
    PCM Polarization Energy =               0.0000000000000000
    EFP Energy =                            0.0000000000000000
    Total Energy =                       -232.1413710614748993
    Molecular point group: c1
  Basis Set: 6-31G*
  Basis Set:

  -Total Gradient:
     Atom            X                  Y                   Z
    ------   -----------------  -----------------  -----------------
       1        0.000013872706    -0.000002182811    -0.000020798010
       2       -0.000032905792     0.000043690170     0.000044991431
       3       -0.000000967958     0.000084464818     0.000063118542
       4        0.001532470805    -0.000986708351    -0.001836282329
       5       -0.000006933302     0.000012766767     0.000021033892
       6        0.000020683944     0.000004852426    -0.000016927617
       7        0.000025098164    -0.001679728380     0.001806462129
       8       -0.001352331909     0.001006846714     0.001087371642
       9       -0.000032285242    -0.000021626467    -0.000012538528
      10       -0.000030388507    -0.000134563022     0.000086783797
      11       -0.000270908078     0.001577588531    -0.001239141446
      12        0.000098785286     0.000111261992     0.000018834589
      13        0.000050167752    -0.000028865339    -0.000004969806
      14        0.000020411223     0.000005629002     0.000055566299
      15       -0.000034769091     0.000006573948    -0.000053504583

  **** Optimization is complete! (in 4 steps) ****
    Final optimized geometry and variables:
    Molecular point group: c1

    Geometry (in Angstrom), charge = 0, multiplicity = 1:

    H           -0.609701381460     2.134569372116     1.317504192724
    O           -0.373684122252     1.252415282244     1.068497648457
    C            0.673105967322     1.288463128509     0.131453496378
    C            0.985435508390    -0.130893514125    -0.314330482110
    H            1.561268455134     1.738960199857     0.571460679460
    H            0.391134773007     1.891981499100    -0.730334939638
    C           -0.197221022054    -0.844047526748    -0.999136766160
    H            1.299858875231    -0.690837447647     0.562101748643
    H            1.838764220865    -0.082468123743    -0.985715876196
    C           -0.983039960095    -1.769852293688    -0.070965909725
    H            0.168126720942    -1.410063749300    -1.852068164618
    H           -0.872348691493    -0.098100288669    -1.411276227168
    H           -1.807295459065    -2.240895014014    -0.598833495052
    H           -0.346795954365    -2.560233984710     0.318493688004
    H           -1.387177262390    -1.219377577208     0.769849498216

  Mulliken Charges: (a.u.)
   Center  Symbol    Alpha    Beta     Spin     Total
       1     H     0.28039  0.28039  0.00000  0.43921
       2     O     4.36926  4.36926  0.00000 -0.73851
       3     C     2.99801  2.99801  0.00000  0.00399
       4     C     3.16291  3.16291  0.00000 -0.32582
       5     H     0.42994  0.42994  0.00000  0.14012
       6     H     0.43248  0.43248  0.00000  0.13504
       7     C     3.15173  3.15173  0.00000 -0.30345
       8     H     0.41383  0.41383  0.00000  0.17235
       9     H     0.42123  0.42123  0.00000  0.15753
      10     C     3.24154  3.24154  0.00000 -0.48308
      11     H     0.42317  0.42317  0.00000  0.15366
      12     H     0.42032  0.42032  0.00000  0.15936
      13     H     0.42443  0.42443  0.00000  0.15114
      14     H     0.42562  0.42562  0.00000  0.14875
      15     H     0.40515  0.40515  0.00000  0.18970

   Total alpha = 21.00000, Total beta = 21.00000, Total charge = -0.00000
