  ==> Input File <==

--------------------------------------------------------------------------
set {
	reference rhf
	basis 6-31G*
}

set_num_threads( 4 )
memory 2 gb

molecule MOL {
0 1

H	 3.265716	 0.173649	 -0.219235
N	 2.434251	 -0.367735	 -0.081097
C	 1.267428	 0.496480	 0.024474
H	 2.564453	 -0.886994	 0.766448
C	 -0.016086	 -0.325158	 -0.029487
H	 1.288818	 1.183521	 -0.816092
H	 1.267576	 1.109062	 0.929528
C	 -1.282277	 0.529072	 0.046735
H	 -0.012495	 -0.908639	 -0.945788
H	 -0.015903	 -1.041248	 0.791956
C	 -2.563920	 -0.301775	 -0.006060
H	 -1.284084	 1.244622	 -0.773004
H	 -1.271387	 1.115393	 0.963286
H	 -2.621848	 -0.873522	 -0.927727
H	 -3.445135	 0.329952	 0.047812
H	 -2.609542	 -1.004582	 0.821105

	symmetry c1
}
set optking {
	frozen_dihedral = ("
		1 2 3 6
	")
}

ee = optimize('scf')
oeprop('DIPOLE', 'QUADRUPOLE', 'MULLIKEN_CHARGES')
f=open( 'psi4out.xyz', 'w' )
f.write( "16  " )
f.write( str(ee) + "\n" )
f.write( MOL.save_string_xyz() )
f.close()
--------------------------------------------------------------------------

    Molecular point group: c1
  Charge       = 0
  Multiplicity = 1
  Basis Set: 6-31G*
  Basis Set:
  @DF-RHF Final Energy:  -212.31689946784195
    Total Energy =                       -212.3168994678418926
    Molecular point group: c1
  Basis Set: 6-31G*
  Basis Set:
  Basis Set: 6-31G*
  Basis Set:
  @DF-RHF Final Energy:  -212.31691448406528
    Total Energy =                       -212.3169144840654781
  Basis Set: 6-31G*
  Basis Set:
  Basis Set: 6-31G*
  Basis Set:
  @DF-RHF Final Energy:  -212.31691734494996
    Total Energy =                       -212.3169173449501841
  Basis Set: 6-31G*
  Basis Set:
  Charge       = 0
  Multiplicity = 1
  Basis Set: 6-31G*
  Basis Set:

    Orbital Energies (a.u.)
    -----------------------

    Doubly Occupied:

       1A    -15.532335     2A    -11.239966     3A    -11.214485
       4A    -11.208511     5A    -11.207489     6A     -1.176261
       7A     -1.058982     8A     -0.958356     9A     -0.843381
      10A     -0.791091    11A     -0.666691    12A     -0.634508
      13A     -0.606382    14A     -0.575542    15A     -0.562387
      16A     -0.526366    17A     -0.498376    18A     -0.470105
      19A     -0.464700    20A     -0.461643    21A     -0.380054

  @DF-RHF Final Energy:  -212.31691760403245

   => Energetics <=

    Nuclear Repulsion Energy =            186.2055999742400729
    One-Electron Energy =                -654.8898110730241342
    Two-Electron Energy =                 256.3672934947514932
    DFT Exchange-Correlation Energy =       0.0000000000000000
    Empirical Dispersion Energy =           0.0000000000000000
    PCM Polarization Energy =               0.0000000000000000
    EFP Energy =                            0.0000000000000000
    Total Energy =                       -212.3169176040325965
    Molecular point group: c1
  Basis Set: 6-31G*
  Basis Set:

  -Total Gradient:
     Atom            X                  Y                   Z
    ------   -----------------  -----------------  -----------------
       1       -0.000150980913    -0.000056227918    -0.000995175698
       2        0.000300896277     0.000179678275     0.001357460383
       3       -0.000659218124    -0.000732270564    -0.000830222268
       4       -0.000018199280     0.000013626726    -0.000019427328
       5        0.000016240262    -0.000002230487    -0.000017571965
       6        0.000489657164     0.000579630506     0.000496044211
       7       -0.000004741656     0.000006818539    -0.000003685059
       8        0.000012140766     0.000004600421     0.000023799904
       9        0.000007974208     0.000001769299    -0.000006287805
      10        0.000000300420     0.000012002780    -0.000005274193
      11        0.000000342522    -0.000004245690    -0.000005023783
      12        0.000001505470    -0.000006562961     0.000002464242
      13        0.000004766150     0.000003549582     0.000001892126
      14        0.000001936250    -0.000004295578     0.000002540325
      15       -0.000000067503     0.000000917528    -0.000004511375
      16       -0.000002552014     0.000003239543     0.000002978284

  **** Optimization is complete! (in 4 steps) ****
    Final optimized geometry and variables:
    Molecular point group: c1

    Geometry (in Angstrom), charge = 0, multiplicity = 1:

    H            3.267929402411     0.172855955924    -0.208385600740
    N            2.435077514490    -0.366800777762    -0.075347347330
    C            1.266141453717     0.495615423384     0.019965096817
    H            2.556678882231    -0.896556412889     0.766315601611
    C           -0.017040728209    -0.326321242384    -0.030840368097
    H            1.292462723917     1.181120133194    -0.821639586041
    H            1.264398407377     1.114573953705     0.920779918816
    C           -1.283420365704     0.527204342378     0.049053225760
    H           -0.015073002302    -0.910013295651    -0.946859498579
    H           -0.013109142637    -1.042590226940     0.790209071652
    C           -2.564961857691    -0.303833666452    -0.004380287115
    H           -1.286595333840     1.245040053646    -0.768746199176
    H           -1.271782924233     1.111271210031     0.967098415213
    H           -2.623225091463    -0.874210764749    -0.926901806000
    H           -3.446391101222     0.327570564489     0.050940228424
    H           -2.609913241080    -1.007995867362     0.821668855193

  Mulliken Charges: (a.u.)
   Center  Symbol    Alpha    Beta     Spin     Total
       1     H     0.33202  0.33202  0.00000  0.33595
       2     N     3.92270  3.92270  0.00000 -0.84540
       3     C     3.06147  3.06147  0.00000 -0.12294
       4     H     0.33470  0.33470  0.00000  0.33059
       5     C     3.14808  3.14808  0.00000 -0.29616
       6     H     0.42131  0.42131  0.00000  0.15739
       7     H     0.43452  0.43452  0.00000  0.13095
       8     C     3.15593  3.15593  0.00000 -0.31187
       9     H     0.41384  0.41384  0.00000  0.17232
      10     H     0.42764  0.42764  0.00000  0.14472
      11     C     3.23856  3.23856  0.00000 -0.47712
      12     H     0.42291  0.42291  0.00000  0.15418
      13     H     0.42397  0.42397  0.00000  0.15207
      14     H     0.42060  0.42060  0.00000  0.15879
      15     H     0.41979  0.41979  0.00000  0.16042
      16     H     0.42195  0.42195  0.00000  0.15610

   Total alpha = 21.00000, Total beta = 21.00000, Total charge =  0.00000
