  ==> Input File <==

--------------------------------------------------------------------------
set {
	reference rhf
	basis 6-31G*
}

set_num_threads( 4 )
memory 2 gb

molecule MOL {
0 1

H	 -3.161837	 0.500524	 -0.000234
C	 -2.367097	 -0.232926	 -0.000000
O	 -1.158440	 0.455814	 -0.000122
H	 -2.468853	 -0.861886	 -0.882833
H	 -2.468942	 -0.861421	 0.883154
C	 -0.029776	 -0.365156	 0.000148
C	 1.004401	 0.223587	 0.943823
H	 0.378467	 -0.442411	 -1.008450
H	 -0.299436	 -1.373937	 0.315665
C	 2.280951	 -0.613791	 1.007834
H	 1.234123	 1.232880	 0.616383
H	 0.561042	 0.307844	 1.931261
H	 2.754210	 -0.690267	 0.032846
H	 3.000635	 -0.171203	 1.688288
H	 2.076256	 -1.622245	 1.356438

	symmetry c1
}
set optking {
	frozen_dihedral = ("
		8 6 3 2
	")
}

ee = optimize('scf')
oeprop('DIPOLE', 'QUADRUPOLE', 'MULLIKEN_CHARGES')
f=open( 'psi4out.xyz', 'w' )
f.write( "15  " )
f.write( str(ee) + "\n" )
f.write( MOL.save_string_xyz() )
f.close()
--------------------------------------------------------------------------

    Molecular point group: c1
  Charge       = 0
  Multiplicity = 1
  Basis Set: 6-31G*
  Basis Set:
  @DF-RHF Final Energy:  -232.13624962441122
    Total Energy =                       -232.1362496244113345
    Molecular point group: c1
  Basis Set: 6-31G*
  Basis Set:
  Basis Set: 6-31G*
  Basis Set:
  @DF-RHF Final Energy:  -232.13644283189433
    Total Energy =                       -232.1364428318942714
  Basis Set: 6-31G*
  Basis Set:
  Basis Set: 6-31G*
  Basis Set:
  @DF-RHF Final Energy:  -232.13650780105354
    Total Energy =                       -232.1365078010534262
  Basis Set: 6-31G*
  Basis Set:
  Charge       = 0
  Multiplicity = 1
  Basis Set: 6-31G*
  Basis Set:

    Orbital Energies (a.u.)
    -----------------------

    Doubly Occupied:

       1A    -20.550881     2A    -11.265941     3A    -11.264652
       4A    -11.213703     5A    -11.212687     6A     -1.374479
       7A     -1.056570     8A     -0.955863     9A     -0.878028
      10A     -0.808105    11A     -0.672119    12A     -0.652838
      13A     -0.632354    14A     -0.603250    15A     -0.567404
      16A     -0.540905    17A     -0.502844    18A     -0.490923
      19A     -0.479955    20A     -0.462563    21A     -0.406873

  @DF-RHF Final Energy:  -232.13650862227593

   => Energetics <=

    Nuclear Repulsion Energy =            189.7495338230671109
    One-Electron Energy =                -690.5862097812459979
    Two-Electron Energy =                 268.7001673359030747
    DFT Exchange-Correlation Energy =       0.0000000000000000
    Empirical Dispersion Energy =           0.0000000000000000
    PCM Polarization Energy =               0.0000000000000000
    EFP Energy =                            0.0000000000000000
    Total Energy =                       -232.1365086222758123
    Molecular point group: c1
  Basis Set: 6-31G*
  Basis Set:

  -Total Gradient:
     Atom            X                  Y                   Z
    ------   -----------------  -----------------  -----------------
       1       -0.000008717084     0.000001651261    -0.000000818373
       2       -0.000116315289     0.000034416056     0.002050157349
       3        0.000481666723     0.000442274779    -0.002850196572
       4        0.000032630566     0.000013631558     0.000014991860
       5        0.000044635414     0.000009072472    -0.000009958267
       6       -0.001921678649    -0.002482567000     0.000389481400
       7       -0.000001221119    -0.000001297822    -0.000057075843
       8        0.001467104271     0.002018591578     0.000464458517
       9        0.000012170717    -0.000029377872    -0.000000371022
      10        0.000013534095    -0.000007727982    -0.000000000305
      11        0.000004545598     0.000016245016     0.000009187847
      12       -0.000019084648    -0.000010657595    -0.000014380827
      13       -0.000002354921    -0.000005834758     0.000003218496
      14        0.000005644165    -0.000000893728     0.000003519454
      15        0.000007440167     0.000002474038    -0.000002213712

  **** Optimization is complete! (in 4 steps) ****
    Final optimized geometry and variables:
    Molecular point group: c1

    Geometry (in Angstrom), charge = 0, multiplicity = 1:

    H           -3.075968434592     0.660106500323    -0.412442576226
    C           -2.304151877784    -0.097630478736    -0.404642337765
    O           -1.075977697729     0.556963225719    -0.389721452105
    H           -2.420017568808    -0.721765580285    -1.288865370126
    H           -2.434124795806    -0.721796833736     0.477221300236
    C            0.053280928610    -0.271379865775    -0.356958796397
    C            1.091948369440     0.332214576726     0.576231050242
    H            0.469098354461    -0.354408494265    -1.359541057475
    H           -0.212539382242    -1.272073954139    -0.022552484638
    C            2.387270417633    -0.477660151361     0.613379867166
    H            1.295008932769     1.348057106623     0.251027464819
    H            0.664180007804     0.403327937019     1.572100342013
    H            2.844497513810    -0.537901154653    -0.370325326918
    H            3.109693851262    -0.024434294076     1.283960379490
    H            2.210991132226    -1.492983308620     0.958340423572

  Mulliken Charges: (a.u.)
   Center  Symbol    Alpha    Beta     Spin     Total
       1     H     0.41304  0.41304  0.00000  0.17392
       2     C     3.07907  3.07907  0.00000 -0.15815
       3     O     4.30820  4.30820  0.00000 -0.61640
       4     H     0.43027  0.43027  0.00000  0.13947
       5     H     0.43026  0.43026  0.00000  0.13947
       6     C     2.98276  2.98276  0.00000  0.03448
       7     C     3.15817  3.15817  0.00000 -0.31634
       8     H     0.42770  0.42770  0.00000  0.14461
       9     H     0.43252  0.43252  0.00000  0.13495
      10     C     3.24863  3.24863  0.00000 -0.49725
      11     H     0.41353  0.41353  0.00000  0.17294
      12     H     0.41825  0.41825  0.00000  0.16349
      13     H     0.42033  0.42033  0.00000  0.15934
      14     H     0.41552  0.41552  0.00000  0.16897
      15     H     0.42175  0.42175  0.00000  0.15649

   Total alpha = 21.00000, Total beta = 21.00000, Total charge = -0.00000
