  ==> Input File <==

--------------------------------------------------------------------------
set {
	reference rhf
	basis cc-pvtz
}

set_num_threads( 4 )
memory 2 gb

molecule MOL {
0 1

O	 -1.278239	 1.034789	 -0.784693
C	 -1.204115	 0.062668	 -0.112312
C	 -2.386398	 -0.667698	 0.460323
O	 -0.068058	 -0.518372	 0.226882
H	 -2.382952	 -1.693172	 0.114333
H	 -3.296656	 -0.175702	 0.158400
H	 -2.312537	 -0.685191	 1.540100
C	 1.169086	 0.037484	 -0.230612
C	 1.628887	 0.995568	 0.850023
C	 0.965203	 0.712423	 -1.575043
H	 1.876935	 -0.770648	 -0.335306
H	 1.756808	 0.477275	 1.791702
H	 2.576854	 1.440581	 0.572473
H	 0.905806	 1.789843	 0.992204
H	 1.898332	 1.144491	 -1.917225
H	 0.631463	 -0.000530	 -2.315964
H	 0.230808	 1.505791	 -1.494332

	symmetry c1
}
set optking {
	frozen_dihedral = ("
		11 8 4 2
	")
}

ee = optimize('scf')
oeprop('DIPOLE', 'QUADRUPOLE', 'MULLIKEN_CHARGES')
f=open( 'psi4out.xyz', 'w' )
f.write( "17  " )
f.write( str(ee) + "\n" )
f.write( MOL.save_string_xyz() )
f.close()
--------------------------------------------------------------------------

    Molecular point group: c1
  Charge       = 0
  Multiplicity = 1
  Basis Set: CC-PVTZ
  Basis Set:
  @DF-RHF Final Energy:  -345.01077966875943
    Total Energy =                       -345.0107796687593691
    Molecular point group: c1
  Basis Set: CC-PVTZ
  Basis Set:
  Basis Set: CC-PVTZ
  Basis Set:
  @DF-RHF Final Energy:  -345.02983580697901
    Total Energy =                       -345.0298358069790083
  Basis Set: CC-PVTZ
  Basis Set:
  Basis Set: CC-PVTZ
  Basis Set:
  @DF-RHF Final Energy:  -345.03397552255825
    Total Energy =                       -345.0339755225581939
  Basis Set: CC-PVTZ
  Basis Set:
  Basis Set: CC-PVTZ
  Basis Set:
  @DF-RHF Final Energy:  -345.03302897760642
    Total Energy =                       -345.0330289776067048
  Basis Set: CC-PVTZ
  Basis Set:
  @DF-RHF Final Energy:  -345.03492811486285
    Total Energy =                       -345.0349281148632485
  @DF-RHF Final Energy:  -345.03525017383004
    Total Energy =                       -345.0352501738300361
  Basis Set: CC-PVTZ
  Basis Set:
  @DF-RHF Final Energy:  -345.03526778455864
    Total Energy =                       -345.0352677845588687
  Basis Set: CC-PVTZ
  Basis Set:
  Basis Set: CC-PVTZ
  Basis Set:
  @DF-RHF Final Energy:  -345.03527112715193
    Total Energy =                       -345.0352711271519865
  Basis Set: CC-PVTZ
  Basis Set:
  Basis Set: CC-PVTZ
  Basis Set:
  @DF-RHF Final Energy:  -345.03527303095194
    Total Energy =                       -345.0352730309514868
  Basis Set: CC-PVTZ
  Basis Set:
  Charge       = 0
  Multiplicity = 1
  Basis Set: CC-PVTZ
  Basis Set:

    Orbital Energies (a.u.)
    -----------------------

    Doubly Occupied:

       1A    -20.588268     2A    -20.528720     3A    -11.366380
       4A    -11.293596     5A    -11.228514     6A    -11.215934
       7A    -11.211508     8A     -1.463467     9A     -1.363220
      10A     -1.078380    11A     -1.003308    12A     -0.946965
      13A     -0.868348    14A     -0.734199    15A     -0.695171
      16A     -0.674120    17A     -0.661974    18A     -0.617859
      19A     -0.584544    20A     -0.580682    21A     -0.569235
      22A     -0.551634    23A     -0.530323    24A     -0.519241
      25A     -0.503761    26A     -0.482232    27A     -0.446743
      28A     -0.431087

  @DF-RHF Final Energy:  -345.03527354204192

   => Energetics <=

    Nuclear Repulsion Energy =            326.2260083594902085
    One-Electron Energy =               -1117.0437339326581423
    Two-Electron Energy =                 445.7824520311261267
    DFT Exchange-Correlation Energy =       0.0000000000000000
    Empirical Dispersion Energy =           0.0000000000000000
    PCM Polarization Energy =               0.0000000000000000
    EFP Energy =                            0.0000000000000000
    Total Energy =                       -345.0352735420418639
    Molecular point group: c1
  Basis Set: CC-PVTZ
  Basis Set:

  -Total Gradient:
     Atom            X                  Y                   Z
    ------   -----------------  -----------------  -----------------
       1       -0.000035053876    -0.000013013165     0.000043418493
       2       -0.000316934288    -0.002919691114    -0.004132275738
       3       -0.000004336296    -0.000026351733    -0.000044064964
       4        0.000330718075     0.004453332431     0.005749891014
       5        0.000009865682     0.000002835665     0.000026068662
       6       -0.000003153321     0.000005568277     0.000004967270
       7       -0.000001228003     0.000024358145     0.000013262163
       8        0.001671002819    -0.000911915519     0.003373139731
       9       -0.000229158630     0.000077125776     0.000069555459
      10        0.000183509441     0.000050550303     0.000007865152
      11       -0.001617078174    -0.000736215920    -0.005090116035
      12       -0.000002354210     0.000005935716     0.000004754943
      13       -0.000002922731    -0.000002712475    -0.000013871255
      14        0.000006816806     0.000000260972     0.000001391339
      15       -0.000001516135     0.000005240383    -0.000001312472
      16       -0.000004995249     0.000011445732    -0.000003009029
      17        0.000016818086    -0.000026753474    -0.000009664735

  **** Optimization is complete! (in 10 steps) ****
    Final optimized geometry and variables:
    Molecular point group: c1

    Geometry (in Angstrom), charge = 0, multiplicity = 1:

    O           -1.281313819476     0.878937950711    -0.401586876764
    C           -1.101265197208    -0.172386073214     0.111947187983
    C           -2.206026287704    -1.086174126070     0.568710285031
    O            0.079912768833    -0.691684055517     0.384082963258
    H           -2.146740204565    -2.022961118241     0.029330613909
    H           -3.160031735887    -0.616625975213     0.391766068291
    H           -2.085987749153    -1.305860699318     1.621462928832
    C            1.331256752510    -0.169134728349    -0.091685828971
    C            1.896823651666     0.787394607040     0.939793601606
    C            1.295508962119     0.414962715901    -1.498034381376
    H            1.934442502074    -1.063940467044    -0.155308767363
    H            1.948788693325     0.313635725809     1.911775115003
    H            2.896172325142     1.094433481085     0.654310896446
    H            1.276217093400     1.671437599889     1.016133634110
    H            2.320218505568     0.502627136602    -1.842149600487
    H            0.773473264844    -0.246202960120    -2.178707682715
    H            0.828303312267     1.384658328080    -1.536720532599

  Mulliken Charges: (a.u.)
   Center  Symbol    Alpha    Beta     Spin     Total
       1     O     4.20026  4.20026  0.00000 -0.40052
       2     C     2.80317  2.80317  0.00000  0.39366
       3     C     3.13766  3.13766  0.00000 -0.27532
       4     O     4.16394  4.16394  0.00000 -0.32789
       5     H     0.44740  0.44740  0.00000  0.10519
       6     H     0.43907  0.43907  0.00000  0.12187
       7     H     0.44509  0.44509  0.00000  0.10982
       8     C     2.93725  2.93725  0.00000  0.12549
       9     C     3.15035  3.15035  0.00000 -0.30071
      10     C     3.15977  3.15977  0.00000 -0.31955
      11     H     0.44114  0.44114  0.00000  0.11772
      12     H     0.44670  0.44670  0.00000  0.10661
      13     H     0.45160  0.45160  0.00000  0.09679
      14     H     0.44432  0.44432  0.00000  0.11137
      15     H     0.45040  0.45040  0.00000  0.09920
      16     H     0.44778  0.44778  0.00000  0.10445
      17     H     0.43409  0.43409  0.00000  0.13182

   Total alpha = 28.00000, Total beta = 28.00000, Total charge = -0.00000
