  ==> Input File <==

--------------------------------------------------------------------------
set {
	reference rhf
	basis 6-31G*
}

set_num_threads( 4 )
memory 2 gb

molecule MOL {
0 1

H	 2.591676	 2.013956	 0.335017
O	 3.341076	 1.666752	 -0.126416
C	 3.569581	 0.339145	 0.272707
C	 2.539767	 -0.640285	 -0.279495
H	 4.553106	 0.084646	 -0.100901
H	 3.608576	 0.269204	 1.359154
C	 1.115811	 -0.397273	 0.226630
H	 2.556196	 -0.582511	 -1.364741
H	 2.852081	 -1.648031	 -0.010655
C	 0.966308	 0.943869	 0.950373
H	 0.832218	 -1.204489	 0.896215
H	 0.422453	 -0.428718	 -0.613968
C	 -0.460306	 1.275719	 1.403131
H	 1.630681	 0.961461	 1.812432
H	 1.309838	 1.735109	 0.287328
C	 -1.020047	 0.358467	 2.493918
H	 -0.472543	 2.299528	 1.771210
H	 -1.124581	 1.257382	 0.540439
C	 -2.402214	 0.792568	 2.986469
H	 -0.329500	 0.339026	 3.335868
H	 -1.082869	 -0.663430	 2.127747
C	 -2.966033	 -0.125047	 4.070791
H	 -2.345065	 1.809505	 3.368648
H	 -3.091217	 0.821960	 2.144866
H	 -2.315226	 -0.150419	 4.940292
H	 -3.944778	 0.209842	 4.400246
H	 -3.070331	 -1.143699	 3.707702

	symmetry c1
}
set optking {
	frozen_dihedral = ("
		10 7 4 8
	")
}

ee = optimize('scf')
oeprop('DIPOLE', 'QUADRUPOLE', 'MULLIKEN_CHARGES')
f=open( 'psi4out.xyz', 'w' )
f.write( "27  " )
f.write( str(ee) + "\n" )
f.write( MOL.save_string_xyz() )
f.close()
--------------------------------------------------------------------------

    Molecular point group: c1
  Charge       = 0
  Multiplicity = 1
  Basis Set: 6-31G*
  Basis Set:
  @DF-RHF Final Energy:  -388.25092407593883
    Total Energy =                       -388.2509240759391105
    Molecular point group: c1
  Basis Set: 6-31G*
  Basis Set:
  Basis Set: 6-31G*
  Basis Set:
  @DF-RHF Final Energy:  -388.26748517711752
    Total Energy =                       -388.2674851771175781
  Basis Set: 6-31G*
  Basis Set:
  Basis Set: 6-31G*
  Basis Set:
  @DF-RHF Final Energy:  -388.27037184256432
    Total Energy =                       -388.2703718425644865
  Basis Set: 6-31G*
  Basis Set:
  Basis Set: 6-31G*
  Basis Set:
  @DF-RHF Final Energy:  -388.27098346215064
    Total Energy =                       -388.2709834621512073
  Basis Set: 6-31G*
  Basis Set:
  @DF-RHF Final Energy:  -388.27107006988348
    Total Energy =                       -388.2710700698839901
  @DF-RHF Final Energy:  -388.27137776723293
    Total Energy =                       -388.2713777672332753
  Basis Set: 6-31G*
  Basis Set:
  @DF-RHF Final Energy:  -388.27134805130083
    Total Energy =                       -388.2713480513017430
  Basis Set: 6-31G*
  Basis Set:
  Basis Set: 6-31G*
  Basis Set:
  @DF-RHF Final Energy:  -388.27141405616032
    Total Energy =                       -388.2714140561607792
  Basis Set: 6-31G*
  Basis Set:
  Basis Set: 6-31G*
  Basis Set:
  @DF-RHF Final Energy:  -388.27142059452245
    Total Energy =                       -388.2714205945223966
  Basis Set: 6-31G*
  Basis Set:
  Charge       = 0
  Multiplicity = 1
  Basis Set: 6-31G*
  Basis Set:

    Orbital Energies (a.u.)
    -----------------------

    Doubly Occupied:

       1A    -20.549152     2A    -11.266765     3A    -11.223505
       4A    -11.219251     5A    -11.219056     6A    -11.217628
       7A    -11.216363     8A    -11.214885     9A    -11.210610
      10A     -1.356834    11A     -1.095763    12A     -1.058807
      13A     -1.012349    14A     -0.949597    15A     -0.892192
      16A     -0.827892    17A     -0.799992    18A     -0.775327
      19A     -0.693908    20A     -0.649367    21A     -0.636436
      22A     -0.620805    23A     -0.597131    24A     -0.582212
      25A     -0.569540    26A     -0.562041    27A     -0.548498
      28A     -0.525301    29A     -0.518778    30A     -0.499023
      31A     -0.478414    32A     -0.477652    33A     -0.466194
      34A     -0.465047    35A     -0.448994    36A     -0.438272
      37A     -0.420939

  @DF-RHF Final Energy:  -388.27142041077849

   => Energetics <=

    Nuclear Repulsion Energy =            465.4685752724843155
    One-Electron Energy =               -1448.8709492266484631
    Two-Electron Energy =                 595.1309535433856581
    DFT Exchange-Correlation Energy =       0.0000000000000000
    Empirical Dispersion Energy =           0.0000000000000000
    PCM Polarization Energy =               0.0000000000000000
    EFP Energy =                            0.0000000000000000
    Total Energy =                       -388.2714204107785463
    Molecular point group: c1
  Basis Set: 6-31G*
  Basis Set:

  -Total Gradient:
     Atom            X                  Y                   Z
    ------   -----------------  -----------------  -----------------
       1       -0.000017378833    -0.000001157331     0.000018269498
       2        0.000034876659     0.000008749062    -0.000025940378
       3       -0.000007270093    -0.000014132602     0.000028610215
       4        0.001622127764     0.004623554789     0.001725727501
       5        0.000005328121     0.000026696920     0.000002704797
       6        0.000015539551     0.000010315641    -0.000012007626
       7       -0.001079461207     0.001206602754    -0.004396874252
       8       -0.001126684583    -0.004315819948    -0.000265046734
       9       -0.000001959755    -0.000031863377    -0.000015267009
      10        0.000569531166    -0.001539076981     0.002985215904
      11        0.000013095845     0.000000599549    -0.000003398162
      12       -0.000015678587     0.000007179510     0.000002873277
      13       -0.000019425320     0.000044520112    -0.000000783868
      14        0.000023380422     0.000020356685    -0.000031433293
      15        0.000005697703    -0.000025603626     0.000025035568
      16        0.000020107248    -0.000012340870    -0.000039675361
      17       -0.000025461501     0.000010015361     0.000008707716
      18       -0.000010078132    -0.000004632814     0.000010720704
      19        0.000002150190    -0.000006505070    -0.000024908439
      20       -0.000000247075    -0.000019931656    -0.000005680690
      21       -0.000001126023    -0.000003137685    -0.000013790004
      22        0.000003688850     0.000024906136     0.000028859451
      23       -0.000008574427     0.000002663348    -0.000018262124
      24       -0.000001485718    -0.000016248731     0.000006981538
      25        0.000002101917    -0.000009476020     0.000002856037
      26        0.000000529172     0.000002524332     0.000013819532
      27       -0.000003323357     0.000011242510    -0.000007313798

  **** Optimization is complete! (in 10 steps) ****
    Final optimized geometry and variables:
    Molecular point group: c1

    Geometry (in Angstrom), charge = 0, multiplicity = 1:

    H            2.610487208963     1.598228415482    -1.030519410112
    O            3.217574068202     1.036500309602    -1.487064533602
    C            3.103843307235    -0.279488954223    -1.009298446614
    C            1.935984072998    -1.062722792327    -1.602712729348
    H            4.022925753694    -0.773555023508    -1.298327916735
    H            3.067673894217    -0.293022133612     0.077996524409
    C            0.488496479639    -0.723829399266    -1.151088693557
    H            2.006226473394    -1.010849817769    -2.684665082532
    H            2.117835905851    -2.108697603703    -1.362808093883
    C            0.262176280218     0.606546207890    -0.420438796138
    H            0.146515446499    -1.522926692241    -0.501379348083
    H           -0.163836489607    -0.751134184024    -2.019086526295
    C           -1.184784035391     0.821208701612     0.044361199476
    H            0.919326096304     0.679530912431     0.443941502757
    H            0.518810615952     1.426922963556    -1.086456335909
    C           -1.641719854001    -0.091324767673     1.186036391382
    H           -1.288888834268     1.854763932346     0.367900638630
    H           -1.854993688954     0.702255888366    -0.805109957259
    C           -3.053401751533     0.235782321714     1.677989456074
    H           -0.943763656611    -0.002198111162     2.017497230926
    H           -1.612114383527    -1.131525081433     0.872642868912
    C           -3.512013490199    -0.668397681729     2.821554310355
    H           -3.090676040135     1.273668300164     2.001879057701
    H           -3.752079041506     0.150336173554     0.848412945322
    H           -2.850783987315    -0.581907421118     3.679212273637
    H           -4.514119041600    -0.410240869198     3.149691458039
    H           -3.522302685237    -1.711231523423     2.517219529628

  Mulliken Charges: (a.u.)
   Center  Symbol    Alpha    Beta     Spin     Total
       1     H     0.27609  0.27609  0.00000  0.44781
       2     O     4.37507  4.37507  0.00000 -0.75015
       3     C     2.99841  2.99841  0.00000  0.00318
       4     C     3.16708  3.16708  0.00000 -0.33416
       5     H     0.41502  0.41502  0.00000  0.16997
       6     H     0.43068  0.43068  0.00000  0.13864
       7     C     3.15716  3.15716  0.00000 -0.31432
       8     H     0.41240  0.41240  0.00000  0.17520
       9     H     0.42298  0.42298  0.00000  0.15405
      10     C     3.16880  3.16880  0.00000 -0.33760
      11     H     0.41901  0.41901  0.00000  0.16198
      12     H     0.41781  0.41781  0.00000  0.16438
      13     C     3.15226  3.15226  0.00000 -0.30453
      14     H     0.42489  0.42489  0.00000  0.15023
      15     H     0.42156  0.42156  0.00000  0.15688
      16     C     3.15310  3.15310  0.00000 -0.30620
      17     H     0.42114  0.42114  0.00000  0.15772
      18     H     0.42180  0.42180  0.00000  0.15640
      19     C     3.15140  3.15140  0.00000 -0.30280
      20     H     0.42477  0.42477  0.00000  0.15046
      21     H     0.42142  0.42142  0.00000  0.15715
      22     C     3.23932  3.23932  0.00000 -0.47863
      23     H     0.42293  0.42293  0.00000  0.15414
      24     H     0.42250  0.42250  0.00000  0.15500
      25     H     0.42177  0.42177  0.00000  0.15645
      26     H     0.41888  0.41888  0.00000  0.16224
      27     H     0.42174  0.42174  0.00000  0.15651

   Total alpha = 37.00000, Total beta = 37.00000, Total charge =  0.00000
