  ==> Input File <==

--------------------------------------------------------------------------
set {
	reference rhf
	basis 6-31G*
}

set_num_threads( 4 )
memory 2 gb

molecule MOL {
0 1

H	 -3.813372	 -2.326858	 -0.322141
C	 -2.742046	 -2.232374	 -0.332971
C	 -1.957898	 -3.301366	 -0.739808
C	 -2.149916	 -1.042402	 0.059813
H	 -2.418391	 -4.223683	 -1.044181
C	 -0.580454	 -3.179121	 -0.753465
H	 -2.759389	 -0.214823	 0.374873
C	 -0.771268	 -0.917749	 0.046951
H	 0.042017	 -3.995819	 -1.065245
C	 0.017417	 -1.987288	 -0.360264
H	 -0.308811	 0.001253	 0.350083
C	 1.505076	 -1.906990	 -0.393148
O	 1.970282	 -0.730723	 0.000018
O	 2.212492	 -2.801968	 -0.735838
C	 3.377318	 -0.566646	 -0.000065
H	 3.695437	 -0.028981	 -0.881264
H	 3.789299	 -1.563704	 0.000236
H	 3.695516	 -0.028316	 0.880770

	symmetry c1
}
set optking {
	frozen_dihedral = ("
		12 13 15 16
	")
}

ee = optimize('scf')
oeprop('DIPOLE', 'QUADRUPOLE', 'MULLIKEN_CHARGES')
f=open( 'psi4out.xyz', 'w' )
f.write( "18  " )
f.write( str(ee) + "\n" )
f.write( MOL.save_string_xyz() )
f.close()
--------------------------------------------------------------------------

    Molecular point group: c1
  Charge       = 0
  Multiplicity = 1
  Basis Set: 6-31G*
  Basis Set:
  @DF-RHF Final Energy:  -457.34691446039204
    Total Energy =                       -457.3469144603925542
    Molecular point group: c1
  Basis Set: 6-31G*
  Basis Set:
  Basis Set: 6-31G*
  Basis Set:
  @DF-RHF Final Energy:  -457.34802443356108
    Total Energy =                       -457.3480244335612497
  Basis Set: 6-31G*
  Basis Set:
  Basis Set: 6-31G*
  Basis Set:
  @DF-RHF Final Energy:  -457.34889116642375
    Total Energy =                       -457.3488911664233001
  Basis Set: 6-31G*
  Basis Set:
  Basis Set: 6-31G*
  Basis Set:
  @DF-RHF Final Energy:  -457.34871882083161
    Total Energy =                       -457.3487188208316638
  Basis Set: 6-31G*
  Basis Set:
  Basis Set: 6-31G*
  Basis Set:
  @DF-RHF Final Energy:  -457.34900207791975
    Total Energy =                       -457.3490020779196357
  Basis Set: 6-31G*
  Basis Set:
  Charge       = 0
  Multiplicity = 1
  Basis Set: 6-31G*
  Basis Set:

    Orbital Energies (a.u.)
    -----------------------

    Doubly Occupied:

       1A    -20.606946     2A    -20.543763     3A    -11.379054
       4A    -11.281902     5A    -11.245191     6A    -11.244974
       7A    -11.243737     8A    -11.241310     9A    -11.237115
      10A    -11.236348    11A     -1.470753    12A     -1.364297
      13A     -1.164861    14A     -1.047844    15A     -1.024428
      16A     -0.979127    17A     -0.859785    18A     -0.833919
      19A     -0.777094    20A     -0.739886    21A     -0.683723
      22A     -0.675494    23A     -0.671631    24A     -0.631214
      25A     -0.623619    26A     -0.597404    27A     -0.584853
      28A     -0.565960    29A     -0.525239    30A     -0.516329
      31A     -0.503709    32A     -0.498323    33A     -0.456368
      34A     -0.444445    35A     -0.344626    36A     -0.340605

  @DF-RHF Final Energy:  -457.34900699034785

   => Energetics <=

    Nuclear Repulsion Energy =            492.6485642240269840
    One-Electron Energy =               -1599.6233902092499193
    Two-Electron Energy =                 649.6258189948754307
    DFT Exchange-Correlation Energy =       0.0000000000000000
    Empirical Dispersion Energy =           0.0000000000000000
    PCM Polarization Energy =               0.0000000000000000
    EFP Energy =                            0.0000000000000000
    Total Energy =                       -457.3490069903474478
    Molecular point group: c1
  Basis Set: 6-31G*
  Basis Set:

  -Total Gradient:
     Atom            X                  Y                   Z
    ------   -----------------  -----------------  -----------------
       1       -0.000000902777     0.000000882175     0.000001004440
       2       -0.000002822337    -0.000000469882    -0.000001078233
       3       -0.000013933314     0.000001447860     0.000003092194
       4       -0.000009041096    -0.000006424235    -0.000005069607
       5       -0.000004005822     0.000000681811     0.000000367615
       6       -0.000004073334     0.000001578424     0.000004855249
       7       -0.000005276003    -0.000000552345    -0.000001221358
       8       -0.000017225958     0.000007844892     0.000007966925
       9       -0.000002725573     0.000005812825     0.000000251621
      10       -0.000045771550    -0.000000065303    -0.000028550837
      11       -0.000011750439    -0.000014523554    -0.000005001501
      12        0.000014517635    -0.000451357280     0.001255559170
      13        0.000048122207     0.000934962358    -0.001587644326
      14        0.000069882150     0.000111989215     0.000003482569
      15        0.000169744887    -0.001786857971    -0.000327136205
      16       -0.000221255952     0.001231579949     0.000689566224
      17        0.000054022927    -0.000033713310    -0.000000618739
      18       -0.000017505661    -0.000002815625    -0.000009825201

  **** Optimization is complete! (in 6 steps) ****
    Final optimized geometry and variables:
    Molecular point group: c1

    Geometry (in Angstrom), charge = 0, multiplicity = 1:

    H           -4.030062642572    -0.454300173663     0.019665175899
    C           -2.958071492901    -0.369403009222     0.001014583070
    C           -2.186520571724    -1.444034012800    -0.414934347164
    C           -2.352327266264     0.813989977794     0.392715737199
    H           -2.657415637409    -2.361338907616    -0.718690123744
    C           -0.808233525892    -1.333947772877    -0.438822067028
    H           -2.951981170178     1.646054166509     0.714717482906
    C           -0.972718302060     0.926325751779     0.369827649396
    H           -0.195769182026    -2.155254141284    -0.757934113677
    C           -0.196396311880    -0.148854515658    -0.046424059424
    H           -0.500244872004     1.840428747143     0.671834917653
    C            1.292616387930    -0.083389053948    -0.090597112317
    O            1.764778720606     1.092120241402     0.298298724292
    O            1.983522762122    -0.988635449004    -0.439433105619
    C            3.168767532723     1.285384534890     0.333458148195
    H            3.473846234850     1.823520062657    -0.553823681767
    H            3.686941230841     0.343395263020     0.394222699451
    H            3.373967074235     1.889277484359     1.204948694394

  Mulliken Charges: (a.u.)
   Center  Symbol    Alpha    Beta     Spin     Total
       1     H     0.39546  0.39546  0.00000  0.20907
       2     C     3.09000  3.09000  0.00000 -0.18001
       3     C     3.10704  3.10704  0.00000 -0.21408
       4     C     3.10710  3.10710  0.00000 -0.21420
       5     H     0.39546  0.39546  0.00000  0.20908
       6     C     3.08654  3.08654  0.00000 -0.17307
       7     H     0.39637  0.39637  0.00000  0.20726
       8     C     3.08699  3.08699  0.00000 -0.17398
       9     H     0.37594  0.37594  0.00000  0.24811
      10     C     3.07770  3.07770  0.00000 -0.15540
      11     H     0.38062  0.38062  0.00000  0.23877
      12     C     2.57945  2.57945  0.00000  0.84111
      13     O     4.31619  4.31619  0.00000 -0.63238
      14     O     4.29146  4.29146  0.00000 -0.58291
      15     C     3.09672  3.09672  0.00000 -0.19345
      16     H     0.41199  0.41199  0.00000  0.17601
      17     H     0.39493  0.39493  0.00000  0.21014
      18     H     0.41004  0.41004  0.00000  0.17993

   Total alpha = 36.00000, Total beta = 36.00000, Total charge =  0.00000
