  ==> Input File <==

--------------------------------------------------------------------------
set {
	reference rhf
	basis 6-31G*
}

set_num_threads( 4 )
memory 2 gb

molecule MOL {
0 1

O	 -0.682937	 1.318834	 -0.186099
C	 -0.860635	 0.152188	 -0.042321
C	 -2.173363	 -0.477127	 0.338347
O	 0.083258	 -0.765189	 -0.202595
H	 -2.477673	 -1.180929	 -0.427595
H	 -2.923125	 0.290956	 0.455536
H	 -2.058825	 -1.029004	 1.264191
C	 0.121501	 -1.491846	 -1.428689
C	 0.865962	 -0.725855	 -2.506502
H	 -0.887212	 -1.721848	 -1.736486
H	 0.633560	 -2.411055	 -1.183030
H	 0.944153	 -1.334604	 -3.402069
H	 0.343774	 0.187869	 -2.761057
H	 1.868303	 -0.477548	 -2.174733

	symmetry c1
}
set optking {
	frozen_dihedral = ("
		8 4 2 1
	")
}

ee = optimize('scf')
oeprop('DIPOLE', 'QUADRUPOLE', 'MULLIKEN_CHARGES')
f=open( 'psi4out.xyz', 'w' )
f.write( "14  " )
f.write( str(ee) + "\n" )
f.write( MOL.save_string_xyz() )
f.close()
--------------------------------------------------------------------------

    Molecular point group: c1
  Charge       = 0
  Multiplicity = 1
  Basis Set: 6-31G*
  Basis Set:
  @DF-RHF Final Energy:  -305.85281177127422
    Total Energy =                       -305.8528117712741619
    Molecular point group: c1
  Basis Set: 6-31G*
  Basis Set:
  Basis Set: 6-31G*
  Basis Set:
  @DF-RHF Final Energy:  -305.85098726155792
    Total Energy =                       -305.8509872615577478
  Basis Set: 6-31G*
  Basis Set:
  Basis Set: 6-31G*
  Basis Set:
  @DF-RHF Final Energy:  -305.85410620396794
    Total Energy =                       -305.8541062039681151
  Basis Set: 6-31G*
  Basis Set:
  Basis Set: 6-31G*
  Basis Set:
  @DF-RHF Final Energy:  -305.85487190505449
    Total Energy =                       -305.8548719050544378
  Basis Set: 6-31G*
  Basis Set:
  Basis Set: 6-31G*
  Basis Set:
  @DF-RHF Final Energy:  -305.85490665516670
    Total Energy =                       -305.8549066551665874
  Basis Set: 6-31G*
  Basis Set:
  Basis Set: 6-31G*
  Basis Set:
  @DF-RHF Final Energy:  -305.85491599818414
    Total Energy =                       -305.8549159981840830
  Basis Set: 6-31G*
  Basis Set:
  Basis Set: 6-31G*
  Basis Set:
  @DF-RHF Final Energy:  -305.85491958183059
    Total Energy =                       -305.8549195818304725
  Basis Set: 6-31G*
  Basis Set:
  Charge       = 0
  Multiplicity = 1
  Basis Set: 6-31G*
  Basis Set:

    Orbital Energies (a.u.)
    -----------------------

    Doubly Occupied:

       1A    -20.584320     2A    -20.556252     3A    -11.378152
       4A    -11.298012     5A    -11.238302     6A    -11.221210
       7A     -1.457861     8A     -1.367368     9A     -1.046511
      10A     -1.008526    11A     -0.885842    12A     -0.768809
      13A     -0.691871    14A     -0.680344    15A     -0.670445
      16A     -0.605492    17A     -0.596568    18A     -0.583267
      19A     -0.550671    20A     -0.543846    21A     -0.519042
      22A     -0.483359    23A     -0.453428    24A     -0.436917

  @DF-RHF Final Energy:  -305.85492058064813

   => Energetics <=

    Nuclear Repulsion Energy =            247.8796933285696866
    One-Electron Energy =                -908.2163911206198463
    Two-Electron Energy =                 354.4817772114021182
    DFT Exchange-Correlation Energy =       0.0000000000000000
    Empirical Dispersion Energy =           0.0000000000000000
    PCM Polarization Energy =               0.0000000000000000
    EFP Energy =                            0.0000000000000000
    Total Energy =                       -305.8549205806480131
    Molecular point group: c1
  Basis Set: 6-31G*
  Basis Set:

  -Total Gradient:
     Atom            X                  Y                   Z
    ------   -----------------  -----------------  -----------------
       1        0.000236105029    -0.000028146976     0.001052336571
       2       -0.000777505542    -0.000180306760    -0.001442580540
       3        0.000035748819    -0.000011809289     0.000059623374
       4        0.001089145001     0.000770812433     0.000038389844
       5       -0.000000308050     0.000025434576    -0.000017644080
       6       -0.000015548550    -0.000001461089    -0.000006289660
       7        0.000003182511    -0.000005896422    -0.000017758225
       8       -0.000569115682    -0.000583436793     0.000347134549
       9       -0.000020669585     0.000014784528     0.000020379850
      10        0.000009495511     0.000001378195    -0.000006100591
      11        0.000007604377    -0.000002613784    -0.000012988418
      12       -0.000004731452    -0.000002189576     0.000000788882
      13        0.000007199127     0.000001593245    -0.000016631038
      14       -0.000000601512     0.000001857710     0.000001339481

  **** Optimization is complete! (in 8 steps) ****
    Final optimized geometry and variables:
    Molecular point group: c1

    Geometry (in Angstrom), charge = 0, multiplicity = 1:

    O           -0.196536527368     1.616082267309     0.519286683033
    C           -0.439101972665     0.464610592707     0.625092825031
    C           -1.782596915738    -0.080006365732     1.038335593210
    O            0.513793625591    -0.480660949369     0.469329998269
    H           -2.131207879113    -0.832949025940     0.340858024075
    H           -2.502774550219     0.722208316128     1.101410517829
    H           -1.680188019138    -0.559252882529     2.006094607145
    C            0.594651033670    -1.168765360018    -0.771185676462
    C            1.299138640846    -0.341501589692    -1.831830607663
    H           -0.398211205301    -1.459767804399    -1.100568706970
    H            1.147462537804    -2.071433262774    -0.556097754313
    H            1.391555580930    -0.918172149891    -2.747504171037
    H            0.752174920861     0.567345693907    -2.053080248617
    H            2.290447071136    -0.064865959926    -1.493664669468

  Mulliken Charges: (a.u.)
   Center  Symbol    Alpha    Beta     Spin     Total
       1     O     4.24992  4.24992  0.00000 -0.49984
       2     C     2.62826  2.62826  0.00000  0.74348
       3     C     3.28744  3.28744  0.00000 -0.57488
       4     O     4.31548  4.31548  0.00000 -0.63097
       5     H     0.40747  0.40747  0.00000  0.18506
       6     H     0.39623  0.39623  0.00000  0.20753
       7     H     0.39712  0.39712  0.00000  0.20577
       8     C     3.00702  3.00702  0.00000 -0.01403
       9     C     3.24846  3.24846  0.00000 -0.49691
      10     H     0.42375  0.42375  0.00000  0.15251
      11     H     0.40559  0.40559  0.00000  0.18881
      12     H     0.41995  0.41995  0.00000  0.16011
      13     H     0.40723  0.40723  0.00000  0.18554
      14     H     0.40609  0.40609  0.00000  0.18783

   Total alpha = 24.00000, Total beta = 24.00000, Total charge = -0.00000
