  ==> Input File <==

--------------------------------------------------------------------------
set {
	reference rhf
	basis 6-31G*
}

set_num_threads( 4 )
memory 2 gb

molecule MOL {
0 1

H	 1.459103	 0.593459	 -2.060296
O	 0.618456	 0.433426	 -1.656290
C	 0.702312	 0.627605	 -0.264544
C	 -0.714990	 0.596302	 0.266387
H	 1.153583	 1.589617	 -0.037075
H	 1.296925	 -0.154212	 0.203133
O	 -1.405996	 -0.526611	 -0.195820
H	 -1.257453	 1.468809	 -0.075599
H	 -0.688972	 0.618407	 1.353696
H	 -0.890587	 -1.292708	 0.022039

	symmetry c1
}
set optking {
	frozen_dihedral = ("
		5 3 4 7
	")
}

ee = optimize('scf')
oeprop('DIPOLE', 'QUADRUPOLE', 'MULLIKEN_CHARGES')
f=open( 'psi4out.xyz', 'w' )
f.write( "10  " )
f.write( str(ee) + "\n" )
f.write( MOL.save_string_xyz() )
f.close()
--------------------------------------------------------------------------

    Molecular point group: c1
  Charge       = 0
  Multiplicity = 1
  Basis Set: 6-31G*
  Basis Set:
  @DF-RHF Final Energy:  -228.91692210031781
    Total Energy =                       -228.9169221003178336
    Molecular point group: c1
  Basis Set: 6-31G*
  Basis Set:
  Basis Set: 6-31G*
  Basis Set:
  @DF-RHF Final Energy:  -228.91774259136005
    Total Energy =                       -228.9177425913600530
  Basis Set: 6-31G*
  Basis Set:
  Basis Set: 6-31G*
  Basis Set:
  @DF-RHF Final Energy:  -228.91791999238507
    Total Energy =                       -228.9179199923850661
  Basis Set: 6-31G*
  Basis Set:
  Basis Set: 6-31G*
  Basis Set:
  @DF-RHF Final Energy:  -228.91793844707200
    Total Energy =                       -228.9179384470720038
  Basis Set: 6-31G*
  Basis Set:
  @DF-RHF Final Energy:  -228.91794880290198
    Total Energy =                       -228.9179488029018898
  @DF-RHF Final Energy:  -228.91795923143269
    Total Energy =                       -228.9179592314326328
  @DF-RHF Final Energy:  -228.91797167790156
    Total Energy =                       -228.9179716779015052
  @DF-RHF Final Energy:  -228.91803228204290
    Total Energy =                       -228.9180322820429296
  @DF-RHF Final Energy:  -228.91822585377059
    Total Energy =                       -228.9182258537705081
  @DF-RHF Final Energy:  -228.92015519520197
    Total Energy =                       -228.9201551952019997
  @DF-RHF Final Energy:  -228.92412261312401
    Total Energy =                       -228.9241226131240410
  @DF-RHF Final Energy:  -228.92317014773852
    Total Energy =                       -228.9231701477385741
  @DF-RHF Final Energy:  -228.92133014698413
    Total Energy =                       -228.9213301469841895
  @DF-RHF Final Energy:  -228.92428592567182
    Total Energy =                       -228.9242859256717395
  @DF-RHF Final Energy:  -228.92252714164366
    Total Energy =                       -228.9225271416434850
  @DF-RHF Final Energy:  -228.92349889408871
    Total Energy =                       -228.9234988940886524
  @DF-RHF Final Energy:  -228.92451747276280
    Total Energy =                       -228.9245174727626875
  @DF-RHF Final Energy:  -228.92470325388746
    Total Energy =                       -228.9247032538874862
  Basis Set: 6-31G*
  Basis Set:
  @DF-RHF Final Energy:  -228.92475135530429
    Total Energy =                       -228.9247513553043518
  Basis Set: 6-31G*
  Basis Set:
  Basis Set: 6-31G*
  Basis Set:
  @DF-RHF Final Energy:  -228.92478714968982
    Total Energy =                       -228.9247871496899052
  Basis Set: 6-31G*
  Basis Set:
  Basis Set: 6-31G*
  Basis Set:
  @DF-RHF Final Energy:  -228.92479600348761
    Total Energy =                       -228.9247960034877281
  Basis Set: 6-31G*
  Basis Set:
  Charge       = 0
  Multiplicity = 1
  Basis Set: 6-31G*
  Basis Set:

    Orbital Energies (a.u.)
    -----------------------

    Doubly Occupied:

       1A    -20.571004     2A    -20.545246     3A    -11.278009
       4A    -11.268074     5A     -1.384161     6A     -1.348151
       7A     -1.001399     8A     -0.843472     9A     -0.728683
      10A     -0.678187    11A     -0.651404    12A     -0.600716
      13A     -0.575608    14A     -0.532334    15A     -0.488662
      16A     -0.455638    17A     -0.429584

  @DF-RHF Final Energy:  -228.92479608151240

   => Energetics <=

    Nuclear Repulsion Energy =            135.0274182538762489
    One-Electron Energy =                -581.1437616521050131
    Two-Electron Energy =                 217.1915473167164521
    DFT Exchange-Correlation Energy =       0.0000000000000000
    Empirical Dispersion Energy =           0.0000000000000000
    PCM Polarization Energy =               0.0000000000000000
    EFP Energy =                            0.0000000000000000
    Total Energy =                       -228.9247960815123122
    Molecular point group: c1
  Basis Set: 6-31G*
  Basis Set:

  -Total Gradient:
     Atom            X                  Y                   Z
    ------   -----------------  -----------------  -----------------
       1        0.000002584257    -0.000004325947     0.000001954081
       2       -0.000006517530    -0.000003431902     0.000001236886
       3        0.001557707751    -0.000478992706     0.003564887308
       4        0.001264907022    -0.001274047513     0.002704333163
       5       -0.001583280623     0.000686538252    -0.003570690767
       6       -0.000009255303     0.000000855047    -0.000015016327
       7       -0.001238631921     0.001078148602    -0.002680286424
       8       -0.000000413532    -0.000011804444    -0.000009130589
       9        0.000012485369     0.000013330194     0.000007132984
      10        0.000000414509    -0.000006269580    -0.000004420311

  **** Optimization is complete! (in 22 steps) ****
    Final optimized geometry and variables:
    Molecular point group: c1

    Geometry (in Angstrom), charge = 0, multiplicity = 1:

    H            1.607788759125     0.039717985414    -1.595708708370
    O            0.747738182202     0.102657475860    -1.206169770505
    C            0.850382672704     0.502706291238     0.141567835100
    C           -0.540912228405     0.372463812526     0.735573253038
    H            1.179632138752     1.537647381618     0.192952954054
    H            1.553224148451    -0.129214039326     0.676577829322
    O           -1.086863900532    -0.887389189172     0.487090298855
    H           -1.175892789022     1.152685976223     0.320224326696
    H           -0.502502975372     0.508573951769     1.808993949129
    H           -0.964889597510    -1.075649994280    -0.434695980517

  Mulliken Charges: (a.u.)
   Center  Symbol    Alpha    Beta     Spin     Total
       1     H     0.27569  0.27569  0.00000  0.44863
       2     O     4.38004  4.38004  0.00000 -0.76007
       3     C     3.01232  3.01232  0.00000 -0.02464
       4     C     2.99535  2.99535  0.00000  0.00929
       5     H     0.42709  0.42709  0.00000  0.14583
       6     H     0.42284  0.42284  0.00000  0.15431
       7     O     4.37457  4.37457  0.00000 -0.74914
       8     H     0.42536  0.42536  0.00000  0.14928
       9     H     0.41725  0.41725  0.00000  0.16550
      10     H     0.26949  0.26949  0.00000  0.46101

   Total alpha = 17.00000, Total beta = 17.00000, Total charge =  0.00000
