                              Psi4 1.0.54 Driver

  ==> Input File <==

--------------------------------------------------------------------------
set {
	reference rhf
	basis cc-pvtz
}

set_num_threads( 4 )
memory 2 gb

molecule MOL {
0 1

H	 2.342730	 0.877684	 -1.045694
C	 2.360424	 0.000000	 -0.411793
C	 1.173749	 0.000000	 0.526870
H	 3.286567	 0.000000	 0.151574
H	 2.342730	 -0.877684	 -1.045694
O	 0.000000	 0.000000	 -0.223739
H	 1.203779	 0.876757	 1.172538
H	 1.203779	 -0.876757	 1.172538
C	 -1.173749	 0.000000	 0.526870
C	 -2.264123	 0.692323	 -0.261204
H	 -1.010650	 0.511676	 1.474540
H	 -1.467987	 -1.022669	 0.759388
H	 -1.982199	 1.714221	 -0.481922
H	 -3.188626	 0.704109	 0.304726
H	 -2.440020	 0.178254	 -1.197829

	symmetry c1
}
set optking {
	frozen_dihedral = ("
		11 9 6 3
	")
}

ee,wfn = optimize('scf', return_wfn=True)
oeprop( wfn, 'DIPOLE', 'QUADRUPOLE', 'MULLIKEN_CHARGES')
f=open( 'psi4out.xyz', 'w' )
f.write( "15  " )
f.write( str(ee) + "\n" )
f.write( MOL.save_string_xyz() )
f.close()
--------------------------------------------------------------------------

    Molecular point group: c1
  Charge       = 0
  Multiplicity = 1
  Basis Set: CC-PVTZ
  Basis Set:
  @DF-RHF Final Energy:  -232.23182863243628
    Total Energy =                       -232.2318286324363044
    Molecular point group: c1
  Basis Set: CC-PVTZ
  Basis Set:
  Basis Set: CC-PVTZ
  Basis Set:
  @DF-RHF Final Energy:  -232.23192467093250
    Total Energy =                       -232.2319246709323579
  Basis Set: CC-PVTZ
  Basis Set:
  Basis Set: CC-PVTZ
  Basis Set:
  @DF-RHF Final Energy:  -232.23196030328731
    Total Energy =                       -232.2319603032872806
  Basis Set: CC-PVTZ
  Basis Set:
  Charge       = 0
  Multiplicity = 1
  Basis Set: CC-PVTZ
  Basis Set:

    Orbital Energies (a.u.)
    -----------------------

    Doubly Occupied:

       1A    -20.544008     2A    -11.266602     3A    -11.265974
       4A    -11.207402     5A    -11.207075     6A     -1.379378
       7A     -1.044756     8A     -0.983664     9A     -0.848494
      10A     -0.825888    11A     -0.676619    12A     -0.667792
      13A     -0.617315    14A     -0.589846    15A     -0.550058
      16A     -0.533592    17A     -0.522933    18A     -0.496778
      19A     -0.486609    20A     -0.466417    21A     -0.410672

  @DF-RHF Final Energy:  -232.23196068269124

   => Energetics <=

    Nuclear Repulsion Energy =            191.2845998488940609
    One-Electron Energy =                -693.8493804906454443
    Two-Electron Energy =                 270.3328199590600889
    DFT Exchange-Correlation Energy =       0.0000000000000000
    Empirical Dispersion Energy =           0.0000000000000000
    PCM Polarization Energy =               0.0000000000000000
    EFP Energy =                            0.0000000000000000
    Total Energy =                       -232.2319606826912946
    Molecular point group: c1
  Basis Set: CC-PVTZ
  Basis Set:

  -Total Gradient:
     Atom            X                  Y                   Z
    ------   -----------------  -----------------  -----------------
       1       -0.000000368924    -0.000005031222     0.000002360092
       2        0.000018857520     0.000008055552     0.000012019016
       3        0.000045766905     0.002290800356     0.000012160839
       4        0.000026108776     0.000002114594    -0.000005286605
       5       -0.000009371759     0.000007713639     0.000012856456
       6        0.000136809472    -0.003989936743     0.000303903968
       7       -0.000010095548    -0.000006914342    -0.000012086664
       8       -0.000005127037     0.000008506213    -0.000003656296
       9       -0.000924622437     0.004182524376    -0.001529327993
      10       -0.000017406455    -0.000012386132    -0.000005948107
      11        0.000734064816    -0.002479030950     0.001191639682
      12       -0.000006365381     0.000004725860    -0.000005803443
      13        0.000012031070    -0.000017485661     0.000010180771
      14        0.000000177426    -0.000003253415     0.000002984427
      15       -0.000000458445     0.000009597873     0.000014003856

  **** Optimization is complete! (in 4 steps) ****
    Final optimized geometry and variables:
    Molecular point group: c1

    Geometry (in Angstrom), charge = 0, multiplicity = 1:

    H            2.326291191578     0.721779690395    -1.085120427550
    C            2.344066305761    -0.150780959810    -0.444015601625
    C            1.162419365657    -0.137534818916     0.500799255961
    H            3.273284835918    -0.150020996092     0.114588671200
    H            2.319487464647    -1.033472742845    -1.070722843055
    O           -0.014463854764    -0.128069044797    -0.245519358073
    H            1.202191986173     0.741277697334     1.142223969081
    H            1.192084747584    -1.012413091801     1.149562914565
    C           -1.197977515911    -0.131021380087     0.494956858425
    C           -2.295559442842     0.539736879542    -0.301735454290
    H           -1.048200811979     0.370656802357     1.448430452591
    H           -1.478106938514    -1.157338726911     0.727937737074
    H           -2.045803684058     1.574716527110    -0.500208784017
    H           -3.232235118024     0.507593322314     0.243581524161
    H           -2.433619905433     0.036191348190    -1.250470233696

  Mulliken Charges: (a.u.)
   Center  Symbol    Alpha    Beta     Spin     Total
       1     H     0.45168  0.45168  0.00000  0.09664
       2     C     3.13620  3.13620  0.00000 -0.27241
       3     C     2.96557  2.96557  0.00000  0.06886
       4     H     0.45907  0.45907  0.00000  0.08187
       5     H     0.45145  0.45145  0.00000  0.09711
       6     O     4.18117  4.18117  0.00000 -0.36235
       7     H     0.47300  0.47300  0.00000  0.05399
       8     H     0.47389  0.47389  0.00000  0.05221
       9     C     2.96944  2.96944  0.00000  0.06113
      10     C     3.13427  3.13427  0.00000 -0.26854
      11     H     0.47417  0.47417  0.00000  0.05165
      12     H     0.46681  0.46681  0.00000  0.06638
      13     H     0.45358  0.45358  0.00000  0.09285
      14     H     0.45906  0.45906  0.00000  0.08188
      15     H     0.45064  0.45064  0.00000  0.09872

   Total alpha = 21.00000, Total beta = 21.00000, Total charge = -0.00000

*** Psi4 exiting successfully. Buy a developer a beer!
