  ==> Input File <==

--------------------------------------------------------------------------
set {
	reference rhf
	basis cc-pvtz
}

set_num_threads( 4 )
memory 2 gb

molecule MOL {
0 1

O	 1.275986	 1.135713	 0.690721
C	 0.860843	 0.273204	 -0.013120
C	 -0.623368	 -0.117453	 -0.005652
C	 1.809959	 -0.466221	 -0.935320
C	 -0.892588	 -1.253841	 -1.002900
C	 -1.473463	 1.100646	 -0.372896
C	 -0.981836	 -0.579025	 1.418506
H	 -0.609333	 -0.970024	 -2.010649
H	 -1.950451	 -1.487353	 -1.013175
H	 -0.360848	 -2.161259	 -0.746463
H	 -1.232203	 1.461623	 -1.364827
H	 -2.524364	 0.834451	 -0.354500
H	 -1.312381	 1.914833	 0.318657
H	 -2.035706	 -0.826342	 1.468082
H	 -0.425078	 -1.458934	 1.716857
H	 -0.788494	 0.205047	 2.140903
H	 1.699708	 -0.081041	 -1.942913
H	 2.822153	 -0.289451	 -0.605646
H	 1.612393	 -1.528793	 -0.969093

	symmetry c1
}
set optking {
	frozen_dihedral = ("
		1 2 3 5
	")
}

ee = optimize('scf')
oeprop('DIPOLE', 'QUADRUPOLE', 'MULLIKEN_CHARGES')
f=open( 'psi4out.xyz', 'w' )
f.write( "19  " )
f.write( str(ee) + "\n" )
f.write( MOL.save_string_xyz() )
f.close()
--------------------------------------------------------------------------

    Molecular point group: c1
  Charge       = 0
  Multiplicity = 1
  Basis Set: CC-PVTZ
  Basis Set:
  @DF-RHF Final Energy:  -309.17073117854358
    Total Energy =                       -309.1707311785435763
    Molecular point group: c1
  Basis Set: CC-PVTZ
  Basis Set:
  Basis Set: CC-PVTZ
  Basis Set:
  @DF-RHF Final Energy:  -309.17135831661477
    Total Energy =                       -309.1713583166150556
  Basis Set: CC-PVTZ
  Basis Set:
  Basis Set: CC-PVTZ
  Basis Set:
  @DF-RHF Final Energy:  -309.17256206705554
    Total Energy =                       -309.1725620670550825
  Basis Set: CC-PVTZ
  Basis Set:
  Basis Set: CC-PVTZ
  Basis Set:
  @DF-RHF Final Energy:  -309.17274401974998
    Total Energy =                       -309.1727440197503824
  Basis Set: CC-PVTZ
  Basis Set:
  @DF-RHF Final Energy:  -309.17274868360681
    Total Energy =                       -309.1727486836066987
  @DF-RHF Final Energy:  -309.17281726608263
    Total Energy =                       -309.1728172660822338
  @DF-RHF Final Energy:  -309.17284443234831
    Total Energy =                       -309.1728444323482563
  @DF-RHF Final Energy:  -309.17289146048017
    Total Energy =                       -309.1728914604800593
  @DF-RHF Final Energy:  -309.17291870352960
    Total Energy =                       -309.1729187035293194
  @DF-RHF Final Energy:  -309.17288077748640
    Total Energy =                       -309.1728807774867960
  @DF-RHF Final Energy:  -309.17289425090553
    Total Energy =                       -309.1728942509051876
  Basis Set: CC-PVTZ
  Basis Set:
  @DF-RHF Final Energy:  -309.17292067762810
    Total Energy =                       -309.1729206776279284
  Basis Set: CC-PVTZ
  Basis Set:
  Basis Set: CC-PVTZ
  Basis Set:
  @DF-RHF Final Energy:  -309.17293169371084
    Total Energy =                       -309.1729316937104954
  Basis Set: CC-PVTZ
  Basis Set:
  Basis Set: CC-PVTZ
  Basis Set:
  @DF-RHF Final Energy:  -309.17292934100021
    Total Energy =                       -309.1729293410000423
  Basis Set: CC-PVTZ
  Basis Set:
  Charge       = 0
  Multiplicity = 1
  Basis Set: CC-PVTZ
  Basis Set:

    Orbital Energies (a.u.)
    -----------------------

    Doubly Occupied:

       1A    -20.536261     2A    -11.318594     3A    -11.245468
       4A    -11.226187     5A    -11.219758     6A    -11.214194
       7A    -11.214179     8A     -1.398304     9A     -1.108770
      10A     -1.004887    11A     -0.941788    12A     -0.940436
      13A     -0.833847    14A     -0.705726    15A     -0.666846
      16A     -0.633511    17A     -0.624324    18A     -0.588210
      19A     -0.585679    20A     -0.574321    21A     -0.553334
      22A     -0.546770    23A     -0.522902    24A     -0.515380
      25A     -0.502945    26A     -0.472638    27A     -0.462317
      28A     -0.393772

  @DF-RHF Final Energy:  -309.17293263029296

   => Energetics <=

    Nuclear Repulsion Energy =            326.7618800700679458
    One-Electron Energy =               -1066.7669235971652597
    Two-Electron Energy =                 430.8321108968045792
    DFT Exchange-Correlation Energy =       0.0000000000000000
    Empirical Dispersion Energy =           0.0000000000000000
    PCM Polarization Energy =               0.0000000000000000
    EFP Energy =                            0.0000000000000000
    Total Energy =                       -309.1729326302927348
    Molecular point group: c1
  Basis Set: CC-PVTZ
  Basis Set:

  -Total Gradient:
     Atom            X                  Y                   Z
    ------   -----------------  -----------------  -----------------
       1       -0.000007328884     0.000001633735     0.000006807396
       2        0.000007489887     0.000000241001    -0.000002310762
       3       -0.000002208125     0.000002531045     0.000012237650
       4       -0.000004038273     0.000000404930    -0.000015142022
       5        0.000003638362     0.000003450359    -0.000000303497
       6       -0.000004010892     0.000002339423    -0.000008855364
       7        0.000003174910    -0.000004983113    -0.000006281132
       8       -0.000000073375     0.000001007914     0.000000362269
       9        0.000001241868     0.000001253451     0.000001777687
      10        0.000001402122    -0.000000244073     0.000001736564
      11       -0.000001650956     0.000001633580     0.000000921034
      12       -0.000001640253     0.000000982695     0.000000162761
      13        0.000001161336    -0.000002029207    -0.000000671230
      14        0.000000787570     0.000000519197     0.000002263919
      15       -0.000003251916    -0.000000487162     0.000003837406
      16        0.000000106485    -0.000001326074     0.000000835789
      17        0.000006872271    -0.000003583653    -0.000002071190
      18       -0.000001783357    -0.000003031836     0.000002649202
      19        0.000000111222    -0.000000312209     0.000002043519

  **** Optimization is complete! (in 15 steps) ****
    Final optimized geometry and variables:
    Molecular point group: c1

    Geometry (in Angstrom), charge = 0, multiplicity = 1:

    O            1.242006587336     1.100081036553     0.767196136332
    C            0.871548905420     0.246945270557     0.026996332977
    C           -0.617772401047    -0.146961315431     0.008174865714
    C            1.859608072795    -0.442691069675    -0.886609700253
    C           -0.948103892640    -1.258580851151    -0.993625715434
    C           -1.419369030150     1.114691149286    -0.346619596768
    C           -0.985188619971    -0.611536477173     1.425686119150
    H           -0.720319856032    -0.971285539057    -2.013039662756
    H           -2.007747228467    -1.479964271196    -0.949646896690
    H           -0.417012010121    -2.177151096225    -0.774992052349
    H           -1.171909984615     1.472431377017    -1.340798343477
    H           -2.481260016146     0.897353552267    -0.328303947771
    H           -1.216084350010     1.909172140969     0.356748044482
    H           -2.039752765270    -0.857983439967     1.474039325881
    H           -0.425136798605    -1.497137379209     1.707929596888
    H           -0.776769113987     0.162857447878     2.149654399920
    H            1.579727753637    -0.309416543155    -1.924686592020
    H            2.839623863883    -0.024164600579    -0.718729128572
    H            1.880953183710    -1.508511009366    -0.693530845784

  Mulliken Charges: (a.u.)
   Center  Symbol    Alpha    Beta     Spin     Total
       1     O     4.18176  4.18176  0.00000 -0.36353
       2     C     2.84554  2.84554  0.00000  0.30891
       3     C     3.00574  3.00574  0.00000 -0.01148
       4     C     3.16195  3.16195  0.00000 -0.32390
       5     C     3.16525  3.16525  0.00000 -0.33049
       6     C     3.15345  3.15345  0.00000 -0.30690
       7     C     3.15345  3.15345  0.00000 -0.30691
       8     H     0.44583  0.44583  0.00000  0.10833
       9     H     0.44246  0.44246  0.00000  0.11508
      10     H     0.44583  0.44583  0.00000  0.10833
      11     H     0.45024  0.45024  0.00000  0.09952
      12     H     0.45010  0.45010  0.00000  0.09981
      13     H     0.43576  0.43576  0.00000  0.12847
      14     H     0.45010  0.45010  0.00000  0.09981
      15     H     0.45024  0.45024  0.00000  0.09952
      16     H     0.43576  0.43576  0.00000  0.12847
      17     H     0.44743  0.44743  0.00000  0.10515
      18     H     0.43167  0.43167  0.00000  0.13666
      19     H     0.44744  0.44744  0.00000  0.10513

   Total alpha = 28.00000, Total beta = 28.00000, Total charge = -0.00000
