  ==> Input File <==

--------------------------------------------------------------------------
set {
	reference rhf
	basis cc-pvtz
}

set_num_threads( 4 )
memory 2 gb

molecule MOL {
0 1

H	 -0.090691	 3.910894	 1.306571
O	 -0.183243	 3.763519	 0.383199
C	 -0.166196	 2.390893	 0.107978
C	 1.229227	 1.814352	 0.242839
H	 -0.848674	 1.846143	 0.752648
H	 -0.509039	 2.268893	 -0.909498
O	 1.172093	 0.457955	 -0.054438
H	 1.598983	 1.968248	 1.257971
H	 1.904504	 2.335039	 -0.432779
C	 2.395478	 -0.199028	 -0.000366
H	 2.505946	 -0.901710	 -0.823354
H	 3.174616	 0.545641	 -0.071768
H	 2.513730	 -0.742241	 0.934223

	symmetry c1
}
set optking {
	frozen_dihedral = ("
		4 7 10 13
	")
}

ee = optimize('scf')
oeprop('DIPOLE', 'QUADRUPOLE', 'MULLIKEN_CHARGES')
f=open( 'psi4out.xyz', 'w' )
f.write( "13  " )
f.write( str(ee) + "\n" )
f.write( MOL.save_string_xyz() )
f.close()
--------------------------------------------------------------------------

    Molecular point group: c1
  Charge       = 0
  Multiplicity = 1
  Basis Set: CC-PVTZ
  Basis Set:
  @DF-RHF Final Energy:  -268.05854055256339
    Total Energy =                       -268.0585405525634997
    Molecular point group: c1
  Basis Set: CC-PVTZ
  Basis Set:
  Basis Set: CC-PVTZ
  Basis Set:
  @DF-RHF Final Energy:  -268.05944218658851
    Total Energy =                       -268.0594421865882282
  Basis Set: CC-PVTZ
  Basis Set:
  Basis Set: CC-PVTZ
  Basis Set:
  @DF-RHF Final Energy:  -268.05968278942441
    Total Energy =                       -268.0596827894243006
  Basis Set: CC-PVTZ
  Basis Set:
  Charge       = 0
  Multiplicity = 1
  Basis Set: CC-PVTZ
  Basis Set:

    Orbital Energies (a.u.)
    -----------------------

    Doubly Occupied:

       1A    -20.553504     2A    -20.552602     3A    -11.269621
       4A    -11.267357     5A    -11.267044     6A     -1.388812
       7A     -1.368617     8A     -1.019567     9A     -0.914167
      10A     -0.842438    11A     -0.711565    12A     -0.674123
      13A     -0.660694    14A     -0.639597    15A     -0.597102
      16A     -0.571321    17A     -0.548837    18A     -0.491767
      19A     -0.483093    20A     -0.441236    21A     -0.420411

  @DF-RHF Final Energy:  -268.05968444531175

   => Energetics <=

    Nuclear Repulsion Energy =            190.2495906641379122
    One-Electron Energy =                -743.2516013893207401
    Two-Electron Energy =                 284.9423262798709402
    DFT Exchange-Correlation Energy =       0.0000000000000000
    Empirical Dispersion Energy =           0.0000000000000000
    PCM Polarization Energy =               0.0000000000000000
    EFP Energy =                            0.0000000000000000
    Total Energy =                       -268.0596844453118592
    Molecular point group: c1
  Basis Set: CC-PVTZ
  Basis Set:

  -Total Gradient:
     Atom            X                  Y                   Z
    ------   -----------------  -----------------  -----------------
       1       -0.000000434121     0.000001879501    -0.000000627405
       2        0.000011967657     0.000004294146    -0.000002171711
       3       -0.000012250178    -0.000022579786    -0.000005186538
       4        0.000361224559     0.000461764615    -0.001938471640
       5        0.000000535751    -0.000002367222    -0.000003136582
       6       -0.000008553328    -0.000000826372     0.000000325835
       7       -0.000699835386    -0.001320894575     0.002617911434
       8       -0.000004204965    -0.000007170374    -0.000015496802
       9        0.000003941157    -0.000024815586    -0.000011027495
      10        0.001493037921     0.002934795087     0.000434297873
      11       -0.000014564951    -0.000022813898     0.000006434092
      12        0.000048736395     0.000008748186     0.000004424844
      13       -0.001179600511    -0.002010013723    -0.001087275903

  **** Optimization is complete! (in 4 steps) ****
    Final optimized geometry and variables:
    Molecular point group: c1

    Geometry (in Angstrom), charge = 0, multiplicity = 1:

    H           -1.012112150763     2.237538603131     1.152404836760
    O           -1.096747142402     2.088021639417     0.228611503761
    C           -1.060675696792     0.715223918916    -0.044599810118
    C            0.340982543893     0.156950116569     0.100768771394
    H           -1.741134153318     0.162892302860     0.595692702353
    H           -1.394219834604     0.587295732766    -1.064469343634
    O            0.300817813897    -1.198837063981    -0.205171324707
    H            0.697500874533     0.315050030140     1.119982115571
    H            1.014006214727     0.688219476341    -0.567675311451
    C            1.520509764833    -1.871740215147    -0.153687080776
    H            1.552020368396    -2.585854461815    -0.966287726544
    H            2.362265235089    -1.195291178399    -0.258878840744
    H            1.618463275640    -2.420191723292     0.778350458430

  Mulliken Charges: (a.u.)
   Center  Symbol    Alpha    Beta     Spin     Total
       1     H     0.39420  0.39420  0.00000  0.21160
       2     O     4.20210  4.20210  0.00000 -0.40420
       3     C     2.97468  2.97468  0.00000  0.05064
       4     C     2.96516  2.96516  0.00000  0.06968
       5     H     0.46671  0.46671  0.00000  0.06658
       6     H     0.45295  0.45295  0.00000  0.09410
       7     O     4.17908  4.17908  0.00000 -0.35815
       8     H     0.48250  0.48250  0.00000  0.03499
       9     H     0.46871  0.46871  0.00000  0.06258
      10     C     3.02891  3.02891  0.00000 -0.05783
      11     H     0.45148  0.45148  0.00000  0.09703
      12     H     0.47138  0.47138  0.00000  0.05724
      13     H     0.46214  0.46214  0.00000  0.07572

   Total alpha = 21.00000, Total beta = 21.00000, Total charge = -0.00000
