                              Psi4 1.0.54 Driver

  ==> Input File <==

--------------------------------------------------------------------------
set {
	reference rhf
	basis cc-pvtz
}

set_num_threads( 4 )
memory 2 gb

molecule MOL {
0 1

H	 -2.487165	 0.792339	 -1.728619
C	 -1.804053	 -0.052140	 -1.672957
O	 -1.401606	 -0.295183	 -0.366624
H	 -2.312737	 -0.934904	 -2.031924
H	 -0.954141	 0.149773	 -2.322392
C	 -0.718530	 0.758693	 0.228682
C	 0.718529	 0.758687	 -0.228709
H	 -1.176498	 1.708665	 -0.046615
H	 -0.748705	 0.673525	 1.312779
O	 1.401606	 -0.295166	 0.366636
H	 0.748705	 0.673477	 -1.312803
H	 1.176496	 1.708671	 0.046552
C	 2.714315	 -0.441627	 -0.061017
H	 2.765292	 -0.641548	 -1.128869
H	 3.305661	 0.447341	 0.150952
H	 3.143725	 -1.278506	 0.470147

	symmetry c1
}
set optking {
	frozen_dihedral = ("
		2 3 6 7
	")
}

ee,wfn = optimize('scf', return_wfn=True)
oeprop( wfn, 'DIPOLE', 'QUADRUPOLE', 'MULLIKEN_CHARGES')
f=open( 'psi4out.xyz', 'w' )
f.write( "16  " )
f.write( str(ee) + "\n" )
f.write( MOL.save_string_xyz() )
f.close()
--------------------------------------------------------------------------

    Molecular point group: c1
  Charge       = 0
  Multiplicity = 1
  Basis Set: CC-PVTZ
  Basis Set:
  @DF-RHF Final Energy:  -307.09252399997752
    Total Energy =                       -307.0925239999775158
    Molecular point group: c1
  Basis Set: CC-PVTZ
  Basis Set:
  Basis Set: CC-PVTZ
  Basis Set:
  @DF-RHF Final Energy:  -306.99075468187624
    Total Energy =                       -306.9907546818763535
  Basis Set: CC-PVTZ
  Basis Set:
  Basis Set: CC-PVTZ
  Basis Set:
  @DF-RHF Final Energy:  -307.07762676587049
    Total Energy =                       -307.0776267658703205
  Basis Set: CC-PVTZ
  Basis Set:
  Basis Set: CC-PVTZ
  Basis Set:
  @DF-RHF Final Energy:  -307.09407229665015
    Total Energy =                       -307.0940722966505518
  Basis Set: CC-PVTZ
  Basis Set:
  Basis Set: CC-PVTZ
  Basis Set:
  @DF-RHF Final Energy:  -307.09478694370233
    Total Energy =                       -307.0947869437022746
  Basis Set: CC-PVTZ
  Basis Set:
  Basis Set: CC-PVTZ
  Basis Set:
  @DF-RHF Final Energy:  -307.09486297449354
    Total Energy =                       -307.0948629744934806
  Basis Set: CC-PVTZ
  Basis Set:
  Basis Set: CC-PVTZ
  Basis Set:
  @DF-RHF Final Energy:  -307.09486866741889
    Total Energy =                       -307.0948686674191208
  Basis Set: CC-PVTZ
  Basis Set:
  Charge       = 0
  Multiplicity = 1
  Basis Set: CC-PVTZ
  Basis Set:

    Orbital Energies (a.u.)
    -----------------------

    Doubly Occupied:

       1A    -20.550128     2A    -20.546976     3A    -11.269222
       4A    -11.267490     5A    -11.263935     6A    -11.262438
       7A     -1.391953     8A     -1.374233     9A     -1.029357
      10A     -0.945198    11A     -0.898860    12A     -0.817864
      13A     -0.690300    14A     -0.681461    15A     -0.661223
      16A     -0.639916    17A     -0.629516    18A     -0.602563
      19A     -0.555589    20A     -0.528329    21A     -0.517395
      22A     -0.489413    23A     -0.463479    24A     -0.421409
      25A     -0.412301

  @DF-RHF Final Energy:  -307.09486907150728

   => Energetics <=

    Nuclear Repulsion Energy =            261.2622623033536797
    One-Electron Energy =                -936.8931651109178347
    Two-Electron Energy =                 368.5360337360569929
    DFT Exchange-Correlation Energy =       0.0000000000000000
    Empirical Dispersion Energy =           0.0000000000000000
    PCM Polarization Energy =               0.0000000000000000
    EFP Energy =                            0.0000000000000000
    Total Energy =                       -307.0948690715071052
    Molecular point group: c1
  Basis Set: CC-PVTZ
  Basis Set:

  -Total Gradient:
     Atom            X                  Y                   Z
    ------   -----------------  -----------------  -----------------
       1        0.000005685605     0.000004496944     0.000003212353
       2       -0.000026987463    -0.000006013064     0.000040714256
       3        0.000039147797    -0.000031054449    -0.000047593505
       4       -0.000005763129    -0.000006522765    -0.000016578644
       5       -0.000004887915     0.000009519625     0.000007110402
       6       -0.000018011608     0.000042948804     0.000004214189
       7        0.000017516499     0.000030616087    -0.000025239265
       8        0.000009064455    -0.000007842274     0.000000109975
       9        0.000011719161     0.000002548605    -0.000007525458
      10       -0.000016669729    -0.000034180947     0.000049565701
      11       -0.000001127842    -0.000002693003     0.000013768454
      12       -0.000017570863    -0.000004924169    -0.000000691587
      13        0.000001017471    -0.000000298291    -0.000032720517
      14        0.000010056376    -0.000002573362     0.000008591052
      15        0.000003025604    -0.000001188742     0.000005019626
      16       -0.000006214420     0.000007161000    -0.000001957031

  **** Optimization is complete! (in 8 steps) ****
    Final optimized geometry and variables:
    Molecular point group: c1

    Geometry (in Angstrom), charge = 0, multiplicity = 1:

    H           -2.444633409521     0.785501213460    -1.715550807875
    C           -2.082375383372    -0.138381539814    -1.268905027838
    O           -1.631786515798     0.069482372246     0.028942562248
    H           -2.899988669646    -0.842702335874    -1.219558755469
    H           -1.313312965286    -0.553688276191    -1.913933500788
    C           -0.631207843767     1.024484016832     0.185784382187
    C            0.761394195747     0.533867901061    -0.153717542804
    H           -0.846822917748     1.904968604009    -0.418331901067
    H           -0.646482465852     1.319277027464     1.226187695278
    O            1.149126462620    -0.438873506156     0.758645196634
    H            0.796855501587     0.139354769873    -1.167670307406
    H            1.441910397049     1.385314605285    -0.115414399939
    C            2.401702689062    -0.987126724669     0.517763941623
    H            2.442947904416    -1.477140680291    -0.452748974256
    H            3.183142273532    -0.230452555411     0.553466798190
    H            2.594267540320    -1.721722244611     1.285858749399

  Mulliken Charges: (a.u.)
   Center  Symbol    Alpha    Beta     Spin     Total
       1     H     0.47220  0.47220  0.00000  0.05560
       2     C     3.03292  3.03292  0.00000 -0.06583
       3     O     4.17356  4.17356  0.00000 -0.34712
       4     H     0.44483  0.44483  0.00000  0.11033
       5     H     0.47192  0.47192  0.00000  0.05615
       6     C     2.97518  2.97518  0.00000  0.04964
       7     C     2.96934  2.96934  0.00000  0.06132
       8     H     0.47288  0.47288  0.00000  0.05425
       9     H     0.44938  0.44938  0.00000  0.10124
      10     O     4.16785  4.16785  0.00000 -0.33570
      11     H     0.47635  0.47635  0.00000  0.04731
      12     H     0.47159  0.47159  0.00000  0.05683
      13     C     3.03152  3.03152  0.00000 -0.06303
      14     H     0.47217  0.47217  0.00000  0.05566
      15     H     0.47260  0.47260  0.00000  0.05480
      16     H     0.44572  0.44572  0.00000  0.10857

   Total alpha = 25.00000, Total beta = 25.00000, Total charge = -0.00000

*** Psi4 exiting successfully. Buy a developer a beer!
