  ==> Input File <==

--------------------------------------------------------------------------
set {
	reference rhf
	basis cc-pvtz
}

set_num_threads( 4 )
memory 2 gb

molecule MOL {
0 1

O	 -0.294688	 1.318815	 -0.000872
C	 -0.448732	 0.145721	 -0.000187
C	 -1.780748	 -0.548101	 0.000195
O	 0.550743	 -0.719877	 0.000412
H	 -1.859389	 -1.183260	 -0.872613
H	 -2.570236	 0.185547	 -0.001342
H	 -1.860233	 -1.180337	 0.875064
C	 0.410294	 -1.872215	 -0.806717
H	 -0.446485	 -2.451801	 -0.496814
H	 1.314820	 -2.442367	 -0.670916
H	 0.294012	 -1.598036	 -1.844660

	symmetry c1
}
set optking {
	frozen_dihedral = ("
		8 4 2 1
	")
}

ee = optimize('scf')
oeprop('DIPOLE', 'QUADRUPOLE', 'MULLIKEN_CHARGES')
f=open( 'psi4out.xyz', 'w' )
f.write( "11  " )
f.write( str(ee) + "\n" )
f.write( MOL.save_string_xyz() )
f.close()
--------------------------------------------------------------------------

    Molecular point group: c1
  Charge       = 0
  Multiplicity = 1
  Basis Set: CC-PVTZ
  Basis Set:
  @DF-RHF Final Energy:  -266.91581169814003
    Total Energy =                       -266.9158116981400326
    Molecular point group: c1
  Basis Set: CC-PVTZ
  Basis Set:
  Basis Set: CC-PVTZ
  Basis Set:
  @DF-RHF Final Energy:  -266.91668268074181
    Total Energy =                       -266.9166826807418715
  Basis Set: CC-PVTZ
  Basis Set:
  Basis Set: CC-PVTZ
  Basis Set:
  @DF-RHF Final Energy:  -266.92110992746223
    Total Energy =                       -266.9211099274621120
  Basis Set: CC-PVTZ
  Basis Set:
  Basis Set: CC-PVTZ
  Basis Set:
  @DF-RHF Final Energy:  -266.92148706187982
    Total Energy =                       -266.9214870618799296
  Basis Set: CC-PVTZ
  Basis Set:
  @DF-RHF Final Energy:  -266.92214140990359
    Total Energy =                       -266.9221414099034746
  @DF-RHF Final Energy:  -266.92230647502868
    Total Energy =                       -266.9223064750287904
  Basis Set: CC-PVTZ
  Basis Set:
  @DF-RHF Final Energy:  -266.92233393978438
    Total Energy =                       -266.9223339397844370
  Basis Set: CC-PVTZ
  Basis Set:
  Basis Set: CC-PVTZ
  Basis Set:
  @DF-RHF Final Energy:  -266.92234415260702
    Total Energy =                       -266.9223441526071952
  Basis Set: CC-PVTZ
  Basis Set:
  Basis Set: CC-PVTZ
  Basis Set:
  @DF-RHF Final Energy:  -266.92234722884592
    Total Energy =                       -266.9223472288460925
  Basis Set: CC-PVTZ
  Basis Set:
  Charge       = 0
  Multiplicity = 1
  Basis Set: CC-PVTZ
  Basis Set:

    Orbital Energies (a.u.)
    -----------------------

    Doubly Occupied:

       1A    -20.591122     2A    -20.536906     3A    -11.371320
       4A    -11.294908     5A    -11.241542     6A     -1.466482
       7A     -1.372005     8A     -1.023443     9A     -0.980639
      10A     -0.784013    11A     -0.699252    12A     -0.687536
      13A     -0.679979    14A     -0.612192    15A     -0.593131
      16A     -0.579351    17A     -0.547410    18A     -0.507514
      19A     -0.459527    20A     -0.441546

  @DF-RHF Final Energy:  -266.92234736807848

   => Energetics <=

    Nuclear Repulsion Energy =            183.1652259748174458
    One-Electron Energy =                -727.2355120674146747
    Two-Electron Energy =                 277.1479387245187809
    DFT Exchange-Correlation Energy =       0.0000000000000000
    Empirical Dispersion Energy =           0.0000000000000000
    PCM Polarization Energy =               0.0000000000000000
    EFP Energy =                            0.0000000000000000
    Total Energy =                       -266.9223473680784764
    Molecular point group: c1
  Basis Set: CC-PVTZ
  Basis Set:

  -Total Gradient:
     Atom            X                  Y                   Z
    ------   -----------------  -----------------  -----------------
       1       -0.000008858422    -0.000070975238    -0.003921319335
       2        0.000663183565     0.001005538990     0.004238034247
       3        0.000004554623    -0.000012245278     0.000032124592
       4       -0.002017960153    -0.002540323682     0.002216972784
       5        0.000004616035     0.000008428618    -0.000003702042
       6       -0.000003220345     0.000000641588     0.000000107889
       7       -0.000000599960     0.000006046150    -0.000005568732
       8        0.001355875310     0.001596774969    -0.002563662611
       9        0.000004415039    -0.000003188907    -0.000004814788
      10       -0.000000103406    -0.000001343336     0.000002536292
      11       -0.000001902286     0.000010646129     0.000009291703

  **** Optimization is complete! (in 10 steps) ****
    Final optimized geometry and variables:
    Molecular point group: c1

    Geometry (in Angstrom), charge = 0, multiplicity = 1:

    O            0.029082808913     1.646394051713     0.149086860449
    C           -0.170855192374     0.486829055190     0.157850353103
    C           -1.554929715121    -0.111735499056     0.190803920763
    O            0.856981677541    -0.369032539220     0.161034887547
    H           -1.788948811063    -0.577678634641    -0.758686277201
    H           -2.264995440439     0.676491712311     0.378310660665
    H           -1.625876880091    -0.868419649029     0.961528352663
    C            0.813557488555    -1.545903435221    -0.608031616092
    H            0.067784766907    -2.241546520608    -0.245142857946
    H            1.787094534730    -1.999233197807    -0.518947612573
    H            0.624191026667    -1.321635220422    -1.650557877777

  Mulliken Charges: (a.u.)
   Center  Symbol    Alpha    Beta     Spin     Total
       1     O     4.17249  4.17249  0.00000 -0.34497
       2     C     2.80967  2.80967  0.00000  0.38066
       3     C     3.16304  3.16304  0.00000 -0.32608
       4     O     4.13820  4.13820  0.00000 -0.27640
       5     H     0.44841  0.44841  0.00000  0.10317
       6     H     0.42812  0.42812  0.00000  0.14375
       7     H     0.44324  0.44324  0.00000  0.11351
       8     C     3.04265  3.04265  0.00000 -0.08530
       9     H     0.46173  0.46173  0.00000  0.07654
      10     H     0.43496  0.43496  0.00000  0.13008
      11     H     0.45748  0.45748  0.00000  0.08504

   Total alpha = 20.00000, Total beta = 20.00000, Total charge =  0.00000
