                              Psi4 1.0.54 Driver

  ==> Input File <==

--------------------------------------------------------------------------
set {
	reference rhf
	basis cc-pvtz
}

set_num_threads( 4 )
memory 2 gb

molecule MOL {
0 1

H	 3.205822	 -0.639920	 -0.973023
N	 3.091268	 -0.241216	 -0.065538
C	 1.860978	 0.530248	 0.016256
H	 3.886954	 0.337923	 0.104256
C	 0.644130	 -0.381765	 -0.031064
H	 1.835721	 1.204666	 -0.833114
H	 1.808789	 1.151975	 0.911067
C	 -0.678115	 0.376691	 0.025731
H	 0.693998	 -0.977147	 -0.936845
H	 0.693309	 -1.082142	 0.800523
C	 -1.900706	 -0.535531	 -0.022488
H	 -0.725296	 1.079516	 -0.802982
H	 -0.715474	 0.974884	 0.933278
C	 -3.220513	 0.226854	 0.028039
H	 -1.865036	 -1.134397	 -0.928236
H	 -1.857948	 -1.236381	 0.806820
H	 -3.309098	 0.911849	 -0.808725
H	 -4.066838	 -0.449485	 -0.008086
H	 -3.301685	 0.809374	 0.939860

	symmetry c1
}
set optking {
	frozen_dihedral = ("
		1 2 3 6
	")
}

ee,wfn = optimize('scf', return_wfn=True)
oeprop( wfn, 'DIPOLE', 'QUADRUPOLE', 'MULLIKEN_CHARGES')
f=open( 'psi4out.xyz', 'w' )
f.write( "19  " )
f.write( str(ee) + "\n" )
f.write( MOL.save_string_xyz() )
f.close()
--------------------------------------------------------------------------

    Molecular point group: c1
  Charge       = 0
  Multiplicity = 1
  Basis Set: CC-PVTZ
  Basis Set:
  @DF-RHF Final Energy:  -251.44610376784095
    Total Energy =                       -251.4461037678408957
    Molecular point group: c1
  Basis Set: CC-PVTZ
  Basis Set:
  Basis Set: CC-PVTZ
  Basis Set:
  @DF-RHF Final Energy:  -251.44773166728248
    Total Energy =                       -251.4477316672823690
  Basis Set: CC-PVTZ
  Basis Set:
  Basis Set: CC-PVTZ
  Basis Set:
  @DF-RHF Final Energy:  -251.44798371057402
    Total Energy =                       -251.4479837105740785
  Basis Set: CC-PVTZ
  Basis Set:
  Basis Set: CC-PVTZ
  Basis Set:
  @DF-RHF Final Energy:  -251.44798733695205
    Total Energy =                       -251.4479873369519964
  Basis Set: CC-PVTZ
  Basis Set:
  Charge       = 0
  Multiplicity = 1
  Basis Set: CC-PVTZ
  Basis Set:

    Orbital Energies (a.u.)
    -----------------------

    Doubly Occupied:

       1A    -15.526898     2A    -11.238187     3A    -11.211436
       4A    -11.209883     5A    -11.206326     6A    -11.205145
       7A     -1.178198     8A     -1.073815     9A     -0.999324
      10A     -0.900876    11A     -0.812554    12A     -0.788713
      13A     -0.668615    14A     -0.641017    15A     -0.617826
      16A     -0.587777    17A     -0.565865    18A     -0.550550
      19A     -0.528196    20A     -0.499732    21A     -0.479255
      22A     -0.464539    23A     -0.460790    24A     -0.451908
      25A     -0.384255

  @DF-RHF Final Energy:  -251.44798791290361

   => Energetics <=

    Nuclear Repulsion Energy =            245.9691190085782182
    One-Electron Energy =                -826.3308573446926175
    Two-Electron Energy =                 328.9137504232106721
    DFT Exchange-Correlation Energy =       0.0000000000000000
    Empirical Dispersion Energy =           0.0000000000000000
    PCM Polarization Energy =               0.0000000000000000
    EFP Energy =                            0.0000000000000000
    Total Energy =                       -251.4479879129037272
    Molecular point group: c1
  Basis Set: CC-PVTZ
  Basis Set:

  -Total Gradient:
     Atom            X                  Y                   Z
    ------   -----------------  -----------------  -----------------
       1        0.000566777533     0.000961986190    -0.000372271282
       2       -0.000864690977    -0.001418579342     0.000295242323
       3        0.000816745007     0.001178767577     0.000611144162
       4        0.000021282275     0.000007466952    -0.000000864764
       5        0.000012531467     0.000021740158     0.000020299097
       6       -0.000547738666    -0.000751532056    -0.000573759225
       7       -0.000014642954    -0.000016435089     0.000008025668
       8        0.000003628396    -0.000001009189     0.000008299413
       9        0.000017735168     0.000017620387     0.000003262663
      10        0.000002230448     0.000001857450     0.000007691296
      11       -0.000004851177     0.000009735833    -0.000012580888
      12        0.000002410353    -0.000003265903     0.000002603286
      13        0.000000796340    -0.000001398197     0.000001951601
      14       -0.000006676623    -0.000009149579     0.000005077324
      15        0.000000191108    -0.000003616919    -0.000002835277
      16       -0.000003502086     0.000006409790    -0.000000680077
      17        0.000002529521    -0.000002946698    -0.000001020309
      18       -0.000006262910     0.000001382571     0.000001922964
      19        0.000001507774     0.000000966066    -0.000001507975

  **** Optimization is complete! (in 5 steps) ****
    Final optimized geometry and variables:
    Molecular point group: c1

    Geometry (in Angstrom), charge = 0, multiplicity = 1:

    H            3.130997162785    -0.670734360738    -1.231419402718
    N            3.073629091099    -0.280506212628    -0.313864544851
    C            1.859677253030     0.507881163307    -0.161265222727
    H            3.884536031052     0.288609331598    -0.193113319747
    C            0.634093531996    -0.391009263547    -0.079668184767
    H            1.718414946479     1.226262551158    -0.969578630723
    H            1.946486868515     1.079050415854     0.756570046840
    C           -0.668970749533     0.383048993096     0.092431309885
    H            0.578401731400    -0.995330500981    -0.982850141302
    H            0.768862021747    -1.083939670293     0.744253805194
    C           -1.899578143573    -0.515694970068     0.176201550675
    H           -0.791262123818     1.077988545671    -0.735298904157
    H           -0.610236538113     0.991041402409     0.992513953539
    C           -3.199802971045     0.261754882038     0.351110268090
    H           -1.961545940364    -1.123051319907    -0.722693010946
    H           -1.780554964890    -1.209370906184     1.003777775278
    H           -3.365174788048     0.940174598997    -0.479408288723
    H           -4.052370930521    -0.405385888795     0.407231774672
    H           -3.182756742888     0.853286069364     1.260535812249

  Mulliken Charges: (a.u.)
   Center  Symbol    Alpha    Beta     Spin     Total
       1     H     0.43118  0.43118  0.00000  0.13765
       2     N     3.68877  3.68877  0.00000 -0.37753
       3     C     3.03096  3.03096  0.00000 -0.06191
       4     H     0.42978  0.42978  0.00000  0.14043
       5     C     3.07808  3.07808  0.00000 -0.15615
       6     H     0.46752  0.46752  0.00000  0.06497
       7     H     0.45651  0.45651  0.00000  0.08698
       8     C     3.09367  3.09367  0.00000 -0.18734
       9     H     0.45997  0.45997  0.00000  0.08007
      10     H     0.44974  0.44974  0.00000  0.10052
      11     C     3.08332  3.08332  0.00000 -0.16663
      12     H     0.45697  0.45697  0.00000  0.08606
      13     H     0.45550  0.45550  0.00000  0.08899
      14     C     3.14977  3.14977  0.00000 -0.29954
      15     H     0.45491  0.45491  0.00000  0.09018
      16     H     0.45379  0.45379  0.00000  0.09241
      17     H     0.45571  0.45571  0.00000  0.08859
      18     H     0.44858  0.44858  0.00000  0.10285
      19     H     0.45529  0.45529  0.00000  0.08942

   Total alpha = 25.00000, Total beta = 25.00000, Total charge = -0.00000

*** Psi4 exiting successfully. Buy a developer a beer!
