  ==> Input File <==

--------------------------------------------------------------------------
set {
	reference rhf
	basis 6-31G*
}

set_num_threads( 4 )
memory 2 gb

molecule MOL {
0 1

H	 -3.269016	 -0.876744	 0.468090
C	 -2.809304	 0.000122	 0.025886
N	 -1.391456	 0.000019	 0.300661
H	 -3.037557	 -0.000063	 -1.044252
H	 -3.269223	 0.876956	 0.468000
C	 -1.072205	 0.670869	 1.545581
C	 -0.618588	 0.552872	 -0.794254
H	 -1.357062	 1.727081	 1.517649
H	 -1.630340	 0.200508	 2.348580
C	 0.416124	 0.565424	 1.839397
H	 -0.845924	 -0.003548	 -1.697732
H	 -0.873416	 1.601274	 -0.977076
C	 0.869740	 0.447426	 -0.500438
H	 0.643460	 1.121843	 2.742875
H	 0.670951	 -0.482978	 2.022218
N	 1.188991	 1.118277	 0.744482
H	 1.427876	 0.917788	 -1.303437
H	 1.154597	 -0.608785	 -0.472506
C	 2.606839	 1.118175	 1.019257
H	 2.805570	 1.682469	 1.923608
H	 3.139149	 1.595686	 0.204114
H	 3.017124	 0.112223	 1.149727

	symmetry c1
}
set optking {
	frozen_dihedral = ("
		6 3 2 4
	")
}

ee = optimize('scf')
oeprop('DIPOLE', 'QUADRUPOLE', 'MULLIKEN_CHARGES')
f=open( 'psi4out.xyz', 'w' )
f.write( "22  " )
f.write( str(ee) + "\n" )
f.write( MOL.save_string_xyz() )
f.close()
--------------------------------------------------------------------------

    Molecular point group: c1
  Charge       = 0
  Multiplicity = 1
  Basis Set: 6-31G*
  Basis Set:
  @DF-RHF Final Energy:  -344.22607313133796
    Total Energy =                       -344.2260731313381257
    Molecular point group: c1
  Basis Set: 6-31G*
  Basis Set:
  Basis Set: 6-31G*
  Basis Set:
  @DF-RHF Final Energy:  -344.22682463898053
    Total Energy =                       -344.2268246389807018
  Basis Set: 6-31G*
  Basis Set:
  Basis Set: 6-31G*
  Basis Set:
  @DF-RHF Final Energy:  -344.22693876204227
    Total Energy =                       -344.2269387620422094
  Basis Set: 6-31G*
  Basis Set:
  Basis Set: 6-31G*
  Basis Set:
  @DF-RHF Final Energy:  -344.22694111676071
    Total Energy =                       -344.2269411167607132
  Basis Set: 6-31G*
  Basis Set:
  Charge       = 0
  Multiplicity = 1
  Basis Set: 6-31G*
  Basis Set:

    Orbital Energies (a.u.)
    -----------------------

    Doubly Occupied:

       1A    -15.541512     2A    -15.541163     3A    -11.238663
       4A    -11.238450     5A    -11.237841     6A    -11.237761
       7A    -11.235787     8A    -11.235674     9A     -1.254053
      10A     -1.202667    11A     -1.024056    12A     -0.991083
      13A     -0.911547    14A     -0.866072    15A     -0.835665
      16A     -0.755471    17A     -0.664959    18A     -0.634967
      19A     -0.629358    20A     -0.625246    21A     -0.620103
      22A     -0.580379    23A     -0.551534    24A     -0.546551
      25A     -0.541454    26A     -0.519268    27A     -0.497202
      28A     -0.488055    29A     -0.463459    30A     -0.454973
      31A     -0.349544    32A     -0.344391

  @DF-RHF Final Energy:  -344.22694155634264

   => Energetics <=

    Nuclear Repulsion Energy =            421.1839655893591612
    One-Electron Energy =               -1301.1040014735717705
    Two-Electron Energy =                 535.6930943278696304
    DFT Exchange-Correlation Energy =       0.0000000000000000
    Empirical Dispersion Energy =           0.0000000000000000
    PCM Polarization Energy =               0.0000000000000000
    EFP Energy =                            0.0000000000000000
    Total Energy =                       -344.2269415563430357
    Molecular point group: c1
  Basis Set: 6-31G*
  Basis Set:

  -Total Gradient:
     Atom            X                  Y                   Z
    ------   -----------------  -----------------  -----------------
       1        0.000007630682     0.000011070892     0.000001188053
       2        0.000177446710    -0.005183340231    -0.000678191709
       3       -0.000467892690    -0.003198962981     0.002598517273
       4       -0.000030269668     0.005087957210    -0.000024724839
       5       -0.000006736461     0.000001583572     0.000004996107
       6        0.000312365029     0.003278208089    -0.001926580003
       7       -0.000014907869    -0.000016387290     0.000042388342
       8        0.000000351289     0.000004237432     0.000001904452
       9       -0.000005526868     0.000001373196    -0.000001211408
      10        0.000002726191     0.000009156057     0.000004048585
      11        0.000006039346     0.000002800316     0.000004250847
      12       -0.000005310908     0.000006413439    -0.000004029531
      13        0.000023648317    -0.000013075066    -0.000016970935
      14        0.000001768804     0.000001028917     0.000002118035
      15       -0.000003256554     0.000002785910    -0.000001079449
      16       -0.000003157466     0.000004230545    -0.000000690054
      17        0.000005084496     0.000002283598     0.000000512561
      18        0.000000503156    -0.000000502807     0.000000485547
      19        0.000001196810    -0.000000756720    -0.000007336712
      20       -0.000001038920     0.000000432455     0.000000630326
      21       -0.000000078380    -0.000000843530     0.000000576052
      22       -0.000000585050     0.000000306996    -0.000000801542

  **** Optimization is complete! (in 5 steps) ****
    Final optimized geometry and variables:
    Molecular point group: c1

    Geometry (in Angstrom), charge = 0, multiplicity = 1:

    H           -3.187076554214    -1.442167311862    -0.033875840531
    C           -2.718040767974    -0.573713728813    -0.483786579898
    N           -1.289279619482    -0.565124032102    -0.225232209597
    H           -2.908419608064    -0.578048552788    -1.550222628314
    H           -3.211818173118     0.318029457658    -0.092068677680
    C           -0.967739071189     0.113452139854     1.016091029044
    C           -0.518396756136     0.004049849507    -1.316748515661
    H           -1.252187888923     1.168918965332     0.976987028753
    H           -1.529023198764    -0.348107280489     1.822700411702
    C            0.518919964198     0.007951000078     1.315716143575
    H           -0.740756130273    -0.545028976970    -2.225252639303
    H           -0.772269962269     1.054092705364    -1.490525364726
    C            0.970123931821    -0.103959744229    -1.024494953881
    H            0.743240369007     0.565547033913     2.219366475536
    H            0.773383726617    -1.040119407734     1.500527467797
    N            1.294020705292     0.560727775786     0.222468284155
    H            1.527771918192     0.368564250089    -1.826715377886
    H            1.252221573659    -1.161061275135    -1.001772096741
    C            2.711884710393     0.553158317608     0.495965609241
    H            2.914147418250     1.112642231748     1.402581997615
    H            3.245623009246     1.031791546996    -0.317616184455
    H            3.117962441017    -0.455136889843     0.621631131376

  Mulliken Charges: (a.u.)
   Center  Symbol    Alpha    Beta     Spin     Total
       1     H     0.41483  0.41483  0.00000  0.17034
       2     C     3.14029  3.14029  0.00000 -0.28057
       3     N     3.78723  3.78723  0.00000 -0.57445
       4     H     0.41927  0.41927  0.00000  0.16146
       5     H     0.42997  0.42997  0.00000  0.14005
       6     C     3.05904  3.05904  0.00000 -0.11808
       7     C     3.05855  3.05855  0.00000 -0.11709
       8     H     0.42776  0.42776  0.00000  0.14448
       9     H     0.41738  0.41738  0.00000  0.16524
      10     C     3.05578  3.05578  0.00000 -0.11155
      11     H     0.41740  0.41740  0.00000  0.16520
      12     H     0.42866  0.42866  0.00000  0.14268
      13     C     3.05627  3.05627  0.00000 -0.11254
      14     H     0.41813  0.41813  0.00000  0.16374
      15     H     0.42842  0.42842  0.00000  0.14316
      16     N     3.78706  3.78706  0.00000 -0.57413
      17     H     0.41817  0.41817  0.00000  0.16365
      18     H     0.42841  0.42841  0.00000  0.14318
      19     C     3.14025  3.14025  0.00000 -0.28050
      20     H     0.41685  0.41685  0.00000  0.16629
      21     H     0.41686  0.41686  0.00000  0.16629
      22     H     0.43343  0.43343  0.00000  0.13314

   Total alpha = 32.00000, Total beta = 32.00000, Total charge = -0.00000
