                              Psi4 1.0.54 Driver

  ==> Input File <==

--------------------------------------------------------------------------
set {
	reference rhf
	basis cc-pvtz
}

set_num_threads( 4 )
memory 2 gb

molecule MOL {
0 1

H	 -2.710781	 -1.128772	 0.842613
O	 -2.658848	 -0.704215	 -0.000460
C	 -1.605397	 0.107680	 0.001145
C	 -0.310616	 -0.658853	 0.000791
O	 -1.718351	 1.284629	 -0.000627
C	 0.926581	 0.227233	 0.000178
H	 -0.327628	 -1.313681	 -0.864448
H	 -0.327041	 -1.313334	 0.866298
C	 2.220156	 -0.582071	 -0.000088
H	 0.899945	 0.878221	 -0.866390
H	 0.900542	 0.878581	 0.866486
C	 3.466689	 0.296012	 -0.000457
H	 2.239073	 -1.234095	 -0.869382
H	 2.239505	 -1.233985	 0.869270
H	 3.493549	 0.935857	 -0.875887
H	 4.368821	 -0.304526	 -0.001199
H	 3.494559	 0.935166	 0.875458

	symmetry c1
}
set optking {
	frozen_dihedral = ("
		1 2 3 5
	")
}

ee,wfn = optimize('scf', return_wfn=True)
oeprop( wfn, 'DIPOLE', 'QUADRUPOLE', 'MULLIKEN_CHARGES')
f=open( 'psi4out.xyz', 'w' )
f.write( "17  " )
f.write( str(ee) + "\n" )
f.write( MOL.save_string_xyz() )
f.close()
--------------------------------------------------------------------------

    Molecular point group: c1
  Charge       = 0
  Multiplicity = 1
  Basis Set: CC-PVTZ
  Basis Set:
  @DF-RHF Final Energy:  -345.02809631292496
    Total Energy =                       -345.0280963129248448
    Molecular point group: c1
  Basis Set: CC-PVTZ
  Basis Set:
  Basis Set: CC-PVTZ
  Basis Set:
  @DF-RHF Final Energy:  -345.02944862315150
    Total Energy =                       -345.0294486231515521
  Basis Set: CC-PVTZ
  Basis Set:
  Basis Set: CC-PVTZ
  Basis Set:
  @DF-RHF Final Energy:  -345.02911719822902
    Total Energy =                       -345.0291171982288461
  Basis Set: CC-PVTZ
  Basis Set:
  Basis Set: CC-PVTZ
  Basis Set:
  @DF-RHF Final Energy:  -345.02968347842636
    Total Energy =                       -345.0296834784261364
  Basis Set: CC-PVTZ
  Basis Set:
  Basis Set: CC-PVTZ
  Basis Set:
  @DF-RHF Final Energy:  -345.02968999987240
    Total Energy =                       -345.0296899998724030
  Basis Set: CC-PVTZ
  Basis Set:
  Charge       = 0
  Multiplicity = 1
  Basis Set: CC-PVTZ
  Basis Set:

    Orbital Energies (a.u.)
    -----------------------

    Doubly Occupied:

       1A    -20.588059     2A    -20.549170     3A    -11.374048
       4A    -11.244027     5A    -11.224144     6A    -11.223512
       7A    -11.212838     8A     -1.463882     9A     -1.371611
      10A     -1.094798    11A     -1.019220    12A     -0.909420
      13A     -0.826875    14A     -0.800040    15A     -0.713777
      16A     -0.676067    17A     -0.664962    18A     -0.642127
      19A     -0.597777    20A     -0.586731    21A     -0.542980
      22A     -0.537052    23A     -0.517876    24A     -0.500956
      25A     -0.483249    26A     -0.476543    27A     -0.475230
      28A     -0.445365

  @DF-RHF Final Energy:  -345.02969042535130

   => Energetics <=

    Nuclear Repulsion Energy =            304.0693607516948305
    One-Electron Energy =               -1072.6734246388455176
    Two-Electron Energy =                 423.5743734617996097
    DFT Exchange-Correlation Energy =       0.0000000000000000
    Empirical Dispersion Energy =           0.0000000000000000
    PCM Polarization Energy =               0.0000000000000000
    EFP Energy =                            0.0000000000000000
    Total Energy =                       -345.0296904253510775
    Molecular point group: c1
  Basis Set: CC-PVTZ
  Basis Set:

  -Total Gradient:
     Atom            X                  Y                   Z
    ------   -----------------  -----------------  -----------------
       1       -0.002034391644     0.002806683570     0.001091495266
       2        0.002578428008    -0.003488686314     0.000023714639
       3       -0.000460979981     0.000613021191    -0.004272008829
       4       -0.000039664410     0.000013753813    -0.000043090116
       5       -0.000050652676     0.000060452956     0.003168628449
       6        0.000024261155     0.000013505315     0.000006516330
       7        0.000009029217    -0.000001121847     0.000020845264
       8       -0.000000801172    -0.000002330073     0.000016675651
       9        0.000007380050    -0.000014580092    -0.000006578471
      10       -0.000002434090    -0.000002502839    -0.000004407728
      11       -0.000004326231    -0.000007582038    -0.000006929135
      12       -0.000012504720     0.000009735374     0.000006843647
      13       -0.000002780647     0.000000275807    -0.000004635466
      14       -0.000002966721    -0.000001872532     0.000001646179
      15        0.000001569733     0.000000640449    -0.000003979908
      16       -0.000012521934    -0.000004380557     0.000001672313
      17        0.000003356059     0.000004987813     0.000003591917

  **** Optimization is complete! (in 6 steps) ****
    Final optimized geometry and variables:
    Molecular point group: c1

    Geometry (in Angstrom), charge = 0, multiplicity = 1:

    H           -2.836684903562    -1.111694848771     0.814027055936
    O           -2.709494461035    -0.686064333018    -0.017195953380
    C           -1.610952097731     0.111443068503    -0.015501982892
    C           -0.308303105298    -0.647467170346    -0.005384747414
    O           -1.712699810607     1.279877844646    -0.050412748294
    C            0.929385424981     0.237591720971     0.006346187244
    H           -0.319745441651    -1.299720713780    -0.872971636143
    H           -0.320376861967    -1.310282566126     0.856772036798
    C            2.224153552733    -0.569865581902     0.009581318935
    H            0.905455216719     0.891802725213    -0.857530468617
    H            0.897964833631     0.885758706427     0.875184201546
    C            3.469282058594     0.310087769266     0.019809473930
    H            2.248532009416    -1.217698280539    -0.862617090262
    H            2.240362730155    -1.225809292414     0.876205434016
    H            3.499981153488     0.953127233858    -0.853042232745
    H            4.372177534489    -0.289210598222     0.021901507055
    H            3.491213348226     0.945989428557     0.898250970102

  Mulliken Charges: (a.u.)
   Center  Symbol    Alpha    Beta     Spin     Total
       1     H     0.38989  0.38989  0.00000  0.22022
       2     O     4.16885  4.16885  0.00000 -0.33769
       3     C     2.80000  2.80000  0.00000  0.39999
       4     C     3.12091  3.12091  0.00000 -0.24182
       5     O     4.16069  4.16069  0.00000 -0.32139
       6     C     3.08381  3.08381  0.00000 -0.16762
       7     H     0.43564  0.43564  0.00000  0.12872
       8     H     0.44997  0.44997  0.00000  0.10005
       9     C     3.08629  3.08629  0.00000 -0.17259
      10     H     0.44364  0.44364  0.00000  0.11271
      11     H     0.44679  0.44679  0.00000  0.10642
      12     C     3.14919  3.14919  0.00000 -0.29838
      13     H     0.45424  0.45424  0.00000  0.09153
      14     H     0.45559  0.45559  0.00000  0.08881
      15     H     0.45296  0.45296  0.00000  0.09407
      16     H     0.44780  0.44780  0.00000  0.10441
      17     H     0.45372  0.45372  0.00000  0.09255

   Total alpha = 28.00000, Total beta = 28.00000, Total charge = -0.00000

*** Psi4 exiting successfully. Buy a developer a beer!
