                              Psi4 1.0.54 Driver

  ==> Input File <==

--------------------------------------------------------------------------
set {
	reference rhf
	basis cc-pvtz
}

set_num_threads( 4 )
memory 2 gb

molecule MOL {
0 1

H	 2.614283	 2.028610	 0.296620
O	 3.358864	 1.662087	 -0.142800
C	 3.565468	 0.338079	 0.273842
C	 2.533667	 -0.637565	 -0.272227
H	 4.548038	 0.064914	 -0.086598
H	 3.593945	 0.282242	 1.360360
C	 1.114816	 -0.402372	 0.240993
H	 2.544552	 -0.580764	 -1.356576
H	 2.850574	 -1.642962	 -0.005497
C	 0.391749	 -1.700872	 0.595829
H	 0.545829	 0.134162	 -0.510929
H	 1.151625	 0.237286	 1.121203
C	 -1.008336	 -1.520680	 1.185362
H	 0.330055	 -2.328536	 -0.289868
H	 0.997843	 -2.248583	 1.312161
C	 -2.047886	 -0.952689	 0.220757
H	 -1.356601	 -2.487489	 1.538237
H	 -0.947718	 -0.883367	 2.064744
C	 -3.448542	 -0.885057	 0.824082
H	 -2.075019	 -1.565609	 -0.677609
H	 -1.756192	 0.043122	 -0.099051
C	 -4.488196	 -0.314932	 -0.135068
H	 -3.753590	 -1.880449	 1.135076
H	 -3.421476	 -0.279995	 1.726429
H	 -4.562351	 -0.916865	 -1.034744
H	 -5.470167	 -0.283427	 0.323023
H	 -4.231452	 0.695538	 -0.435707

	symmetry c1
}
set optking {
	frozen_dihedral = ("
		10 7 4 8
	")
}

ee,wfn = optimize('scf', return_wfn=True)
oeprop( wfn, 'DIPOLE', 'QUADRUPOLE', 'MULLIKEN_CHARGES')
f=open( 'psi4out.xyz', 'w' )
f.write( "27  " )
f.write( str(ee) + "\n" )
f.write( MOL.save_string_xyz() )
f.close()
--------------------------------------------------------------------------

    Molecular point group: c1
  Charge       = 0
  Multiplicity = 1
  Basis Set: CC-PVTZ
  Basis Set:
  @DF-RHF Final Energy:  -388.42361890513035
    Total Energy =                       -388.4236189051305246
    Molecular point group: c1
  Basis Set: CC-PVTZ
  Basis Set:
  Basis Set: CC-PVTZ
  Basis Set:
  @DF-RHF Final Energy:  -388.42394168888666
    Total Energy =                       -388.4239416888863161
  Basis Set: CC-PVTZ
  Basis Set:
  Basis Set: CC-PVTZ
  Basis Set:
  @DF-RHF Final Energy:  -388.42403838904295
    Total Energy =                       -388.4240383890424937
  Basis Set: CC-PVTZ
  Basis Set:
  Basis Set: CC-PVTZ
  Basis Set:
  @DF-RHF Final Energy:  -388.42402692797378
    Total Energy =                       -388.4240269279730455
  Basis Set: CC-PVTZ
  Basis Set:
  Basis Set: CC-PVTZ
  Basis Set:
  @DF-RHF Final Energy:  -388.42405347501648
    Total Energy =                       -388.4240534750165352
  Basis Set: CC-PVTZ
  Basis Set:
  Charge       = 0
  Multiplicity = 1
  Basis Set: CC-PVTZ
  Basis Set:

    Orbital Energies (a.u.)
    -----------------------

    Doubly Occupied:

       1A    -20.544846     2A    -11.264590     3A    -11.218022
       4A    -11.216202     5A    -11.214220     6A    -11.213920
       7A    -11.213496     8A    -11.212258     9A    -11.207438
      10A     -1.362874    11A     -1.096298    12A     -1.061941
      13A     -1.012471    14A     -0.949541    15A     -0.888960
      16A     -0.822241    17A     -0.801856    18A     -0.779436
      19A     -0.697743    20A     -0.649064    21A     -0.630738
      22A     -0.622526    23A     -0.606708    24A     -0.585112
      25A     -0.577371    26A     -0.555685    27A     -0.542868
      28A     -0.527809    29A     -0.509377    30A     -0.498045
      31A     -0.485806    32A     -0.475436    33A     -0.469354
      34A     -0.461671    35A     -0.448426    36A     -0.442128
      37A     -0.426715

  @DF-RHF Final Energy:  -388.42405400764471

   => Energetics <=

    Nuclear Repulsion Energy =            459.1907901176949736
    One-Electron Energy =               -1436.6432977046979431
    Two-Electron Energy =                 589.0284535793582563
    DFT Exchange-Correlation Energy =       0.0000000000000000
    Empirical Dispersion Energy =           0.0000000000000000
    PCM Polarization Energy =               0.0000000000000000
    EFP Energy =                            0.0000000000000000
    Total Energy =                       -388.4240540076447132
    Molecular point group: c1
  Basis Set: CC-PVTZ
  Basis Set:

  -Total Gradient:
     Atom            X                  Y                   Z
    ------   -----------------  -----------------  -----------------
       1        0.000007165886     0.000029066117    -0.000002563448
       2       -0.000023233087     0.000030485902    -0.000061867070
       3        0.000018780175    -0.000009495872     0.000083663453
       4       -0.000522798191    -0.004329528627     0.000511048162
       5        0.000032508940    -0.000017977813     0.000003125228
       6       -0.000002768045    -0.000022068616     0.000015729325
       7       -0.001155247018     0.000688915323    -0.003270670580
       8        0.000697561521     0.003525957272     0.000277924531
       9       -0.000002870565     0.000013064600    -0.000008354606
      10        0.000999176538     0.000108623027     0.002455123654
      11       -0.000035987222     0.000006773427    -0.000038657659
      12       -0.000007020871    -0.000015490275     0.000039569252
      13       -0.000023921236    -0.000022208045    -0.000021224752
      14       -0.000000525384     0.000009970579     0.000010764052
      15        0.000003488640     0.000003180143     0.000004711482
      16        0.000011078185    -0.000004074249     0.000010691462
      17       -0.000020650046     0.000000094038     0.000000657095
      18        0.000008485816    -0.000003907628    -0.000003850754
      19       -0.000006283790    -0.000006462051    -0.000000648299
      20        0.000003241329     0.000002102183     0.000002782585
      21        0.000020295437     0.000011125537    -0.000008927632
      22        0.000001893460     0.000002949626     0.000001925050
      23       -0.000000147717    -0.000002769110     0.000001574855
      24        0.000000029168    -0.000000288499    -0.000001297797
      25       -0.000000241604    -0.000001714048    -0.000000241976
      26       -0.000001175622     0.000002136621     0.000000994830
      27       -0.000000834694     0.000001540442    -0.000001980442

  **** Optimization is complete! (in 6 steps) ****
    Final optimized geometry and variables:
    Molecular point group: c1

    Geometry (in Angstrom), charge = 0, multiplicity = 1:

    H            2.507838928802     2.423895900360    -0.027115995839
    O            3.286313873731     2.109680284746    -0.448943162236
    C            3.543068274118     0.784396701234    -0.065868589359
    C            2.506235040054    -0.198737987459    -0.588950204601
    H            4.516150215401     0.542818519588    -0.472075180572
    H            3.616060052858     0.709708552024     1.017578509907
    C            1.093164709051     0.035530905231    -0.026335098314
    H            2.494665653523    -0.105435135675    -1.669548507720
    H            2.843616513130    -1.202218644393    -0.348607200888
    C            0.355235849639    -1.261488606819     0.305972462406
    H            0.516872870985     0.630889850508    -0.723511638920
    H            1.159233750806     0.619683768873     0.890851740961
    C           -1.045685321887    -1.076485496632     0.891142183644
    H            0.292248436429    -1.879629168167    -0.586910819179
    H            0.956314001268    -1.820524756934     1.017299052739
    C           -2.081095846773    -0.509328794697    -0.078387576022
    H           -1.397619681685    -2.041190925299     1.245984511331
    H           -0.985947646930    -0.436740886371     1.768956442503
    C           -3.481316148054    -0.426403327029     0.523922090488
    H           -2.112505405500    -1.130630822591    -0.970740038949
    H           -1.782319408383     0.481108937580    -0.407765570753
    C           -4.516957724974     0.140897164488    -0.441134247940
    H           -3.793057633067    -1.416496229322     0.845028550341
    H           -3.450361439541     0.187655790989     1.419982951116
    H           -4.595960605318    -0.470372238736    -1.334046967664
    H           -5.498462880949     0.184788304765     0.016831719547
    H           -4.252702774337     1.145954517390    -0.752987305664

  Mulliken Charges: (a.u.)
   Center  Symbol    Alpha    Beta     Spin     Total
       1     H     0.39169  0.39169  0.00000  0.21663
       2     O     4.20730  4.20730  0.00000 -0.41459
       3     C     2.97470  2.97470  0.00000  0.05061
       4     C     3.09115  3.09115  0.00000 -0.18230
       5     H     0.44983  0.44983  0.00000  0.10035
       6     H     0.47241  0.47241  0.00000  0.05518
       7     C     3.10596  3.10596  0.00000 -0.21191
       8     H     0.44947  0.44947  0.00000  0.10105
       9     H     0.45466  0.45466  0.00000  0.09068
      10     C     3.10125  3.10125  0.00000 -0.20250
      11     H     0.44323  0.44323  0.00000  0.11354
      12     H     0.46108  0.46108  0.00000  0.07785
      13     C     3.09860  3.09860  0.00000 -0.19721
      14     H     0.45121  0.45121  0.00000  0.09757
      15     H     0.44790  0.44790  0.00000  0.10420
      16     C     3.08791  3.08791  0.00000 -0.17581
      17     H     0.44779  0.44779  0.00000  0.10442
      18     H     0.45409  0.45409  0.00000  0.09183
      19     C     3.08415  3.08415  0.00000 -0.16829
      20     H     0.45450  0.45450  0.00000  0.09100
      21     H     0.45416  0.45416  0.00000  0.09167
      22     C     3.14962  3.14962  0.00000 -0.29925
      23     H     0.45391  0.45391  0.00000  0.09218
      24     H     0.45471  0.45471  0.00000  0.09059
      25     H     0.45500  0.45500  0.00000  0.09000
      26     H     0.44829  0.44829  0.00000  0.10341
      27     H     0.45544  0.45544  0.00000  0.08912

   Total alpha = 37.00000, Total beta = 37.00000, Total charge = -0.00000

*** Psi4 exiting successfully. Buy a developer a beer!
