  ==> Input File <==

--------------------------------------------------------------------------
set {
	reference rhf
	basis 6-31G*
}

set_num_threads( 1 )
memory 2 gb

molecule MOL {
0 1

O	 -2.712607	 0.917181	 0.195888
C	 -1.921153	 0.064240	 -0.045697
C	 -2.241077	 -1.245948	 -0.713082
O	 -0.632575	 0.154573	 0.251549
H	 -1.970020	 -2.066239	 -0.058407
H	 -3.295410	 -1.288263	 -0.942053
H	 -1.659231	 -1.345461	 -1.622098
C	 0.160891	 -1.019931	 0.106212
C	 1.589627	 -0.672828	 0.480843
H	 0.089836	 -1.367806	 -0.916050
H	 -0.238459	 -1.792301	 0.749618
C	 2.246377	 0.346236	 -0.452210
H	 2.163194	 -1.597435	 0.473358
H	 1.604769	 -0.303424	 1.502885
C	 3.691736	 0.652107	 -0.061850
H	 2.219579	 -0.032311	 -1.472055
H	 1.666466	 1.263317	 -0.447249
H	 4.134505	 1.377213	 -0.737283
H	 4.305508	 -0.243868	 -0.089969
H	 3.748266	 1.059562	 0.943567

	symmetry c1
}
set optking {
	frozen_dihedral = ("
		16 12 9 8,
		2 4 8 10,
		12 9 8 10
	")
}

ee = energy('scf')
oeprop('DIPOLE', 'QUADRUPOLE', 'MULLIKEN_CHARGES')
f=open( 'psi4out.xyz', 'w' )
f.write( "20  " )
f.write( str(ee) + "\n" )
f.write( MOL.save_string_xyz() )
f.close()
--------------------------------------------------------------------------

    Molecular point group: c1

    Geometry (in Angstrom), charge = 0, multiplicity = 1:

       Center              X                  Y                   Z               Mass
    ------------   -----------------  -----------------  -----------------  -----------------
           O         -2.727077868454     1.018465457937     0.227838176114    15.994914619560
           C         -1.935623868454     0.165524457937    -0.013746823886    12.000000000000
           C         -2.255547868454    -1.144663542063    -0.681131823886    12.000000000000
           O         -0.647045868454     0.255857457937     0.283499176114    15.994914619560
           H         -1.984490868454    -1.964954542063    -0.026456823886     1.007825032070
           H         -3.309880868454    -1.186978542063    -0.910102823886     1.007825032070
           H         -1.673701868454    -1.244176542063    -1.590147823886     1.007825032070
           C          0.146420131546    -0.918646542063     0.138162176114    12.000000000000
           C          1.575156131546    -0.571543542063     0.512793176114    12.000000000000
           H          0.075365131546    -1.266521542063    -0.884099823886     1.007825032070
           H         -0.252929868454    -1.691016542063     0.781568176114     1.007825032070
           C          2.231906131546     0.447520457937    -0.420259823886    12.000000000000
           H          2.148723131546    -1.496150542063     0.505308176114     1.007825032070
           H          1.590298131546    -0.202139542063     1.534835176114     1.007825032070
           C          3.677265131546     0.753391457937    -0.029899823886    12.000000000000
           H          2.205108131546     0.068973457937    -1.440104823886     1.007825032070
           H          1.651995131546     1.364601457937    -0.415298823886     1.007825032070
           H          4.120034131546     1.478497457937    -0.705332823886     1.007825032070
           H          4.291037131546    -0.142583542063    -0.058018823886     1.007825032070
           H          3.733795131546     1.160846457937     0.975517176114     1.007825032070

  Charge       = 0
  Multiplicity = 1
  Basis Set: 6-31G*
  Basis Set:

    Orbital Energies (a.u.)
    -----------------------

    Doubly Occupied:

       1A    -20.605578     2A    -20.541651     3A    -11.376501
       4A    -11.299163     5A    -11.238778     6A    -11.233123
       7A    -11.224461     8A    -11.215940     9A     -1.467162
      10A     -1.367954    11A     -1.089368    12A     -1.023701
      13A     -1.005247    14A     -0.892624    15A     -0.816321
      16A     -0.783275    17A     -0.702550    18A     -0.698938
      19A     -0.665564    20A     -0.636130    21A     -0.604701
      22A     -0.594671    23A     -0.574576    24A     -0.560782
      25A     -0.550163    26A     -0.539903    27A     -0.521042
      28A     -0.489988    29A     -0.481398    30A     -0.479094
      31A     -0.443535    32A     -0.431343

  @DF-RHF Final Energy:  -383.92034029721873

   => Energetics <=

    Nuclear Repulsion Energy =            387.7093488235390737
    One-Electron Energy =               -1290.9490097434845666
    Two-Electron Energy =                 519.3193206227265364
    DFT Exchange-Correlation Energy =       0.0000000000000000
    Empirical Dispersion Energy =           0.0000000000000000
    PCM Polarization Energy =               0.0000000000000000
    EFP Energy =                            0.0000000000000000
    Total Energy =                       -383.9203402972188997

  Mulliken Charges: (a.u.)
   Center  Symbol    Alpha    Beta     Spin     Total
       1     O     4.27213  4.27213  0.00000 -0.54425
       2     C     2.60500  2.60500  0.00000  0.79000
       3     C     3.31926  3.31926  0.00000 -0.63852
       4     O     4.29995  4.29995  0.00000 -0.59991
       5     H     0.40287  0.40287  0.00000  0.19427
       6     H     0.38818  0.38818  0.00000  0.22364
       7     H     0.40008  0.40008  0.00000  0.19983
       8     C     3.01210  3.01210  0.00000 -0.02420
       9     C     3.15837  3.15837  0.00000 -0.31674
      10     H     0.41674  0.41674  0.00000  0.16653
      11     H     0.41218  0.41218  0.00000  0.17564
      12     C     3.15695  3.15695  0.00000 -0.31389
      13     H     0.41931  0.41931  0.00000  0.16138
      14     H     0.40910  0.40910  0.00000  0.18180
      15     C     3.24103  3.24103  0.00000 -0.48206
      16     H     0.42502  0.42502  0.00000  0.14997
      17     H     0.40462  0.40462  0.00000  0.19077
      18     H     0.41598  0.41598  0.00000  0.16804
      19     H     0.42252  0.42252  0.00000  0.15496
      20     H     0.41864  0.41864  0.00000  0.16272

   Total alpha = 32.00000, Total beta = 32.00000, Total charge = -0.00000
