  ==> Input File <==

--------------------------------------------------------------------------
set {
	reference rhf
	basis 6-31G*
}

set_num_threads( 4 )
memory 2 gb

molecule MOL {
0 1

H	 -2.095845	 0.069849	 0.369554
C	 -1.193199	 -0.484033	 0.210393
C	 -1.185326	 -1.867295	 0.209005
C	 0.000000	 0.183220	 0.000000
H	 -2.101477	 -2.404452	 0.370547
C	 0.000000	 -2.555744	 0.000000
N	 0.000000	 1.642018	 0.000000
C	 1.193199	 -0.484034	 -0.210393
H	 0.000000	 -3.630640	 0.000000
C	 1.185326	 -1.867295	 -0.209005
O	 1.057097	 2.196749	 0.000000
O	 -1.057097	 2.196749	 0.000000
H	 2.095845	 0.069849	 -0.369554
H	 2.101477	 -2.404452	 -0.370547

	symmetry c1
}
set optking {
	frozen_dihedral = ("
		2 4 7 11
	")
}

ee = optimize('scf')
oeprop('DIPOLE', 'QUADRUPOLE', 'MULLIKEN_CHARGES')
f=open( 'psi4out.xyz', 'w' )
f.write( "14  " )
f.write( str(ee) + "\n" )
f.write( MOL.save_string_xyz() )
f.close()
--------------------------------------------------------------------------

    Molecular point group: c1
  Charge       = 0
  Multiplicity = 1
  Basis Set: 6-31G*
  Basis Set:
  @DF-RHF Final Energy:  -434.17412701932091
    Total Energy =                       -434.1741270193206219
    Molecular point group: c1
  Basis Set: 6-31G*
  Basis Set:
  Basis Set: 6-31G*
  Basis Set:
  @DF-RHF Final Energy:  -434.17306518381218
    Total Energy =                       -434.1730651838123549
  Basis Set: 6-31G*
  Basis Set:
  Basis Set: 6-31G*
  Basis Set:
  @DF-RHF Final Energy:  -434.17413396134691
    Total Energy =                       -434.1741339613469108
  Basis Set: 6-31G*
  Basis Set:
  Charge       = 0
  Multiplicity = 1
  Basis Set: 6-31G*
  Basis Set:

    Orbital Energies (a.u.)
    -----------------------

    Doubly Occupied:

       1A    -20.601011     2A    -20.600947     3A    -15.855710
       4A    -11.303749     5A    -11.270733     6A    -11.270696
       7A    -11.268266     8A    -11.261121     9A    -11.261011
      10A     -1.634278    11A     -1.417506    12A     -1.201341
      13A     -1.094439    14A     -1.052524    15A     -0.957969
      16A     -0.864527    17A     -0.825110    18A     -0.784334
      19A     -0.733474    20A     -0.728707    21A     -0.709016
      22A     -0.654706    23A     -0.650126    24A     -0.624480
      25A     -0.553083    26A     -0.535736    27A     -0.529467
      28A     -0.488984    29A     -0.487018    30A     -0.451442
      31A     -0.373868    32A     -0.365555

  @DF-RHF Final Energy:  -434.17414181081944

   => Energetics <=

    Nuclear Repulsion Energy =            417.1743905526224694
    One-Electron Energy =               -1417.8751967996336134
    Two-Electron Energy =                 566.5266644361918225
    DFT Exchange-Correlation Energy =       0.0000000000000000
    Empirical Dispersion Energy =           0.0000000000000000
    PCM Polarization Energy =               0.0000000000000000
    EFP Energy =                            0.0000000000000000
    Total Energy =                       -434.1741418108192647
    Molecular point group: c1
  Basis Set: 6-31G*
  Basis Set:

  -Total Gradient:
     Atom            X                  Y                   Z
    ------   -----------------  -----------------  -----------------
       1       -0.000008790295     0.000003734342    -0.000016282626
       2        0.000165300304    -0.000005620835     0.000872917562
       3       -0.000022061137     0.000009416289    -0.000065356819
       4       -0.000217383085    -0.000011039460    -0.000826290337
       5        0.000002153659     0.000000523378     0.000009854207
       6        0.000018409949    -0.000005388546     0.000049619934
       7        0.000057648599    -0.000048006588    -0.000983380384
       8        0.000001991132    -0.000001956380    -0.000024989654
       9       -0.000002536121    -0.000001203196    -0.000006705790
      10        0.000000079510    -0.000011241942    -0.000000710481
      11       -0.000021710843     0.000057046681     0.000965379016
      12        0.000030955708     0.000020325873     0.000020317196
      13       -0.000002178811    -0.000006701576     0.000014935767
      14       -0.000001878567     0.000000111964    -0.000009307591

  **** Optimization is complete! (in 4 steps) ****
    Final optimized geometry and variables:
    Molecular point group: c1

    Geometry (in Angstrom), charge = 0, multiplicity = 1:

    H           -2.097181460565     0.070606250521     0.360338689714
    C           -1.193905180821    -0.483515694224     0.205084428378
    C           -1.185132271854    -1.866807698014     0.209723863107
    C           -0.000970216932     0.183219434782    -0.007379935575
    H           -2.100509735068    -2.403715637354     0.376138607231
    C            0.000245107523    -2.555330667266     0.000802475878
    N           -0.000014489554     1.641636875953    -0.000829525220
    C            1.193438421888    -0.483719292190    -0.210954381792
    H            0.000581011328    -3.630257196542     0.003260732657
    C            1.185352996396    -1.867003377224    -0.210457118815
    O            1.057549976172     2.195504385221    -0.002798707758
    O           -1.056893559130     2.196646361821     0.013260051421
    H            2.097023060912     0.070235472338    -0.364947851200
    H            2.101433874386    -2.404094163575    -0.372353614403

  Mulliken Charges: (a.u.)
   Center  Symbol    Alpha    Beta     Spin     Total
       1     H     0.36451  0.36451  0.00000  0.27099
       2     C     3.08511  3.08511  0.00000 -0.17022
       3     C     3.10837  3.10837  0.00000 -0.21674
       4     C     2.92220  2.92220  0.00000  0.15560
       5     H     0.38850  0.38850  0.00000  0.22301
       6     C     3.08609  3.08609  0.00000 -0.17219
       7     N     3.24170  3.24170  0.00000  0.51659
       8     C     3.08496  3.08496  0.00000 -0.16992
       9     H     0.38889  0.38889  0.00000  0.22222
      10     C     3.10840  3.10840  0.00000 -0.21680
      11     O     4.23412  4.23412  0.00000 -0.46825
      12     O     4.23408  4.23408  0.00000 -0.46816
      13     H     0.36457  0.36457  0.00000  0.27086
      14     H     0.38849  0.38849  0.00000  0.22301

   Total alpha = 32.00000, Total beta = 32.00000, Total charge =  0.00000
