  ==> Input File <==

--------------------------------------------------------------------------
set {
	reference rhf
	basis cc-pvtz
}

set_num_threads( 4 )
memory 2 gb

molecule MOL {
0 1

O	 -0.694481	 1.313155	 -0.204815
C	 -0.862519	 0.151932	 -0.046791
C	 -2.171428	 -0.477048	 0.339095
O	 0.085519	 -0.757083	 -0.192238
H	 -2.467997	 -1.191667	 -0.417688
H	 -2.923379	 0.287970	 0.444097
H	 -2.053854	 -1.015120	 1.270901
C	 1.431834	 -0.323526	 -0.346979
C	 2.098664	 -0.079091	 0.990738
H	 1.451102	 0.564570	 -0.959131
H	 1.918798	 -1.127503	 -0.878240
H	 3.138880	 0.184046	 0.835293
H	 1.618267	 0.732711	 1.519489
H	 2.061136	 -0.970293	 1.605509

	symmetry c1
}
set optking {
	frozen_dihedral = ("
		8 4 2 1
	")
}

ee = optimize('scf')
oeprop('DIPOLE', 'QUADRUPOLE', 'MULLIKEN_CHARGES')
f=open( 'psi4out.xyz', 'w' )
f.write( "14  " )
f.write( str(ee) + "\n" )
f.write( MOL.save_string_xyz() )
f.close()
--------------------------------------------------------------------------

    Molecular point group: c1
  Charge       = 0
  Multiplicity = 1
  Basis Set: CC-PVTZ
  Basis Set:
  @DF-RHF Final Energy:  -305.99056848238052
    Total Energy =                       -305.9905684823803540
    Molecular point group: c1
  Basis Set: CC-PVTZ
  Basis Set:
  Basis Set: CC-PVTZ
  Basis Set:
  @DF-RHF Final Energy:  -305.98936437808209
    Total Energy =                       -305.9893643780816319
  Basis Set: CC-PVTZ
  Basis Set:
  Basis Set: CC-PVTZ
  Basis Set:
  @DF-RHF Final Energy:  -305.99064953177862
    Total Energy =                       -305.9906495317784447
  Basis Set: CC-PVTZ
  Basis Set:
  Basis Set: CC-PVTZ
  Basis Set:
  @DF-RHF Final Energy:  -305.99066119693532
    Total Energy =                       -305.9906611969349797
  Basis Set: CC-PVTZ
  Basis Set:
  Basis Set: CC-PVTZ
  Basis Set:
  @DF-RHF Final Energy:  -305.99066744079948
    Total Energy =                       -305.9906674407994274
  Basis Set: CC-PVTZ
  Basis Set:
  Basis Set: CC-PVTZ
  Basis Set:
  @DF-RHF Final Energy:  -305.99067010731790
    Total Energy =                       -305.9906701073178397
  Basis Set: CC-PVTZ
  Basis Set:
  Charge       = 0
  Multiplicity = 1
  Basis Set: CC-PVTZ
  Basis Set:

    Orbital Energies (a.u.)
    -----------------------

    Doubly Occupied:

       1A    -20.593838     2A    -20.533312     3A    -11.368044
       4A    -11.283164     5A    -11.231625     6A    -11.218392
       7A     -1.470150     8A     -1.365878     9A     -1.055968
      10A     -1.000207    11A     -0.884461    12A     -0.765894
      13A     -0.701004    14A     -0.685930    15A     -0.662105
      16A     -0.612278    17A     -0.588102    18A     -0.571338
      19A     -0.559295    20A     -0.529956    21A     -0.520919
      22A     -0.494467    23A     -0.454969    24A     -0.441925

  @DF-RHF Final Energy:  -305.99067090864685

   => Energetics <=

    Nuclear Repulsion Energy =            249.3439157567808877
    One-Electron Energy =                -911.4827321573623067
    Two-Electron Energy =                 356.1481454919343150
    DFT Exchange-Correlation Energy =       0.0000000000000000
    Empirical Dispersion Energy =           0.0000000000000000
    PCM Polarization Energy =               0.0000000000000000
    EFP Energy =                            0.0000000000000000
    Total Energy =                       -305.9906709086470755
    Molecular point group: c1
  Basis Set: CC-PVTZ
  Basis Set:

  -Total Gradient:
     Atom            X                  Y                   Z
    ------   -----------------  -----------------  -----------------
       1       -0.000743984573    -0.000179411505    -0.002933918718
       2        0.001280051342     0.000188516374     0.005554594354
       3        0.000033873606     0.000010569392     0.000123490550
       4       -0.000854629297     0.000140939744    -0.005080989016
       5       -0.000005744275     0.000014511154    -0.000029174399
       6        0.000002148755    -0.000001653291    -0.000010902731
       7       -0.000004948314    -0.000024369102    -0.000023342946
       8        0.000322101707    -0.000169689892     0.002422346551
       9       -0.000042832815     0.000036721103    -0.000009349907
      10        0.000005980298     0.000003684111    -0.000003059001
      11       -0.000003867262    -0.000000631604     0.000000454815
      12        0.000000379474    -0.000005503101    -0.000004992378
      13        0.000007202692    -0.000009133914    -0.000005467904
      14        0.000004268664    -0.000004549464     0.000000310730

  **** Optimization is complete! (in 7 steps) ****
    Final optimized geometry and variables:
    Molecular point group: c1

    Geometry (in Angstrom), charge = 0, multiplicity = 1:

    O           -0.666028026480     1.345197827182    -0.229132122220
    C           -0.844880612291     0.180439403964    -0.117800705174
    C           -2.163243339581    -0.451917228356     0.227316839169
    O            0.092223054016    -0.732060757772    -0.313301281142
    H           -2.436242870096    -1.166723064345    -0.537805202847
    H           -2.919524444065     0.311170997258     0.313503620867
    H           -2.070439776266    -0.990520377169     1.161901356476
    C            1.440759726533    -0.305758914997    -0.466543789240
    C            2.098475949660    -0.044445767923     0.872556915787
    H            1.468702713731     0.572148364778    -1.092714548164
    H            1.927932940349    -1.119561369043    -0.982136214589
    H            3.140384937531     0.213583791996     0.720882978526
    H            1.618430750924     0.777432906062     1.386604849189
    H            2.053600747510    -0.926194373472     1.500256319408

  Mulliken Charges: (a.u.)
   Center  Symbol    Alpha    Beta     Spin     Total
       1     O     4.19839  4.19839  0.00000 -0.39677
       2     C     2.80111  2.80111  0.00000  0.39779
       3     C     3.13827  3.13827  0.00000 -0.27654
       4     O     4.15844  4.15844  0.00000 -0.31689
       5     H     0.44501  0.44501  0.00000  0.10998
       6     H     0.43829  0.43829  0.00000  0.12343
       7     H     0.44697  0.44697  0.00000  0.10606
       8     C     2.98589  2.98589  0.00000  0.02823
       9     C     3.14950  3.14950  0.00000 -0.29900
      10     H     0.44749  0.44749  0.00000  0.10501
      11     H     0.44469  0.44469  0.00000  0.11062
      12     H     0.45075  0.45075  0.00000  0.09851
      13     H     0.44327  0.44327  0.00000  0.11345
      14     H     0.45194  0.45194  0.00000  0.09612

   Total alpha = 24.00000, Total beta = 24.00000, Total charge = -0.00000
