  ==> Input File <==

--------------------------------------------------------------------------
set {
	reference rhf
	basis 6-31G*
}

set_num_threads( 1 )
memory 2 gb

molecule MOL {
0 1

H	 -2.197399	 0.427171	 0.828472
N	 -1.852125	 0.165761	 -0.074816
C	 -0.563778	 -0.502042	 0.037919
H	 -1.764522	 1.010633	 -0.607049
C	 0.575259	 0.508231	 -0.048326
H	 -0.482092	 -1.204004	 -0.786564
H	 -0.460411	 -1.085169	 0.956626
C	 1.954651	 -0.143624	 0.035137
H	 0.475158	 1.060484	 -0.977307
H	 0.469181	 1.234488	 0.755973
H	 2.103292	 -0.853109	 -0.774172
H	 2.742821	 0.599562	 -0.030094
H	 2.083613	 -0.679371	 0.971560

	symmetry c1
}
set optking {
	frozen_dihedral = ("
		6 3 5 9
	")
}

ee = energy('scf')
oeprop('DIPOLE', 'QUADRUPOLE', 'MULLIKEN_CHARGES')
f=open( 'psi4out.xyz', 'w' )
f.write( "13  " )
f.write( str(ee) + "\n" )
f.write( MOL.save_string_xyz() )
f.close()
--------------------------------------------------------------------------

    Molecular point group: c1

    Geometry (in Angstrom), charge = 0, multiplicity = 1:

       Center              X                  Y                   Z               Mass
    ------------   -----------------  -----------------  -----------------  -----------------
           H         -2.208419493161     0.407083741063     0.835426192179     1.007825032070
           N         -1.863145493161     0.145673741063    -0.067861807821    14.003074004780
           C         -0.574798493161    -0.522129258937     0.044873192179    12.000000000000
           H         -1.775542493161     0.990545741063    -0.600094807821     1.007825032070
           C          0.564238506839     0.488143741063    -0.041371807821    12.000000000000
           H         -0.493112493161    -1.224091258937    -0.779609807821     1.007825032070
           H         -0.471431493161    -1.105256258937     0.963580192179     1.007825032070
           C          1.943630506839    -0.163711258937     0.042091192179    12.000000000000
           H          0.464137506839     1.040396741063    -0.970352807821     1.007825032070
           H          0.458160506839     1.214400741063     0.762927192179     1.007825032070
           H          2.092271506839    -0.873196258937    -0.767217807821     1.007825032070
           H          2.731800506839     0.579474741063    -0.023139807821     1.007825032070
           H          2.072592506839    -0.699458258937     0.978514192179     1.007825032070

  Charge       = 0
  Multiplicity = 1
  Basis Set: 6-31G*
  Basis Set:

    Orbital Energies (a.u.)
    -----------------------

    Doubly Occupied:

       1A    -15.530568     2A    -11.240437     3A    -11.216391
       4A    -11.211837     5A     -1.178361     6A     -1.036712
       7A     -0.899235     8A     -0.808704     9A     -0.673703
      10A     -0.611714    11A     -0.604978    12A     -0.561142
      13A     -0.536267    14A     -0.505730    15A     -0.487786
      16A     -0.472040    17A     -0.374157

  @DF-RHF Final Energy:  -173.27832553128695

   => Energetics <=

    Nuclear Repulsion Energy =            132.2130424412192156
    One-Electron Energy =                -495.0832014454243222
    Two-Electron Energy =                 189.5918334729181538
    DFT Exchange-Correlation Energy =       0.0000000000000000
    Empirical Dispersion Energy =           0.0000000000000000
    PCM Polarization Energy =               0.0000000000000000
    EFP Energy =                            0.0000000000000000
    Total Energy =                       -173.2783255312869528

  Mulliken Charges: (a.u.)
   Center  Symbol    Alpha    Beta     Spin     Total
       1     H     0.33384  0.33384  0.00000  0.33232
       2     N     3.92253  3.92253  0.00000 -0.84507
       3     C     3.05606  3.05606  0.00000 -0.11211
       4     H     0.33271  0.33271  0.00000  0.33459
       5     C     3.16210  3.16210  0.00000 -0.32420
       6     H     0.41886  0.41886  0.00000  0.16228
       7     H     0.42155  0.42155  0.00000  0.15690
       8     C     3.24381  3.24381  0.00000 -0.48763
       9     H     0.42406  0.42406  0.00000  0.15189
      10     H     0.42509  0.42509  0.00000  0.14981
      11     H     0.41986  0.41986  0.00000  0.16028
      12     H     0.41823  0.41823  0.00000  0.16355
      13     H     0.42130  0.42130  0.00000  0.15740

   Total alpha = 17.00000, Total beta = 17.00000, Total charge = -0.00000
