                              Psi4 1.0.54 Driver

  ==> Input File <==

--------------------------------------------------------------------------
set {
	reference rhf
	basis cc-pvtz
}

set_num_threads( 4 )
memory 2 gb

molecule MOL {
0 1

O	 -0.694481	 1.313155	 -0.204815
C	 -0.862519	 0.151932	 -0.046791
C	 -2.171428	 -0.477048	 0.339095
O	 0.085519	 -0.757083	 -0.192238
H	 -2.467997	 -1.191667	 -0.417688
H	 -2.923379	 0.287970	 0.444097
H	 -2.053854	 -1.015120	 1.270901
C	 1.392036	 -0.330828	 -0.560749
C	 2.178034	 -1.443311	 -1.222933
H	 1.904397	 0.040499	 0.312989
H	 1.229660	 0.486610	 -1.247174
H	 3.139990	 -1.064053	 -1.548898
H	 2.350166	 -2.258349	 -0.533392
H	 1.649713	 -1.821542	 -2.089773

	symmetry c1
}
set optking {
	frozen_dihedral = ("
		10 8 4 2
	")
}

ee,wfn = optimize('scf', return_wfn=True)
oeprop( wfn, 'DIPOLE', 'QUADRUPOLE', 'MULLIKEN_CHARGES')
f=open( 'psi4out.xyz', 'w' )
f.write( "14  " )
f.write( str(ee) + "\n" )
f.write( MOL.save_string_xyz() )
f.close()
--------------------------------------------------------------------------

    Molecular point group: c1
  Charge       = 0
  Multiplicity = 1
  Basis Set: CC-PVTZ
  Basis Set:
  @DF-RHF Final Energy:  -305.98984745911747
    Total Energy =                       -305.9898474591172999
    Molecular point group: c1
  Basis Set: CC-PVTZ
  Basis Set:
  Basis Set: CC-PVTZ
  Basis Set:
  @DF-RHF Final Energy:  -305.99114355181439
    Total Energy =                       -305.9911435518142753
  Basis Set: CC-PVTZ
  Basis Set:
  Basis Set: CC-PVTZ
  Basis Set:
  @DF-RHF Final Energy:  -305.99135587700061
    Total Energy =                       -305.9913558770005011
  Basis Set: CC-PVTZ
  Basis Set:
  Basis Set: CC-PVTZ
  Basis Set:
  @DF-RHF Final Energy:  -305.99147394861990
    Total Energy =                       -305.9914739486198414
  Basis Set: CC-PVTZ
  Basis Set:
  Basis Set: CC-PVTZ
  Basis Set:
  @DF-RHF Final Energy:  -305.99153304582268
    Total Energy =                       -305.9915330458223934
  Basis Set: CC-PVTZ
  Basis Set:
  Charge       = 0
  Multiplicity = 1
  Basis Set: CC-PVTZ
  Basis Set:

    Orbital Energies (a.u.)
    -----------------------

    Doubly Occupied:

       1A    -20.594761     2A    -20.532946     3A    -11.367437
       4A    -11.283114     5A    -11.231615     6A    -11.220920
       7A     -1.470829     8A     -1.365939     9A     -1.058969
      10A     -1.000971    11A     -0.872913    12A     -0.781428
      13A     -0.695522    14A     -0.688887    15A     -0.668696
      16A     -0.612537    17A     -0.581737    18A     -0.564664
      19A     -0.555866    20A     -0.540376    21A     -0.511871
      22A     -0.502762    23A     -0.456563    24A     -0.442120

  @DF-RHF Final Energy:  -305.99153327565858

   => Energetics <=

    Nuclear Repulsion Energy =            246.0424158613603254
    One-Electron Energy =                -904.8610078583598124
    Two-Electron Energy =                 352.8270587213407907
    DFT Exchange-Correlation Energy =       0.0000000000000000
    Empirical Dispersion Energy =           0.0000000000000000
    PCM Polarization Energy =               0.0000000000000000
    EFP Energy =                            0.0000000000000000
    Total Energy =                       -305.9915332756586395
    Molecular point group: c1
  Basis Set: CC-PVTZ
  Basis Set:

  -Total Gradient:
     Atom            X                  Y                   Z
    ------   -----------------  -----------------  -----------------
       1       -0.000116887283     0.000097179648     0.000024288271
       2       -0.000345420389    -0.000075830703    -0.001306928882
       3        0.000018953442     0.000007578340    -0.000039160347
       4        0.000725718753    -0.000236478236     0.001935544749
       5        0.000015641509     0.000007058651     0.000004962918
       6        0.000002494480     0.000006109754     0.000002858965
       7       -0.000001487262    -0.000001255880     0.000016456452
       8       -0.000895555792     0.001676105987    -0.000862351111
       9        0.000039414857    -0.000016960929     0.000030225561
      10        0.000593105343    -0.001447812276     0.000209844115
      11       -0.000043171527    -0.000005808858    -0.000000477251
      12       -0.000003970899    -0.000003382044    -0.000004271564
      13        0.000018167540    -0.000018243123    -0.000004236528
      14       -0.000007002771     0.000011739670    -0.000006755346

  **** Optimization is complete! (in 6 steps) ****
    Final optimized geometry and variables:
    Molecular point group: c1

    Geometry (in Angstrom), charge = 0, multiplicity = 1:

    O           -0.710158362929     1.560998948434     0.215523598403
    C           -0.851698525842     0.388936147453     0.299057461053
    C           -2.141035978845    -0.293323082062     0.659093025840
    O            0.115521399874    -0.486566852106     0.087614773606
    H           -2.433611288809    -0.962518539066    -0.139615895741
    H           -2.907350405226     0.446262743694     0.824682537221
    H           -1.998738987235    -0.889184767172     1.551443839478
    C            1.396429680227    -0.003844193154    -0.295764438867
    C            2.147634640871    -1.144658814561    -0.943616254817
    H            1.912861190119     0.341301747266     0.590474701548
    H            1.278546238833     0.830898751149    -0.968211516547
    H            3.140638438873    -0.814748453690    -1.225597135830
    H            2.245512216266    -1.980153369335    -0.261942581370
    H            1.634873046054    -1.487295011688    -1.833700001706

  Mulliken Charges: (a.u.)
   Center  Symbol    Alpha    Beta     Spin     Total
       1     O     4.19759  4.19759  0.00000 -0.39518
       2     C     2.80580  2.80580  0.00000  0.38840
       3     C     3.13872  3.13872  0.00000 -0.27744
       4     O     4.15336  4.15336  0.00000 -0.30671
       5     H     0.44618  0.44618  0.00000  0.10764
       6     H     0.43806  0.43806  0.00000  0.12387
       7     H     0.44559  0.44559  0.00000  0.10881
       8     C     2.97956  2.97956  0.00000  0.04088
       9     C     3.13254  3.13254  0.00000 -0.26509
      10     H     0.45640  0.45640  0.00000  0.08719
      11     H     0.44841  0.44841  0.00000  0.10319
      12     H     0.45456  0.45456  0.00000  0.09088
      13     H     0.45136  0.45136  0.00000  0.09728
      14     H     0.45185  0.45185  0.00000  0.09629

   Total alpha = 24.00000, Total beta = 24.00000, Total charge =  0.00000

*** Psi4 exiting successfully. Buy a developer a beer!
