  ==> Input File <==

--------------------------------------------------------------------------
set {
	reference rhf
	basis 6-31G*
}

set_num_threads( 4 )
memory 2 gb

molecule MOL {
0 1

O	 1.147852	 1.329962	 0.851334
C	 -0.017926	 1.266460	 0.629520
C	 -0.982072	 2.416076	 0.744199
O	 -0.632575	 0.154573	 0.251549
H	 -1.754709	 2.175523	 1.465389
H	 -0.451784	 3.304594	 1.052689
H	 -1.465736	 2.584925	 -0.210953
C	 0.160891	 -1.019931	 0.106212
C	 1.589627	 -0.672828	 0.480843
H	 0.089836	 -1.367806	 -0.916050
H	 -0.238459	 -1.792301	 0.749618
C	 2.246377	 0.346236	 -0.452210
H	 2.163194	 -1.597435	 0.473358
H	 1.604769	 -0.303424	 1.502885
C	 3.691736	 0.652107	 -0.061850
H	 2.219579	 -0.032311	 -1.472055
H	 1.666466	 1.263317	 -0.447249
H	 4.134505	 1.377213	 -0.737283
H	 4.305508	 -0.243868	 -0.089969
H	 3.748266	 1.059562	 0.943567

	symmetry c1
}
set optking {
	frozen_dihedral = ("
		2 4 8 10
	")
}

ee = optimize('scf')
oeprop('DIPOLE', 'QUADRUPOLE', 'MULLIKEN_CHARGES')
f=open( 'psi4out.xyz', 'w' )
f.write( "20  " )
f.write( str(ee) + "\n" )
f.write( MOL.save_string_xyz() )
f.close()
--------------------------------------------------------------------------

    Molecular point group: c1
  Charge       = 0
  Multiplicity = 1
  Basis Set: 6-31G*
  Basis Set:
  @DF-RHF Final Energy:  -383.78060035360164
    Total Energy =                       -383.7806003536014714
    Molecular point group: c1
  Basis Set: 6-31G*
  Basis Set:
  Basis Set: 6-31G*
  Basis Set:
  @DF-RHF Final Energy:  -383.84454415325916
    Total Energy =                       -383.8445441532591076
  Basis Set: 6-31G*
  Basis Set:
  Basis Set: 6-31G*
  Basis Set:
  @DF-RHF Final Energy:  -383.87825024175220
    Total Energy =                       -383.8782502417519709
  Basis Set: 6-31G*
  Basis Set:
  Basis Set: 6-31G*
  Basis Set:
  @DF-RHF Final Energy:  -383.90461662948206
    Total Energy =                       -383.9046166294823479
  Basis Set: 6-31G*
  Basis Set:
  @DF-RHF Final Energy:  -383.91927275589165
    Total Energy =                       -383.9192727558913703
  @DF-RHF Final Energy:  -383.92409035109290
    Total Energy =                       -383.9240903510929002
  @DF-RHF Final Energy:  -383.92875092496598
    Total Energy =                       -383.9287509249661525
  @DF-RHF Final Energy:  -383.92999945345468
    Total Energy =                       -383.9299994534546840
  @DF-RHF Final Energy:  -383.93051587879029
    Total Energy =                       -383.9305158787898336
  @DF-RHF Final Energy:  -383.93080192498593
    Total Energy =                       -383.9308019249860990
  @DF-RHF Final Energy:  -383.93107951268138
    Total Energy =                       -383.9310795126817766
  @DF-RHF Final Energy:  -383.93129376406404
    Total Energy =                       -383.9312937640642076
  @DF-RHF Final Energy:  -383.93134683530991
    Total Energy =                       -383.9313468353101371
  @DF-RHF Final Energy:  -383.93135450264390
    Total Energy =                       -383.9313545026438987
  Basis Set: 6-31G*
  Basis Set:
  @DF-RHF Final Energy:  -383.93135700609548
    Total Energy =                       -383.9313570060954817
  Basis Set: 6-31G*
  Basis Set:
  Basis Set: 6-31G*
  Basis Set:
  @DF-RHF Final Energy:  -383.93135806557234
    Total Energy =                       -383.9313580655723399
  Basis Set: 6-31G*
  Basis Set:
  Basis Set: 6-31G*
  Basis Set:
  @DF-RHF Final Energy:  -383.93135935029653
    Total Energy =                       -383.9313593502961339
  Basis Set: 6-31G*
  Basis Set:
  Charge       = 0
  Multiplicity = 1
  Basis Set: 6-31G*
  Basis Set:

    Orbital Energies (a.u.)
    -----------------------

    Doubly Occupied:

       1A    -20.598994     2A    -20.540669     3A    -11.377199
       4A    -11.290446     5A    -11.230277     6A    -11.219992
       7A    -11.210908     8A    -11.204460     9A     -1.459875
      10A     -1.362266    11A     -1.080450    12A     -1.025080
      13A     -0.977689    14A     -0.894376    15A     -0.811063
      16A     -0.743530    17A     -0.685235    18A     -0.677834
      19A     -0.671828    20A     -0.626859    21A     -0.603646
      22A     -0.588171    23A     -0.565556    24A     -0.558817
      25A     -0.539636    26A     -0.523933    27A     -0.515100
      28A     -0.475830    29A     -0.468235    30A     -0.464586
      31A     -0.438921    32A     -0.429156

  @DF-RHF Final Energy:  -383.93136018199652

   => Energetics <=

    Nuclear Repulsion Energy =            394.6830179892248225
    One-Electron Energy =               -1305.5075227904635540
    Two-Electron Energy =                 526.8931446192425483
    DFT Exchange-Correlation Energy =       0.0000000000000000
    Empirical Dispersion Energy =           0.0000000000000000
    PCM Polarization Energy =               0.0000000000000000
    EFP Energy =                            0.0000000000000000
    Total Energy =                       -383.9313601819961832
    Molecular point group: c1
  Basis Set: 6-31G*
  Basis Set:

  -Total Gradient:
     Atom            X                  Y                   Z
    ------   -----------------  -----------------  -----------------
       1        0.000002267295     0.000002086250     0.000071150984
       2        0.000231176817     0.000629773823    -0.001574262216
       3       -0.000011757165    -0.000003896661    -0.000012796324
       4       -0.000190764889    -0.000627667544     0.002394369719
       5        0.000000435878     0.000000856800     0.000001667168
       6       -0.000003064562     0.000003371560     0.000003700820
       7        0.000003044536    -0.000001288877    -0.000000800316
       8       -0.001246656039    -0.001102020080    -0.000459865212
       9       -0.000025300255     0.000055192290    -0.000002201039
      10        0.001211705888     0.001092335010    -0.000362548817
      11        0.000023453274     0.000002733649     0.000003149914
      12       -0.000006564830     0.000018750874     0.000030974181
      13        0.000008789884    -0.000021815364     0.000001575233
      14       -0.000008887519    -0.000025796138    -0.000014267724
      15       -0.000033958745    -0.000000062580     0.000008852036
      16       -0.000008946379    -0.000005363693    -0.000012480053
      17        0.000054538918    -0.000019744050    -0.000073822056
      18        0.000004927432     0.000002125735     0.000001767527
      19       -0.000003711559     0.000001715773    -0.000002926665
      20       -0.000000727977    -0.000001286781    -0.000001237160

  **** Optimization is complete! (in 18 steps) ****
    Final optimized geometry and variables:
    Molecular point group: c1

    Geometry (in Angstrom), charge = 0, multiplicity = 1:

    O           -0.114201349410     1.281182826295     0.767646420936
    C           -1.189221812123     0.891585916372     0.443521736343
    C           -2.438269454877     1.734670312711     0.495097664982
    O           -1.479165263572    -0.319821838097     0.001915261700
    H           -3.176098616910     1.259431909833     1.130840437101
    H           -2.196323044479     2.715482000307     0.876538820010
    H           -2.865337941162     1.817214587775    -0.497701871183
    C           -0.585512395131    -1.414461861961    -0.248300819836
    C            0.902103952770    -1.284652988829     0.070304998401
    H           -0.707221244906    -1.637167576310    -1.300825629211
    H           -1.008959189947    -2.231562067359     0.319078736973
    C            1.723354934898    -0.512339447706    -0.964194903661
    H            1.268969791440    -2.310237078416     0.100126419939
    H            1.046954547654    -0.872780992851     1.058938809202
    C            3.202450689652    -0.441522691373    -0.587917823673
    H            1.620301172527    -0.999719028093    -1.932671556032
    H            1.334379284903     0.491755821013    -1.070487012338
    H            3.773757322330     0.085669417413    -1.345551773329
    H            3.632539912371    -1.433981715717    -0.480520259406
    H            3.336514359402     0.083386401873     0.352858201331

  Mulliken Charges: (a.u.)
   Center  Symbol    Alpha    Beta     Spin     Total
       1     O     4.28426  4.28426  0.00000 -0.56852
       2     C     2.61856  2.61856  0.00000  0.76288
       3     C     3.27950  3.27950  0.00000 -0.55900
       4     O     4.31960  4.31960  0.00000 -0.63919
       5     H     0.40138  0.40138  0.00000  0.19724
       6     H     0.39840  0.39840  0.00000  0.20321
       7     H     0.40183  0.40183  0.00000  0.19634
       8     C     2.98780  2.98780  0.00000  0.02440
       9     C     3.17358  3.17358  0.00000 -0.34715
      10     H     0.41393  0.41393  0.00000  0.17214
      11     H     0.41109  0.41109  0.00000  0.17782
      12     C     3.15323  3.15323  0.00000 -0.30646
      13     H     0.42231  0.42231  0.00000  0.15537
      14     H     0.39896  0.39896  0.00000  0.20208
      15     C     3.24152  3.24152  0.00000 -0.48304
      16     H     0.42897  0.42897  0.00000  0.14207
      17     H     0.40556  0.40556  0.00000  0.18888
      18     H     0.41923  0.41923  0.00000  0.16154
      19     H     0.42499  0.42499  0.00000  0.15003
      20     H     0.41531  0.41531  0.00000  0.16938

   Total alpha = 32.00000, Total beta = 32.00000, Total charge = -0.00000
