                              Psi4 1.0.54 Driver

  ==> Input File <==

--------------------------------------------------------------------------
set {
	reference rhf
	basis cc-pvtz
}

set_num_threads( 4 )
memory 2 gb

molecule MOL {
0 1

O	 -0.294688	 1.318815	 -0.000872
C	 -0.448732	 0.145721	 -0.000187
C	 -1.780748	 -0.548101	 0.000195
O	 0.550743	 -0.719877	 0.000412
H	 -1.859389	 -1.183260	 -0.872613
H	 -2.570236	 0.185547	 -0.001342
H	 -1.860233	 -1.180337	 0.875064
C	 1.850686	 -0.208336	 0.218444
H	 2.113225	 0.503768	 -0.549678
H	 2.514083	 -1.057030	 0.182317
H	 1.913239	 0.273723	 1.182668

	symmetry c1
}
set optking {
	frozen_dihedral = ("
		8 4 2 1
	")
}

ee,wfn = optimize('scf', return_wfn=True)
oeprop( wfn, 'DIPOLE', 'QUADRUPOLE', 'MULLIKEN_CHARGES')
f=open( 'psi4out.xyz', 'w' )
f.write( "11  " )
f.write( str(ee) + "\n" )
f.write( MOL.save_string_xyz() )
f.close()
--------------------------------------------------------------------------

    Molecular point group: c1
  Charge       = 0
  Multiplicity = 1
  Basis Set: CC-PVTZ
  Basis Set:
  @DF-RHF Final Energy:  -266.93859992688374
    Total Energy =                       -266.9385999268835121
    Molecular point group: c1
  Basis Set: CC-PVTZ
  Basis Set:
  Basis Set: CC-PVTZ
  Basis Set:
  @DF-RHF Final Energy:  -266.93736532416438
    Total Energy =                       -266.9373653241644888
  Basis Set: CC-PVTZ
  Basis Set:
  Basis Set: CC-PVTZ
  Basis Set:
  @DF-RHF Final Energy:  -266.93865352736714
    Total Energy =                       -266.9386535273670233
  Basis Set: CC-PVTZ
  Basis Set:
  Basis Set: CC-PVTZ
  Basis Set:
  @DF-RHF Final Energy:  -266.93867772742169
    Total Energy =                       -266.9386777274214069
  Basis Set: CC-PVTZ
  Basis Set:
  Basis Set: CC-PVTZ
  Basis Set:
  @DF-RHF Final Energy:  -266.93867993419269
    Total Energy =                       -266.9386799341926917
  Basis Set: CC-PVTZ
  Basis Set:
  Basis Set: CC-PVTZ
  Basis Set:
  @DF-RHF Final Energy:  -266.93868168511028
    Total Energy =                       -266.9386816851103958
  Basis Set: CC-PVTZ
  Basis Set:
  Basis Set: CC-PVTZ
  Basis Set:
  @DF-RHF Final Energy:  -266.93868332161128
    Total Energy =                       -266.9386833216113928
  Basis Set: CC-PVTZ
  Basis Set:
  Charge       = 0
  Multiplicity = 1
  Basis Set: CC-PVTZ
  Basis Set:

    Orbital Energies (a.u.)
    -----------------------

    Doubly Occupied:

       1A    -20.598358     2A    -20.535601     3A    -11.369000
       4A    -11.280313     5A    -11.233415     6A     -1.473925
       7A     -1.367766     8A     -1.036741     9A     -0.953803
      10A     -0.780189    11A     -0.698070    12A     -0.684339
      13A     -0.681091    14A     -0.596150    15A     -0.593534
      16A     -0.562167    17A     -0.528106    18A     -0.524071
      19A     -0.462233    20A     -0.445870

  @DF-RHF Final Energy:  -266.93868362251254

   => Energetics <=

    Nuclear Repulsion Energy =            183.6530761863603516
    One-Electron Energy =                -728.3740380698454828
    Two-Electron Energy =                 277.7822782609723617
    DFT Exchange-Correlation Energy =       0.0000000000000000
    Empirical Dispersion Energy =           0.0000000000000000
    PCM Polarization Energy =               0.0000000000000000
    EFP Energy =                            0.0000000000000000
    Total Energy =                       -266.9386836225128263
    Molecular point group: c1
  Basis Set: CC-PVTZ
  Basis Set:

  -Total Gradient:
     Atom            X                  Y                   Z
    ------   -----------------  -----------------  -----------------
       1       -0.000121552337     0.000199837509    -0.003541395607
       2       -0.000024593806    -0.000418621385     0.006714543001
       3        0.000020614108     0.000142910219    -0.000088917712
       4        0.000490857174     0.000595534164    -0.005623129183
       5        0.000001468414    -0.000047586839    -0.000167467868
       6       -0.000185827038     0.000027644726    -0.000006532296
       7       -0.000032135801    -0.000058343413     0.000150395928
       8       -0.000390192728    -0.000599347173     0.002492470155
       9        0.000126282086     0.000088989396    -0.000100221808
      10        0.000074632966     0.000018477993     0.000016926718
      11        0.000040446962     0.000050504805     0.000153328672

  **** Optimization is complete! (in 8 steps) ****
    Final optimized geometry and variables:
    Molecular point group: c1

    Geometry (in Angstrom), charge = 0, multiplicity = 1:

    O           -0.296034607484     1.321682273901     0.006217039725
    C           -0.447353833863     0.148856985777    -0.027556688928
    C           -1.778093753365    -0.546608911995    -0.063370346556
    O            0.554762648883    -0.714010580340    -0.069903068274
    H           -1.826127343369    -1.197273857897    -0.926864041250
    H           -2.568724877198     0.185132695620    -0.101941595808
    H           -1.886311948222    -1.163400719292     0.820096094729
    C            1.856959300335    -0.206276587708     0.143600192217
    H            2.130623283783     0.488905510632    -0.636124832873
    H            2.515561811480    -1.059417998903     0.129048049757
    H            1.916304206206     0.293927651924     1.099359560888

  Mulliken Charges: (a.u.)
   Center  Symbol    Alpha    Beta     Spin     Total
       1     O     4.19593  4.19593  0.00000 -0.39187
       2     C     2.80186  2.80186  0.00000  0.39627
       3     C     3.13769  3.13769  0.00000 -0.27538
       4     O     4.14821  4.14821  0.00000 -0.29643
       5     H     0.44475  0.44475  0.00000  0.11049
       6     H     0.43792  0.43792  0.00000  0.12416
       7     H     0.44639  0.44639  0.00000  0.10723
       8     C     3.03328  3.03328  0.00000 -0.06657
       9     H     0.45235  0.45235  0.00000  0.09530
      10     H     0.44548  0.44548  0.00000  0.10905
      11     H     0.45613  0.45613  0.00000  0.08774

   Total alpha = 20.00000, Total beta = 20.00000, Total charge = -0.00000

*** Psi4 exiting successfully. Buy a developer a beer!
