  ==> Input File <==

--------------------------------------------------------------------------
set {
	reference rhf
	basis cc-pvtz
}

set_num_threads( 4 )
memory 2 gb

molecule MOL {
0 1

H	 -1.088256	 -1.364742	 0.152233
O	 -1.432053	 -0.565244	 -0.200812
C	 -0.727158	 0.534527	 0.310686
C	 0.680222	 0.664433	 -0.252229
H	 -1.306802	 1.408001	 0.044211
H	 -0.690821	 0.490158	 1.397609
C	 0.722700	 1.012406	 -1.737206
H	 1.212368	 1.419717	 0.316627
H	 1.195286	 -0.277980	 -0.087257
H	 0.269705	 1.978090	 -1.933098
H	 1.743892	 1.060242	 -2.095579
H	 0.200007	 0.268499	 -2.330797

	symmetry c1
}
set optking {
	frozen_dihedral = ("
		8 4 3 2
	")
}

ee = optimize('scf')
oeprop('DIPOLE', 'QUADRUPOLE', 'MULLIKEN_CHARGES')
f=open( 'psi4out.xyz', 'w' )
f.write( "12  " )
f.write( str(ee) + "\n" )
f.write( MOL.save_string_xyz() )
f.close()
--------------------------------------------------------------------------

    Molecular point group: c1
  Charge       = 0
  Multiplicity = 1
  Basis Set: CC-PVTZ
  Basis Set:
  @DF-RHF Final Energy:  -193.19060668868548
    Total Energy =                       -193.1906066886854774
    Molecular point group: c1
  Basis Set: CC-PVTZ
  Basis Set:
  Basis Set: CC-PVTZ
  Basis Set:
  @DF-RHF Final Energy:  -193.19078383211112
    Total Energy =                       -193.1907838321110660
  Basis Set: CC-PVTZ
  Basis Set:
  Basis Set: CC-PVTZ
  Basis Set:
  @DF-RHF Final Energy:  -193.19081073450394
    Total Energy =                       -193.1908107345040264
  Basis Set: CC-PVTZ
  Basis Set:
  Basis Set: CC-PVTZ
  Basis Set:
  @DF-RHF Final Energy:  -193.19081354466488
    Total Energy =                       -193.1908135446647066
  Basis Set: CC-PVTZ
  Basis Set:
  Charge       = 0
  Multiplicity = 1
  Basis Set: CC-PVTZ
  Basis Set:

    Orbital Energies (a.u.)
    -----------------------

    Doubly Occupied:

       1A    -20.546626     2A    -11.266123     3A    -11.218372
       4A    -11.206707     5A     -1.364718     6A     -1.050247
       7A     -0.922105     8A     -0.816153     9A     -0.682172
      10A     -0.638450    11A     -0.626374    12A     -0.568011
      13A     -0.531090    14A     -0.523512    15A     -0.485033
      16A     -0.468540    17A     -0.432756

  @DF-RHF Final Energy:  -193.19081373804306

   => Energetics <=

    Nuclear Repulsion Energy =            133.0418427187984207
    One-Electron Energy =                -525.7713379693024081
    Two-Electron Energy =                 199.5386815124609257
    DFT Exchange-Correlation Energy =       0.0000000000000000
    Empirical Dispersion Energy =           0.0000000000000000
    PCM Polarization Energy =               0.0000000000000000
    EFP Energy =                            0.0000000000000000
    Total Energy =                       -193.1908137380430617
    Molecular point group: c1
  Basis Set: CC-PVTZ
  Basis Set:

  -Total Gradient:
     Atom            X                  Y                   Z
    ------   -----------------  -----------------  -----------------
       1        0.000006295410     0.000006635500     0.000003832229
       2        0.000429591135    -0.000722752692     0.000950084388
       3       -0.000460832555     0.000762724119    -0.001053511830
       4       -0.000458509409     0.001130367141    -0.000917198790
       5       -0.000008396450    -0.000018473571    -0.000011989954
       6       -0.000008801528    -0.000010252747     0.000001900985
       7        0.000017546725    -0.000003064526    -0.000001615282
       8        0.000494977383    -0.001126787132     0.001028749682
       9        0.000006791405    -0.000008083703    -0.000006582295
      10        0.000013727107    -0.000002332402     0.000011346815
      11       -0.000023819651     0.000005126835     0.000006162036
      12       -0.000008569574    -0.000013106821    -0.000011177982

  **** Optimization is complete! (in 5 steps) ****
    Final optimized geometry and variables:
    Molecular point group: c1

    Geometry (in Angstrom), charge = 0, multiplicity = 1:

    H           -0.799277772606    -1.727650330052     0.530637693673
    O           -1.214450186812    -0.927933082679     0.263111073534
    C           -0.507155485488     0.169415989124     0.777245725032
    C            0.902119037876     0.287180643042     0.215579978484
    H           -1.088021607569     1.046157681416     0.520325679568
    H           -0.466809476279     0.114632653866     1.862301120856
    C            0.941631047912     0.617598176142    -1.271844850916
    H            1.437204906279     1.041041617940     0.786297081126
    H            1.426426136762    -0.649148518824     0.397294640222
    H            0.487633593754     1.583693450444    -1.465772266493
    H            1.961235123532     0.651492631520    -1.637654744450
    H            0.401211940298    -0.123501335196    -1.846959688928

  Mulliken Charges: (a.u.)
   Center  Symbol    Alpha    Beta     Spin     Total
       1     H     0.39461  0.39461  0.00000  0.21078
       2     O     4.20421  4.20421  0.00000 -0.40842
       3     C     2.97204  2.97204  0.00000  0.05593
       4     C     3.08816  3.08816  0.00000 -0.17632
       5     H     0.46049  0.46049  0.00000  0.07902
       6     H     0.46287  0.46287  0.00000  0.07426
       7     C     3.14717  3.14717  0.00000 -0.29435
       8     H     0.45465  0.45465  0.00000  0.09069
       9     H     0.46165  0.46165  0.00000  0.07671
      10     H     0.45588  0.45588  0.00000  0.08824
      11     H     0.45036  0.45036  0.00000  0.09927
      12     H     0.44791  0.44791  0.00000  0.10419

   Total alpha = 17.00000, Total beta = 17.00000, Total charge = -0.00000
