  ==> Input File <==

--------------------------------------------------------------------------
set {
	reference rhf
	basis 6-31G*
}

set_num_threads( 4 )
memory 2 gb

molecule MOL {
0 1

H	 0.080339	 -0.121822	 -0.435661
N	 -0.626943	 -0.667432	 -0.000092
C	 -1.979713	 -0.158776	 0.000050
C	 -0.274589	 -1.849402	 0.561119
H	 -2.520245	 -0.492427	 -0.879443
H	 -1.934741	 0.918111	 -0.004428
H	 -2.517790	 -0.485056	 0.883818
C	 1.198373	 -2.186957	 0.445262
O	 -1.056914	 -2.576718	 1.108105
H	 1.804174	 -1.428799	 0.931632
H	 1.375854	 -3.142117	 0.916290
H	 1.498915	 -2.238916	 -0.596521

	symmetry c1
}
set optking {
	frozen_dihedral = ("
		4 2 3 5
	")
}

ee = optimize('scf')
oeprop('DIPOLE', 'QUADRUPOLE', 'MULLIKEN_CHARGES')
f=open( 'psi4out.xyz', 'w' )
f.write( "12  " )
f.write( str(ee) + "\n" )
f.write( MOL.save_string_xyz() )
f.close()
--------------------------------------------------------------------------

    Molecular point group: c1
  Charge       = 0
  Multiplicity = 1
  Basis Set: 6-31G*
  Basis Set:
  @DF-RHF Final Energy:  -247.00524362010214
    Total Energy =                       -247.0052436201021919
    Molecular point group: c1
  Basis Set: 6-31G*
  Basis Set:
  Basis Set: 6-31G*
  Basis Set:
  @DF-RHF Final Energy:  -247.00550235407053
    Total Energy =                       -247.0055023540702450
  Basis Set: 6-31G*
  Basis Set:
  Basis Set: 6-31G*
  Basis Set:
  @DF-RHF Final Energy:  -247.00552115372074
    Total Energy =                       -247.0055211537206787
  Basis Set: 6-31G*
  Basis Set:
  Basis Set: 6-31G*
  Basis Set:
  @DF-RHF Final Energy:  -247.00556556422299
    Total Energy =                       -247.0055655642230477
  Basis Set: 6-31G*
  Basis Set:
  @DF-RHF Final Energy:  -247.00559599270292
    Total Energy =                       -247.0055959927027516
  @DF-RHF Final Energy:  -247.00561244937177
    Total Energy =                       -247.0056124493715402
  @DF-RHF Final Energy:  -247.00561430808952
    Total Energy =                       -247.0056143080895481
  @DF-RHF Final Energy:  -247.00562490054563
    Total Energy =                       -247.0056249005455697
  @DF-RHF Final Energy:  -247.00563414125585
    Total Energy =                       -247.0056341412557117
  @DF-RHF Final Energy:  -247.00565062594993
    Total Energy =                       -247.0056506259498974
  @DF-RHF Final Energy:  -247.00565095003205
    Total Energy =                       -247.0056509500321340
  @DF-RHF Final Energy:  -247.00565248086542
    Total Energy =                       -247.0056524808653080
  @DF-RHF Final Energy:  -247.00565260993784
    Total Energy =                       -247.0056526099380108
  @DF-RHF Final Energy:  -247.00565186451809
    Total Energy =                       -247.0056518645181427
  @DF-RHF Final Energy:  -247.00565089313633
    Total Energy =                       -247.0056508931363624
  @DF-RHF Final Energy:  -247.00564617657014
    Total Energy =                       -247.0056461765699396
  @DF-RHF Final Energy:  -247.00565070537533
    Total Energy =                       -247.0056507053752739
  @DF-RHF Final Energy:  -247.00565058302746
    Total Energy =                       -247.0056505830274318
  @DF-RHF Final Energy:  -247.00564972916089
    Total Energy =                       -247.0056497291607798
  @DF-RHF Final Energy:  -247.00564930582968
    Total Energy =                       -247.0056493058297065
  @DF-RHF Final Energy:  -247.00564822997353
    Total Energy =                       -247.0056482299735308
  @DF-RHF Final Energy:  -247.00564838676320
    Total Energy =                       -247.0056483867630845
  @DF-RHF Final Energy:  -247.00564790360988
    Total Energy =                       -247.0056479036102246
  @DF-RHF Final Energy:  -247.00563589232004
    Total Energy =                       -247.0056358923201856
  @DF-RHF Final Energy:  -247.00564749745129
    Total Energy =                       -247.0056474974514913
  @DF-RHF Final Energy:  -247.00564528776803
    Total Energy =                       -247.0056452877679476
  @DF-RHF Final Energy:  -247.00564552367655
    Total Energy =                       -247.0056455236766055
  @DF-RHF Final Energy:  -247.00564569861015
    Total Energy =                       -247.0056456986101239
  @DF-RHF Final Energy:  -247.00564489130494
    Total Energy =                       -247.0056448913052236
  @DF-RHF Final Energy:  -247.00564433953892
    Total Energy =                       -247.0056443395388897
  @DF-RHF Final Energy:  -247.00564226160748
    Total Energy =                       -247.0056422616077043
  @DF-RHF Final Energy:  -247.00564485734418
    Total Energy =                       -247.0056448573442367
  @DF-RHF Final Energy:  -247.00564431791878
    Total Energy =                       -247.0056443179187227
  @DF-RHF Final Energy:  -247.00564310204797
    Total Energy =                       -247.0056431020483956
  @DF-RHF Final Energy:  -247.00564477549383
    Total Energy =                       -247.0056447754938063
  @DF-RHF Final Energy:  -247.00564445076907
    Total Energy =                       -247.0056444507690685
  Basis Set: 6-31G*
  Basis Set:
  @DF-RHF Final Energy:  -247.00564375363791
    Total Energy =                       -247.0056437536379121
  Basis Set: 6-31G*
  Basis Set:
  Basis Set: 6-31G*
  Basis Set:
  @DF-RHF Final Energy:  -247.00564273060058
    Total Energy =                       -247.0056427306006981
  Basis Set: 6-31G*
  Basis Set:
  Basis Set: 6-31G*
  Basis Set:
  @DF-RHF Final Energy:  -247.00564007629976
    Total Energy =                       -247.0056400762998123
  Basis Set: 6-31G*
  Basis Set:
  Charge       = 0
  Multiplicity = 1
  Basis Set: 6-31G*
  Basis Set:

    Orbital Energies (a.u.)
    -----------------------

    Doubly Occupied:

       1A    -20.516590     2A    -15.581165     3A    -11.342816
       4A    -11.254231     5A    -11.230184     6A     -1.385221
       7A     -1.227452     8A     -1.015456     9A     -0.931187
      10A     -0.786124    11A     -0.688729    12A     -0.648181
      13A     -0.632363    14A     -0.585301    15A     -0.580254
      16A     -0.555209    17A     -0.544790    18A     -0.505972
      19A     -0.413415    20A     -0.384809

  @DF-RHF Final Energy:  -247.00564411679255

   => Energetics <=

    Nuclear Repulsion Energy =            181.3201003685553019
    One-Electron Energy =                -695.0325941799233078
    Two-Electron Energy =                 266.7068496945753395
    DFT Exchange-Correlation Energy =       0.0000000000000000
    Empirical Dispersion Energy =           0.0000000000000000
    PCM Polarization Energy =               0.0000000000000000
    EFP Energy =                            0.0000000000000000
    Total Energy =                       -247.0056441167926096
    Molecular point group: c1
  Basis Set: 6-31G*
  Basis Set:

  -Total Gradient:
     Atom            X                  Y                   Z
    ------   -----------------  -----------------  -----------------
       1        0.000505929775     0.000227723148    -0.000092531768
       2        0.000104638698     0.001067406513    -0.001896270244
       3       -0.000168183407    -0.001775878947     0.000493172552
       4       -0.001354064429    -0.002595679037     0.003052463692
       5        0.000271233226     0.000042123842     0.000411862312
       6       -0.000359290951     0.001287117040     0.000272767916
       7       -0.000214365656     0.000471050568    -0.000676637269
       8        0.000492942333     0.000595018775    -0.001041029839
       9        0.000849707019     0.000955126945    -0.001074184091
      10        0.000177506701     0.000638646646    -0.000174844753
      11        0.000076597504    -0.001149048914     0.000261449056
      12       -0.000382650812     0.000236393425     0.000463782433

    Molecular point group: c1

    Geometry (in Angstrom), charge = 0, multiplicity = 1:

    H            0.656397950013     1.392733823290    -0.791369255898
    N           -0.048148312861     0.854240911055    -0.341716240510
    C           -1.416751732426     1.314358618314    -0.414721346384
    C            0.281881001040    -0.367707940793     0.145810731668
    H           -1.884015714520     1.053109595129    -1.359067752532
    H           -1.444545480541     2.391936199289    -0.298411317132
    H           -1.983967192400     0.861657358424     0.382461758038
    C            1.750622849621    -0.722095750037     0.025193517586
    O           -0.524613149252    -1.120823895147     0.615235537376
    H            2.390878150419     0.112029508092     0.291912412102
    H            1.963098229983    -1.567745614085     0.662595777580
    H            1.965479978336    -0.998291775653    -1.002533204905

  Mulliken Charges: (a.u.)
   Center  Symbol    Alpha    Beta     Spin     Total
       1     H     0.31070  0.31070  0.00000  0.37860
       2     N     3.89183  3.89183  0.00000 -0.78367
       3     C     3.13904  3.13904  0.00000 -0.27808
       4     C     2.63093  2.63093  0.00000  0.73814
       5     H     0.41564  0.41564  0.00000  0.16873
       6     H     0.41703  0.41703  0.00000  0.16594
       7     H     0.39094  0.39094  0.00000  0.21812
       8     C     3.29433  3.29433  0.00000 -0.58867
       9     O     4.30118  4.30118  0.00000 -0.60237
      10     H     0.41178  0.41178  0.00000  0.17644
      11     H     0.39268  0.39268  0.00000  0.21464
      12     H     0.40391  0.40391  0.00000  0.19218

   Total alpha = 20.00000, Total beta = 20.00000, Total charge = -0.00000
