                              Psi4 1.0.54 Driver

  ==> Input File <==

--------------------------------------------------------------------------
set {
	reference rhf
	basis cc-pvtz
}

set_num_threads( 4 )
memory 2 gb

molecule MOL {
0 1

H	 2.190573	 -0.629143	 -0.208718
O	 1.355408	 -0.529451	 0.208662
C	 0.700177	 0.619554	 -0.266242
C	 -0.713111	 0.588314	 0.266177
H	 0.678680	 0.627133	 -1.351786
H	 1.199747	 1.521489	 0.077736
O	 -1.421673	 -0.521378	 -0.196983
H	 -1.244794	 1.469161	 -0.069059
H	 -0.685100	 0.604721	 1.352683
H	 -0.846332	 -1.266360	 -0.194068

	symmetry c1
}
set optking {
	frozen_dihedral = ("
		10 7 4 3
	")
}

ee,wfn = optimize('scf', return_wfn=True)
oeprop( wfn, 'DIPOLE', 'QUADRUPOLE', 'MULLIKEN_CHARGES')
f=open( 'psi4out.xyz', 'w' )
f.write( "10  " )
f.write( str(ee) + "\n" )
f.write( MOL.save_string_xyz() )
f.close()
--------------------------------------------------------------------------

    Molecular point group: c1
  Charge       = 0
  Multiplicity = 1
  Basis Set: CC-PVTZ
  Basis Set:
  @DF-RHF Final Energy:  -229.02832326665092
    Total Energy =                       -229.0283232666508582
    Molecular point group: c1
  Basis Set: CC-PVTZ
  Basis Set:
  Basis Set: CC-PVTZ
  Basis Set:
  @DF-RHF Final Energy:  -229.02835883624405
    Total Energy =                       -229.0283588362440810
  Basis Set: CC-PVTZ
  Basis Set:
  Basis Set: CC-PVTZ
  Basis Set:
  @DF-RHF Final Energy:  -229.02840724835656
    Total Energy =                       -229.0284072483565865
  Basis Set: CC-PVTZ
  Basis Set:
  Charge       = 0
  Multiplicity = 1
  Basis Set: CC-PVTZ
  Basis Set:

    Orbital Energies (a.u.)
    -----------------------

    Doubly Occupied:

       1A    -20.563785     2A    -20.541083     3A    -11.276601
       4A    -11.266717     5A     -1.387897     6A     -1.355222
       7A     -1.004541     8A     -0.846902     9A     -0.731184
      10A     -0.677624    11A     -0.658106    12A     -0.606356
      13A     -0.577522    14A     -0.540404    15A     -0.489035
      16A     -0.458873    17A     -0.435847

  @DF-RHF Final Energy:  -229.02840779238929

   => Energetics <=

    Nuclear Repulsion Energy =            134.7563358873048571
    One-Electron Energy =                -580.7340868191079153
    Two-Electron Energy =                 216.9493431394136564
    DFT Exchange-Correlation Energy =       0.0000000000000000
    Empirical Dispersion Energy =           0.0000000000000000
    PCM Polarization Energy =               0.0000000000000000
    EFP Energy =                            0.0000000000000000
    Total Energy =                       -229.0284077923893733
    Molecular point group: c1
  Basis Set: CC-PVTZ
  Basis Set:

  -Total Gradient:
     Atom            X                  Y                   Z
    ------   -----------------  -----------------  -----------------
       1       -0.000010535436     0.000005056976    -0.000008092572
       2       -0.000007865379    -0.000078603541     0.000036349861
       3        0.000416734741    -0.000649231654     0.001133841049
       4       -0.000427992283     0.001200711968    -0.002039392465
       5       -0.000014192713     0.000000215308     0.000017547242
       6       -0.000037490244     0.000002077470    -0.000006238143
       7       -0.000603447070    -0.000912726165     0.003000210242
       8        0.000031319901     0.000008141253    -0.000000861982
       9        0.000018193216     0.000014390563    -0.000008167174
      10        0.000635275264     0.000409967821    -0.002125196059

  **** Optimization is complete! (in 4 steps) ****
    Final optimized geometry and variables:
    Molecular point group: c1

    Geometry (in Angstrom), charge = 0, multiplicity = 1:

    H            2.185723061529    -0.628528198043    -0.213017935923
    O            1.341552766185    -0.540981267717     0.188859258047
    C            0.701819596899     0.628461120509    -0.255996322608
    C           -0.716175394007     0.597081109776     0.265815556259
    H            0.691768609752     0.667056623966    -1.341513824006
    H            1.206606056977     1.515385557775     0.116749322161
    O           -1.413324775223    -0.528715777710    -0.176078526508
    H           -1.249677786033     1.471836857575    -0.082992753056
    H           -0.692156039023     0.627854871612     1.352243929592
    H           -0.832258019315    -1.269058722572    -0.151224155938

  Mulliken Charges: (a.u.)
   Center  Symbol    Alpha    Beta     Spin     Total
       1     H     0.39055  0.39055  0.00000  0.21890
       2     O     4.20681  4.20681  0.00000 -0.41362
       3     C     2.97763  2.97763  0.00000  0.04473
       4     C     2.95684  2.95684  0.00000  0.08633
       5     H     0.46870  0.46870  0.00000  0.06261
       6     H     0.46978  0.46978  0.00000  0.06044
       7     O     4.21076  4.21076  0.00000 -0.42152
       8     H     0.46152  0.46152  0.00000  0.07696
       9     H     0.47260  0.47260  0.00000  0.05479
      10     H     0.38480  0.38480  0.00000  0.23039

   Total alpha = 17.00000, Total beta = 17.00000, Total charge = -0.00000

*** Psi4 exiting successfully. Buy a developer a beer!
