  ==> Input File <==

--------------------------------------------------------------------------
set {
	reference rhf
	basis 6-31G*
}

set_num_threads( 4 )
memory 2 gb

molecule MOL {
0 1

H	 -2.401626	 1.022446	 2.245835
C	 -2.103934	 0.016826	 1.955580
O	 -0.833478	 0.005777	 1.388872
H	 -2.072869	 -0.607411	 2.837910
H	 -2.851834	 -0.380113	 1.270370
C	 -0.719715	 0.768384	 0.229244
C	 0.719720	 0.768376	 -0.229267
H	 -1.347295	 0.352404	 -0.559932
H	 -1.039408	 1.793183	 0.406976
O	 1.392611	 -0.295398	 0.366430
H	 0.750534	 0.687200	 -1.313918
H	 1.185043	 1.714359	 0.050526
C	 2.706965	 -0.449871	 -0.062409
H	 2.756559	 -0.644779	 -1.131878
H	 3.305899	 0.433456	 0.155466
H	 3.125548	 -1.294566	 0.467107

	symmetry c1
}
set optking {
	frozen_dihedral = ("
		3 6 7 11
	")
}

ee = optimize('scf')
oeprop('DIPOLE', 'QUADRUPOLE', 'MULLIKEN_CHARGES')
f=open( 'psi4out.xyz', 'w' )
f.write( "16  " )
f.write( str(ee) + "\n" )
f.write( MOL.save_string_xyz() )
f.close()
--------------------------------------------------------------------------

    Molecular point group: c1
  Charge       = 0
  Multiplicity = 1
  Basis Set: 6-31G*
  Basis Set:
  @DF-RHF Final Energy:  -306.96484908532312
    Total Energy =                       -306.9648490853232943
    Molecular point group: c1
  Basis Set: 6-31G*
  Basis Set:
  Basis Set: 6-31G*
  Basis Set:
  @DF-RHF Final Energy:  -306.96563451580721
    Total Energy =                       -306.9656345158071531
  Basis Set: 6-31G*
  Basis Set:
  Basis Set: 6-31G*
  Basis Set:
  @DF-RHF Final Energy:  -306.96650555545608
    Total Energy =                       -306.9665055554560240
  Basis Set: 6-31G*
  Basis Set:
  Basis Set: 6-31G*
  Basis Set:
  @DF-RHF Final Energy:  -306.96652225509382
    Total Energy =                       -306.9665222550938779
  Basis Set: 6-31G*
  Basis Set:
  Charge       = 0
  Multiplicity = 1
  Basis Set: 6-31G*
  Basis Set:

    Orbital Energies (a.u.)
    -----------------------

    Doubly Occupied:

       1A    -20.551511     2A    -20.550340     3A    -11.271701
       4A    -11.271121     5A    -11.262359     6A    -11.261889
       7A     -1.388786     8A     -1.367522     9A     -1.024806
      10A     -0.933260    11A     -0.896451    12A     -0.819343
      13A     -0.688038    14A     -0.672967    15A     -0.657371
      16A     -0.643879    17A     -0.616989    18A     -0.590130
      19A     -0.572624    20A     -0.519822    21A     -0.507440
      22A     -0.467887    23A     -0.466857    24A     -0.421385
      25A     -0.400741

  @DF-RHF Final Energy:  -306.96652310872850

   => Energetics <=

    Nuclear Repulsion Energy =            259.9999108911950430
    One-Electron Energy =                -934.2824309915919230
    Two-Electron Energy =                 367.3159969916686691
    DFT Exchange-Correlation Energy =       0.0000000000000000
    Empirical Dispersion Energy =           0.0000000000000000
    PCM Polarization Energy =               0.0000000000000000
    EFP Energy =                            0.0000000000000000
    Total Energy =                       -306.9665231087281541
    Molecular point group: c1
  Basis Set: 6-31G*
  Basis Set:

  -Total Gradient:
     Atom            X                  Y                   Z
    ------   -----------------  -----------------  -----------------
       1        0.000002401389     0.000000464960     0.000002695443
       2        0.000002867246     0.000006408160    -0.000008053965
       3       -0.001141844855    -0.004995692871    -0.003104496133
       4        0.000004175997    -0.000001971457     0.000000846324
       5       -0.000004183978    -0.000005374881    -0.000002430852
       6        0.001528903537     0.004966389819     0.004299273625
       7       -0.000510411449     0.007469844764    -0.001894665142
       8        0.000018614507     0.000008334712    -0.000007014903
       9        0.000007449454    -0.000016740226     0.000024211954
      10       -0.000062072519     0.000053551309    -0.000051951160
      11        0.000172502713    -0.007505372309     0.000769463343
      12       -0.000031310682     0.000031694738    -0.000019613705
      13        0.000035355577    -0.000019048923    -0.000026912423
      14       -0.000000550715    -0.000001614417     0.000006031145
      15       -0.000010468309     0.000005523206     0.000008332332
      16       -0.000011427909     0.000003603419     0.000004284117

  **** Optimization is complete! (in 5 steps) ****
    Final optimized geometry and variables:
    Molecular point group: c1

    Geometry (in Angstrom), charge = 0, multiplicity = 1:

    H           -2.704482316433     0.906678189419     1.566988193398
    C           -2.351600665806    -0.096408707883     1.331332931121
    O           -1.051471836618    -0.081208697638     0.838909378631
    H           -2.348823249700    -0.687873901415     2.236346074700
    H           -3.042919137790    -0.545038326226     0.619430616681
    C           -0.912359711846     0.636292879899    -0.341183687175
    C            0.542541157955     0.616222708517    -0.834968561856
    H           -1.557034268367     0.198952976445    -1.103159579443
    H           -1.233035606510     1.669519443875    -0.209452356200
    O            1.224441413974    -0.468643498623    -0.292132877176
    H            0.537137900212     0.504039331108    -1.918621591388
    H            1.051251238448     1.543982573636    -0.580763285672
    C            2.541300444087    -0.571117526642    -0.725058518629
    H            2.600645963358    -0.702039051463    -1.804961281639
    H            3.121741270516     0.309686623071    -0.454328389735
    H            2.975008896599    -1.436722504460    -0.243780494420

  Mulliken Charges: (a.u.)
   Center  Symbol    Alpha    Beta     Spin     Total
       1     H     0.43184  0.43184  0.00000  0.13633
       2     C     3.08026  3.08026  0.00000 -0.16051
       3     O     4.29115  4.29115  0.00000 -0.58231
       4     H     0.41021  0.41021  0.00000  0.17957
       5     H     0.43078  0.43078  0.00000  0.13844
       6     C     2.99438  2.99438  0.00000  0.01124
       7     C     2.99525  2.99525  0.00000  0.00949
       8     H     0.42999  0.42999  0.00000  0.14001
       9     H     0.43097  0.43097  0.00000  0.13806
      10     O     4.29256  4.29256  0.00000 -0.58512
      11     H     0.43046  0.43046  0.00000  0.13908
      12     H     0.42831  0.42831  0.00000  0.14338
      13     C     3.07993  3.07993  0.00000 -0.15985
      14     H     0.43249  0.43249  0.00000  0.13503
      15     H     0.43102  0.43102  0.00000  0.13796
      16     H     0.41040  0.41040  0.00000  0.17920

   Total alpha = 25.00000, Total beta = 25.00000, Total charge =  0.00000
