                              Psi4 1.0.54 Driver

  ==> Input File <==

--------------------------------------------------------------------------
set {
	reference rhf
	basis cc-pvtz
}

set_num_threads( 4 )
memory 2 gb

molecule MOL {
0 1

H	 -2.572565	 1.294655	 -1.054521
O	 -1.748742	 0.833590	 -1.104044
C	 -1.605397	 0.107680	 0.001145
C	 -0.310616	 -0.658853	 0.000791
O	 -2.420621	 0.098001	 0.857467
C	 0.926581	 0.227233	 0.000178
H	 -0.327628	 -1.313681	 -0.864448
H	 -0.327041	 -1.313334	 0.866298
C	 2.220156	 -0.582071	 -0.000088
H	 0.899945	 0.878221	 -0.866390
H	 0.900542	 0.878581	 0.866486
C	 3.466689	 0.296012	 -0.000457
H	 2.239073	 -1.234095	 -0.869382
H	 2.239505	 -1.233985	 0.869270
H	 3.493549	 0.935857	 -0.875887
H	 4.368821	 -0.304526	 -0.001199
H	 3.494559	 0.935166	 0.875458

	symmetry c1
}
set optking {
	frozen_dihedral = ("
		2 3 4 7
	")
}

ee,wfn = optimize('scf', return_wfn=True)
oeprop( wfn, 'DIPOLE', 'QUADRUPOLE', 'MULLIKEN_CHARGES')
f=open( 'psi4out.xyz', 'w' )
f.write( "17  " )
f.write( str(ee) + "\n" )
f.write( MOL.save_string_xyz() )
f.close()
--------------------------------------------------------------------------

    Molecular point group: c1
  Charge       = 0
  Multiplicity = 1
  Basis Set: CC-PVTZ
  Basis Set:
  @DF-RHF Final Energy:  -345.04725126157371
    Total Energy =                       -345.0472512615737628
    Molecular point group: c1
  Basis Set: CC-PVTZ
  Basis Set:
  Basis Set: CC-PVTZ
  Basis Set:
  @DF-RHF Final Energy:  -345.04754767015015
    Total Energy =                       -345.0475476701503794
  Basis Set: CC-PVTZ
  Basis Set:
  Basis Set: CC-PVTZ
  Basis Set:
  @DF-RHF Final Energy:  -345.04721232505398
    Total Energy =                       -345.0472123250537493
  Basis Set: CC-PVTZ
  Basis Set:
  Basis Set: CC-PVTZ
  Basis Set:
  @DF-RHF Final Energy:  -345.04757438929857
    Total Energy =                       -345.0475743892985747
  Basis Set: CC-PVTZ
  Basis Set:
  Basis Set: CC-PVTZ
  Basis Set:
  @DF-RHF Final Energy:  -345.04758025544845
    Total Energy =                       -345.0475802554487927
  Basis Set: CC-PVTZ
  Basis Set:
  Charge       = 0
  Multiplicity = 1
  Basis Set: CC-PVTZ
  Basis Set:

    Orbital Energies (a.u.)
    -----------------------

    Doubly Occupied:

       1A    -20.604450     2A    -20.539180     3A    -11.372483
       4A    -11.238037     5A    -11.230017     6A    -11.224523
       7A    -11.214159     8A     -1.477206     9A     -1.367880
      10A     -1.096414    11A     -1.021146    12A     -0.911682
      13A     -0.824941    14A     -0.808547    15A     -0.705204
      16A     -0.684748    17A     -0.655968    18A     -0.640447
      19A     -0.590550    20A     -0.586553    21A     -0.581211
      22A     -0.538142    23A     -0.515736    24A     -0.498187
      25A     -0.487524    26A     -0.478464    27A     -0.475573
      28A     -0.437622

  @DF-RHF Final Energy:  -345.04758038748878

   => Energetics <=

    Nuclear Repulsion Energy =            305.4637614938596926
    One-Electron Energy =               -1075.4094962651111018
    Two-Electron Energy =                 424.8981543837624031
    DFT Exchange-Correlation Energy =       0.0000000000000000
    Empirical Dispersion Energy =           0.0000000000000000
    PCM Polarization Energy =               0.0000000000000000
    EFP Energy =                            0.0000000000000000
    Total Energy =                       -345.0475803874890062
    Molecular point group: c1
  Basis Set: CC-PVTZ
  Basis Set:

  -Total Gradient:
     Atom            X                  Y                   Z
    ------   -----------------  -----------------  -----------------
       1        0.000018102240     0.000000727666    -0.000009327577
       2        0.000126983613     0.000262543438     0.000215305035
       3       -0.000299572557    -0.000419089841    -0.000174823525
       4        0.000293874592     0.000500901515    -0.000190138934
       5        0.000066910327    -0.000001263841    -0.000070978848
       6       -0.000020992312    -0.000040079599    -0.000009947993
       7       -0.000197344330    -0.000323852721     0.000218682007
       8        0.000003886434    -0.000009484966     0.000005003355
       9       -0.000001914603     0.000011949210     0.000028743797
      10        0.000011543071     0.000014030467    -0.000005470232
      11        0.000007523760    -0.000013575072     0.000006309373
      12        0.000007017894     0.000005351427    -0.000018578496
      13       -0.000015056890     0.000005542627     0.000005792562
      14       -0.000006269952     0.000002853399     0.000005691993
      15        0.000004348495     0.000008258265    -0.000001638502
      16        0.000001995939     0.000001773473    -0.000006202654
      17       -0.000001035719    -0.000006585447     0.000001578641

  **** Optimization is complete! (in 6 steps) ****
    Final optimized geometry and variables:
    Molecular point group: c1

    Geometry (in Angstrom), charge = 0, multiplicity = 1:

    H           -2.600620171775     1.286738327195    -0.960400493608
    O           -1.780793711462     0.821229039666    -1.030138127808
    C           -1.644518387024     0.047831422783     0.043565059537
    C           -0.361520104802    -0.737261838159     0.031525764884
    O           -2.464016724905     0.007660958952     0.895460719279
    C            0.886285702856     0.150072014546     0.032047383759
    H           -0.367097785899    -1.364573811541    -0.853744148203
    H           -0.376993964120    -1.380023881189     0.899559375412
    C            2.174735012642    -0.666730867066     0.056372760963
    H            0.875205652931     0.789194310985    -0.842893659503
    H            0.858264021849     0.804576514174     0.898586093263
    C            3.426701409352     0.203548483416     0.061705919080
    H            2.196832843284    -1.325964723551    -0.806963394375
    H            2.177587091630    -1.309235582804     0.932122153477
    H            3.468261534733     0.834740917062    -0.819477222828
    H            4.324182841105    -0.403508133270     0.076620929759
    H            3.449960711519     0.850051643447     0.932399668189

  Mulliken Charges: (a.u.)
   Center  Symbol    Alpha    Beta     Spin     Total
       1     H     0.38063  0.38063  0.00000  0.23875
       2     O     4.16350  4.16350  0.00000 -0.32701
       3     C     2.80866  2.80866  0.00000  0.38268
       4     C     3.08634  3.08634  0.00000 -0.17267
       5     O     4.19428  4.19428  0.00000 -0.38857
       6     C     3.09883  3.09883  0.00000 -0.19765
       7     H     0.44474  0.44474  0.00000  0.11051
       8     H     0.43620  0.43620  0.00000  0.12760
       9     C     3.08737  3.08737  0.00000 -0.17475
      10     H     0.44222  0.44222  0.00000  0.11555
      11     H     0.44802  0.44802  0.00000  0.10396
      12     C     3.14912  3.14912  0.00000 -0.29824
      13     H     0.45331  0.45331  0.00000  0.09337
      14     H     0.45199  0.45199  0.00000  0.09601
      15     H     0.45400  0.45400  0.00000  0.09199
      16     H     0.44712  0.44712  0.00000  0.10577
      17     H     0.45366  0.45366  0.00000  0.09269

   Total alpha = 28.00000, Total beta = 28.00000, Total charge =  0.00000

*** Psi4 exiting successfully. Buy a developer a beer!
