                              Psi4 1.0.54 Driver

  ==> Input File <==

--------------------------------------------------------------------------
set {
	reference rhf
	basis cc-pvtz
}

set_num_threads( 4 )
memory 2 gb

molecule MOL {
0 1

H	 1.572502	 -0.086943	 -1.749514
C	 1.294203	 0.823319	 -1.202132
C	 0.692262	 0.592428	 0.156232
O	 1.471812	 1.884924	 -1.691095
C	 -0.554654	 -0.292621	 0.086567
H	 0.469135	 1.553567	 0.600374
H	 1.447750	 0.104019	 0.768255
C	 -1.846385	 0.513195	 -0.016346
H	 -0.473986	 -0.956115	 -0.769708
H	 -0.597929	 -0.929215	 0.966651
C	 -3.089953	 -0.365049	 -0.098564
H	 -1.798267	 1.154820	 -0.891143
H	 -1.925398	 1.173265	 0.842889
H	 -3.055079	 -1.012299	 -0.968245
H	 -3.988403	 0.236438	 -0.170014
H	 -3.183055	 -0.995885	 0.779079

	symmetry c1
}
set optking {
	frozen_dihedral = ("
		6 3 5 9
	")
}

ee,wfn = optimize('scf', return_wfn=True)
oeprop( wfn, 'DIPOLE', 'QUADRUPOLE', 'MULLIKEN_CHARGES')
f=open( 'psi4out.xyz', 'w' )
f.write( "16  " )
f.write( str(ee) + "\n" )
f.write( MOL.save_string_xyz() )
f.close()
--------------------------------------------------------------------------

    Molecular point group: c1
  Charge       = 0
  Multiplicity = 1
  Basis Set: CC-PVTZ
  Basis Set:
  @DF-RHF Final Energy:  -270.11644511031704
    Total Energy =                       -270.1164451103170450
    Molecular point group: c1
  Basis Set: CC-PVTZ
  Basis Set:
  Basis Set: CC-PVTZ
  Basis Set:
  @DF-RHF Final Energy:  -270.11665679359186
    Total Energy =                       -270.1166567935915737
  Basis Set: CC-PVTZ
  Basis Set:
  Basis Set: CC-PVTZ
  Basis Set:
  @DF-RHF Final Energy:  -270.11638545179926
    Total Energy =                       -270.1163854517991467
  Basis Set: CC-PVTZ
  Basis Set:
  Basis Set: CC-PVTZ
  Basis Set:
  @DF-RHF Final Energy:  -270.11669403568521
    Total Energy =                       -270.1166940356851569
  Basis Set: CC-PVTZ
  Basis Set:
  Basis Set: CC-PVTZ
  Basis Set:
  @DF-RHF Final Energy:  -270.11670186997026
    Total Energy =                       -270.1167018699704272
  Basis Set: CC-PVTZ
  Basis Set:
  Charge       = 0
  Multiplicity = 1
  Basis Set: CC-PVTZ
  Basis Set:

    Orbital Energies (a.u.)
    -----------------------

    Doubly Occupied:

       1A    -20.552534     2A    -11.321544     3A    -11.234496
       4A    -11.233911     5A    -11.224183     6A    -11.214719
       7A     -1.407465     8A     -1.096038     9A     -1.017599
      10A     -0.905564    11A     -0.814769    12A     -0.793251
      13A     -0.672468    14A     -0.658117    15A     -0.616654
      16A     -0.608685    17A     -0.591627    18A     -0.539915
      19A     -0.530154    20A     -0.526440    21A     -0.486321
      22A     -0.481302    23A     -0.468230    24A     -0.412877

  @DF-RHF Final Energy:  -270.11670233395216

   => Energetics <=

    Nuclear Repulsion Energy =            232.8735999853911949
    One-Electron Energy =                -827.1628770875817054
    Two-Electron Energy =                 324.1725747682384053
    DFT Exchange-Correlation Energy =       0.0000000000000000
    Empirical Dispersion Energy =           0.0000000000000000
    PCM Polarization Energy =               0.0000000000000000
    EFP Energy =                            0.0000000000000000
    Total Energy =                       -270.1167023339520483
    Molecular point group: c1
  Basis Set: CC-PVTZ
  Basis Set:

  -Total Gradient:
     Atom            X                  Y                   Z
    ------   -----------------  -----------------  -----------------
       1       -0.000007703574    -0.000007305856    -0.000010160585
       2        0.000021724476    -0.000007082308    -0.000003712013
       3        0.000687097743    -0.001194348276     0.003621416059
       4        0.000006528171     0.000029064060    -0.000009479725
       5        0.001826186913    -0.002705951572     0.001591699351
       6       -0.000878110295     0.001394105622    -0.003175641211
       7        0.000003621828     0.000015843980    -0.000028119508
       8        0.000025078336    -0.000000046914    -0.000070581585
       9       -0.001659608244     0.002442709925    -0.001913435922
      10        0.000005950370     0.000021662547    -0.000033503834
      11       -0.000024859793     0.000003071563     0.000039336822
      12        0.000001835887     0.000008486107    -0.000012896520
      13        0.000006011190     0.000012483368    -0.000001744576
      14        0.000005087459     0.000009180483    -0.000003961543
      15       -0.000010682357    -0.000005991076     0.000009034916
      16       -0.000008158109    -0.000015881648     0.000001749878

  **** Optimization is complete! (in 6 steps) ****
    Final optimized geometry and variables:
    Molecular point group: c1

    Geometry (in Angstrom), charge = 0, multiplicity = 1:

    H            1.858295103217    -0.562558468388    -1.365570772336
    C            1.604543041649     0.325132827039    -0.770786372263
    C            1.080560452490     0.036469483934     0.611465671715
    O            1.747011494485     1.405241262354    -1.229493926312
    C           -0.176597318652    -0.849405144920     0.569188540025
    H            0.878373222674     0.989390865568     1.081943824933
    H            1.876694456772    -0.463296128357     1.155269388321
    C           -1.469110510586    -0.036895359965     0.493766255520
    H           -0.133923545080    -1.498967895373    -0.301812718468
    H           -0.203761563897    -1.493171201261     1.440151614421
    C           -2.713682246647    -0.911076384537     0.389669879612
    H           -1.424216893905     0.634329473990    -0.358946873209
    H           -1.542653123472     0.594998144483     1.373731126861
    H           -2.688734139033    -1.524623757619    -0.504707582194
    H           -3.612488750492    -0.307250876022     0.350497188038
    H           -2.798481462983    -1.575526815043     1.243256774360

  Mulliken Charges: (a.u.)
   Center  Symbol    Alpha    Beta     Spin     Total
       1     H     0.46585  0.46585  0.00000  0.06831
       2     C     2.90421  2.90421  0.00000  0.19158
       3     C     3.08821  3.08821  0.00000 -0.17642
       4     O     4.16502  4.16502  0.00000 -0.33004
       5     C     3.10763  3.10763  0.00000 -0.21525
       6     H     0.44412  0.44412  0.00000  0.11176
       7     H     0.44025  0.44025  0.00000  0.11951
       8     C     3.08253  3.08253  0.00000 -0.16506
       9     H     0.45451  0.45451  0.00000  0.09097
      10     H     0.44345  0.44345  0.00000  0.11309
      11     C     3.14971  3.14971  0.00000 -0.29943
      12     H     0.44755  0.44755  0.00000  0.10489
      13     H     0.45156  0.45156  0.00000  0.09687
      14     H     0.45444  0.45444  0.00000  0.09112
      15     H     0.44598  0.44598  0.00000  0.10804
      16     H     0.45497  0.45497  0.00000  0.09006

   Total alpha = 24.00000, Total beta = 24.00000, Total charge =  0.00000

*** Psi4 exiting successfully. Buy a developer a beer!
