                              Psi4 1.0.54 Driver

  ==> Input File <==

--------------------------------------------------------------------------
set {
	reference rhf
	basis cc-pvtz
}

set_num_threads( 4 )
memory 2 gb

molecule MOL {
0 1

O	 -1.818428	 -0.769945	 -0.039491
C	 -1.081510	 0.147522	 0.122720
C	 0.327029	 -0.064006	 0.641890
C	 -1.510406	 1.567626	 -0.159448
C	 1.349460	 -0.017068	 -0.500215
H	 0.399029	 -1.014606	 1.159950
H	 0.538021	 0.726928	 1.350471
C	 2.779782	 -0.209014	 -0.009215
H	 1.115007	 -0.782959	 -1.233891
H	 1.259071	 0.936707	 -1.006644
H	 3.481860	 -0.160270	 -0.833072
H	 2.903471	 -1.171535	 0.475559
H	 3.052569	 0.559584	 0.705428
H	 -1.286125	 2.210041	 0.684801
H	 -2.566390	 1.600414	 -0.379268
H	 -0.951289	 1.947550	 -1.008506

	symmetry c1
}
set optking {
	frozen_dihedral = ("
		4 2 3 5
	")
}

ee,wfn = optimize('scf', return_wfn=True)
oeprop( wfn, 'DIPOLE', 'QUADRUPOLE', 'MULLIKEN_CHARGES')
f=open( 'psi4out.xyz', 'w' )
f.write( "16  " )
f.write( str(ee) + "\n" )
f.write( MOL.save_string_xyz() )
f.close()
--------------------------------------------------------------------------

    Molecular point group: c1
  Charge       = 0
  Multiplicity = 1
  Basis Set: CC-PVTZ
  Basis Set:
  @DF-RHF Final Energy:  -270.12835556928144
    Total Energy =                       -270.1283555692813252
    Molecular point group: c1
  Basis Set: CC-PVTZ
  Basis Set:
  Basis Set: CC-PVTZ
  Basis Set:
  @DF-RHF Final Energy:  -270.12761870898385
    Total Energy =                       -270.1276187089839596
  Basis Set: CC-PVTZ
  Basis Set:
  Basis Set: CC-PVTZ
  Basis Set:
  @DF-RHF Final Energy:  -270.12840967937979
    Total Energy =                       -270.1284096793798426
  Basis Set: CC-PVTZ
  Basis Set:
  Basis Set: CC-PVTZ
  Basis Set:
  @DF-RHF Final Energy:  -270.12909249718103
    Total Energy =                       -270.1290924971810909
  Basis Set: CC-PVTZ
  Basis Set:
  @DF-RHF Final Energy:  -270.12908814869274
    Total Energy =                       -270.1290881486924604
  @DF-RHF Final Energy:  -270.12916283264246
    Total Energy =                       -270.1291628326423506
  Basis Set: CC-PVTZ
  Basis Set:
  @DF-RHF Final Energy:  -270.12918456659469
    Total Energy =                       -270.1291845665945743
  Basis Set: CC-PVTZ
  Basis Set:
  Basis Set: CC-PVTZ
  Basis Set:
  @DF-RHF Final Energy:  -270.12922420881790
    Total Energy =                       -270.1292242088177318
  Basis Set: CC-PVTZ
  Basis Set:
  Basis Set: CC-PVTZ
  Basis Set:
  @DF-RHF Final Energy:  -270.12922769963012
    Total Energy =                       -270.1292276996301212
  Basis Set: CC-PVTZ
  Basis Set:
  Charge       = 0
  Multiplicity = 1
  Basis Set: CC-PVTZ
  Basis Set:

    Orbital Energies (a.u.)
    -----------------------

    Doubly Occupied:

       1A    -20.537759     2A    -11.319694     3A    -11.233121
       4A    -11.228720     5A    -11.226800     6A    -11.218650
       7A     -1.397458     8A     -1.085263     9A     -1.013040
      10A     -0.951171    11A     -0.831657    12A     -0.736638
      13A     -0.661254    14A     -0.651846    15A     -0.615354
      16A     -0.610262    17A     -0.577535    18A     -0.557232
      19A     -0.535519    20A     -0.521375    21A     -0.507549
      22A     -0.485987    23A     -0.476085    24A     -0.400795

  @DF-RHF Final Energy:  -270.12922779343751

   => Energetics <=

    Nuclear Repulsion Energy =            237.4274539666653823
    One-Electron Energy =                -836.3518340346440709
    Two-Electron Energy =                 328.7951522745412376
    DFT Exchange-Correlation Energy =       0.0000000000000000
    Empirical Dispersion Energy =           0.0000000000000000
    PCM Polarization Energy =               0.0000000000000000
    EFP Energy =                            0.0000000000000000
    Total Energy =                       -270.1292277934375079
    Molecular point group: c1
  Basis Set: CC-PVTZ
  Basis Set:

  -Total Gradient:
     Atom            X                  Y                   Z
    ------   -----------------  -----------------  -----------------
       1       -0.000000755148    -0.000016273872     0.000001682029
       2       -0.000298018445     0.000390561700     0.000981501524
       3        0.000038226859    -0.000937337759    -0.000406433184
       4        0.000215059042    -0.000091486023    -0.000661019788
       5        0.000053846560     0.000651413418     0.000068031848
       6       -0.000003589468    -0.000002177262     0.000004450705
       7       -0.000004617564    -0.000001421861     0.000001110032
       8       -0.000003466190     0.000000957179     0.000008496724
       9        0.000005159002     0.000005562871     0.000009353372
      10        0.000007291692    -0.000004935787    -0.000002886275
      11       -0.000002246596     0.000000552218    -0.000001784592
      12       -0.000004502128     0.000005903664    -0.000004381150
      13       -0.000004017157    -0.000005484303    -0.000005815980
      14       -0.000000026007    -0.000000371000     0.000001205452
      15        0.000003019336     0.000004440697     0.000004011412
      16       -0.000001363786     0.000000096117     0.000002477871

  **** Optimization is complete! (in 10 steps) ****
    Final optimized geometry and variables:
    Molecular point group: c1

    Geometry (in Angstrom), charge = 0, multiplicity = 1:

    O           -1.824680438491    -0.887129633713     0.021555007376
    C           -1.096354682162     0.043376265193     0.144597455136
    C            0.330125734151    -0.135081170875     0.624058491703
    C           -1.553790873981     1.447371548933    -0.178332568440
    C            1.336939683079    -0.126483702322    -0.532889534758
    H            0.380569457687    -1.080361622648     1.147716547767
    H            0.579598373646     0.656849082382     1.324401565749
    C            2.767020390887    -0.353251437504    -0.055259601272
    H            1.063419862461    -0.900341470356    -1.242086895272
    H            1.283153772112     0.817278883074    -1.065360777022
    H            3.459148445328    -0.349499101915    -0.888879145057
    H            2.862039678244    -1.307104767626     0.451294346269
    H            3.076721404922     0.422300745701     0.637040399520
    H           -1.617350056439     2.021443971754     0.740598580049
    H           -2.524379224127     1.417710688904    -0.648989982253
    H           -0.844989979222     1.951548301937    -0.823716580294

  Mulliken Charges: (a.u.)
   Center  Symbol    Alpha    Beta     Spin     Total
       1     O     4.17467  4.17467  0.00000 -0.34934
       2     C     2.85826  2.85826  0.00000  0.28347
       3     C     3.09584  3.09584  0.00000 -0.19167
       4     C     3.15557  3.15557  0.00000 -0.31114
       5     C     3.09492  3.09492  0.00000 -0.18984
       6     H     0.43870  0.43870  0.00000  0.12260
       7     H     0.45130  0.45130  0.00000  0.09741
       8     C     3.14859  3.14859  0.00000 -0.29718
       9     H     0.44339  0.44339  0.00000  0.11322
      10     H     0.45150  0.45150  0.00000  0.09700
      11     H     0.44611  0.44611  0.00000  0.10777
      12     H     0.45093  0.45093  0.00000  0.09815
      13     H     0.45468  0.45468  0.00000  0.09063
      14     H     0.44911  0.44911  0.00000  0.10177
      15     H     0.43537  0.43537  0.00000  0.12926
      16     H     0.45105  0.45105  0.00000  0.09790

   Total alpha = 24.00000, Total beta = 24.00000, Total charge = -0.00000

*** Psi4 exiting successfully. Buy a developer a beer!
