  ==> Input File <==

--------------------------------------------------------------------------
set {
	reference rhf
	basis 6-31G*
}

set_num_threads( 1 )
memory 2 gb

molecule MOL {
0 1

H	 2.005766	 -0.591528	 -0.850745
O	 1.586534	 -0.678666	 -0.000226
C	 0.489431	 0.077273	 0.000046
C	 -0.764129	 -0.759190	 0.000191
O	 0.537743	 1.263962	 0.000257
C	 -2.038368	 0.075731	 -0.000248
H	 -0.717284	 -1.412404	 -0.866059
H	 -0.717458	 -1.411724	 0.866967
H	 -2.086483	 0.712501	 -0.875098
H	 -2.908485	 -0.571682	 -0.000042
H	 -2.086576	 0.713280	 0.874068

	symmetry c1
}
set optking {
	frozen_dihedral = ("
		2 3 4 7
	")
}

ee = energy('scf')
oeprop('DIPOLE', 'QUADRUPOLE', 'MULLIKEN_CHARGES')
f=open( 'psi4out.xyz', 'w' )
f.write( "11  " )
f.write( str(ee) + "\n" )
f.write( MOL.save_string_xyz() )
f.close()
--------------------------------------------------------------------------

    Molecular point group: c1

    Geometry (in Angstrom), charge = 0, multiplicity = 1:

       Center              X                  Y                   Z               Mass
    ------------   -----------------  -----------------  -----------------  -----------------
           H          2.010366791487    -0.584854644915    -0.839166922801     1.007825032070
           O          1.591134791487    -0.671992644915     0.011352077199    15.994914619560
           C          0.494031791487     0.083946355085     0.011624077199    12.000000000000
           C         -0.759528208513    -0.752516644915     0.011769077199    12.000000000000
           O          0.542343791487     1.270635355085     0.011835077199    15.994914619560
           C         -2.033767208513     0.082404355085     0.011330077199    12.000000000000
           H         -0.712683208513    -1.405730644915    -0.854480922801     1.007825032070
           H         -0.712857208513    -1.405050644915     0.878545077199     1.007825032070
           H         -2.081882208513     0.719174355085    -0.863519922801     1.007825032070
           H         -2.903884208513    -0.565008644915     0.011536077199     1.007825032070
           H         -2.081975208513     0.719953355085     0.885646077199     1.007825032070

  Charge       = 0
  Multiplicity = 1
  Basis Set: 6-31G*
  Basis Set:

    Orbital Energies (a.u.)
    -----------------------

    Doubly Occupied:

       1A    -20.600537     2A    -20.559756     3A    -11.380898
       4A    -11.244030     5A    -11.220050     6A     -1.470961
       7A     -1.368895     8A     -1.063988     9A     -0.911462
      10A     -0.806892    11A     -0.710497    12A     -0.682580
      13A     -0.661614    14A     -0.615218    15A     -0.568838
      16A     -0.527269    17A     -0.521240    18A     -0.500083
      19A     -0.487373    20A     -0.446180

  @DF-RHF Final Energy:  -266.82658801138632

   => Energetics <=

    Nuclear Repulsion Energy =            179.7784154825755252
    One-Electron Energy =                -720.5132986132525730
    Two-Electron Energy =                 273.9082951192910400
    DFT Exchange-Correlation Energy =       0.0000000000000000
    Empirical Dispersion Energy =           0.0000000000000000
    PCM Polarization Energy =               0.0000000000000000
    EFP Energy =                            0.0000000000000000
    Total Energy =                       -266.8265880113860362

  Mulliken Charges: (a.u.)
   Center  Symbol    Alpha    Beta     Spin     Total
       1     H     0.26457  0.26457  0.00000  0.47087
       2     O     4.35615  4.35615  0.00000 -0.71231
       3     C     2.63758  2.63758  0.00000  0.72485
       4     C     3.20619  3.20619  0.00000 -0.41237
       5     O     4.25574  4.25574  0.00000 -0.51148
       6     C     3.24019  3.24019  0.00000 -0.48038
       7     H     0.40607  0.40607  0.00000  0.18787
       8     H     0.39712  0.39712  0.00000  0.20575
       9     H     0.41088  0.41088  0.00000  0.17823
      10     H     0.41738  0.41738  0.00000  0.16523
      11     H     0.40813  0.40813  0.00000  0.18373

   Total alpha = 20.00000, Total beta = 20.00000, Total charge = -0.00000
