                              Psi4 1.0.54 Driver

  ==> Input File <==

--------------------------------------------------------------------------
set {
	reference rhf
	basis cc-pvtz
}

set_num_threads( 4 )
memory 2 gb

molecule MOL {
0 1

H	 -3.144994	 -1.202467	 -0.018751
O	 -2.321472	 -0.864941	 -0.318626
C	 -2.021813	 0.336996	 0.342658
C	 -0.669613	 0.837286	 -0.127252
H	 -2.780861	 1.084746	 0.127159
H	 -2.006390	 0.184138	 1.420053
C	 0.490865	 -0.082543	 0.241244
H	 -0.708709	 0.967192	 -1.204587
H	 -0.507562	 1.822272	 0.303070
C	 1.839800	 0.429565	 -0.255472
H	 0.305636	 -1.070211	 -0.165276
H	 0.527397	 -0.195943	 1.322876
C	 2.272005	 1.726952	 0.419638
H	 2.595904	 -0.332353	 -0.086682
H	 1.795846	 0.581206	 -1.331001
H	 2.359314	 1.597899	 1.493248
H	 3.233126	 2.063154	 0.047455
H	 1.552812	 2.519625	 0.241099

	symmetry c1
}
set optking {
	frozen_dihedral = ("
		14 10 7 11
	")
}

ee,wfn = optimize('scf', return_wfn=True)
oeprop( wfn, 'DIPOLE', 'QUADRUPOLE', 'MULLIKEN_CHARGES')
f=open( 'psi4out.xyz', 'w' )
f.write( "18  " )
f.write( str(ee) + "\n" )
f.write( MOL.save_string_xyz() )
f.close()
--------------------------------------------------------------------------

    Molecular point group: c1
  Charge       = 0
  Multiplicity = 1
  Basis Set: CC-PVTZ
  Basis Set:
  @DF-RHF Final Energy:  -271.28471552093106
    Total Energy =                       -271.2847155209306038
    Molecular point group: c1
  Basis Set: CC-PVTZ
  Basis Set:
  Basis Set: CC-PVTZ
  Basis Set:
  @DF-RHF Final Energy:  -271.28493614631986
    Total Energy =                       -271.2849361463198647
  Basis Set: CC-PVTZ
  Basis Set:
  Basis Set: CC-PVTZ
  Basis Set:
  @DF-RHF Final Energy:  -271.28523412830975
    Total Energy =                       -271.2852341283098667
  Basis Set: CC-PVTZ
  Basis Set:
  Basis Set: CC-PVTZ
  Basis Set:
  @DF-RHF Final Energy:  -271.28524123010959
    Total Energy =                       -271.2852412301095910
  Basis Set: CC-PVTZ
  Basis Set:
  Charge       = 0
  Multiplicity = 1
  Basis Set: CC-PVTZ
  Basis Set:

    Orbital Energies (a.u.)
    -----------------------

    Doubly Occupied:

       1A    -20.546218     2A    -11.265966     3A    -11.210033
       4A    -11.209349     5A    -11.205078     6A    -11.203628
       7A     -1.364128     8A     -1.076283     9A     -1.007826
      10A     -0.916232    11A     -0.829507    12A     -0.773504
      13A     -0.708662    14A     -0.636354    15A     -0.618506
      16A     -0.608470    17A     -0.570012    18A     -0.551933
      19A     -0.525000    20A     -0.504088    21A     -0.494844
      22A     -0.461950    23A     -0.458693    24A     -0.449906
      25A     -0.430381

  @DF-RHF Final Energy:  -271.28524173778976

   => Energetics <=

    Nuclear Repulsion Energy =            251.5604588234452876
    One-Electron Energy =                -866.4383095023194983
    Two-Electron Energy =                 343.5926089410845066
    DFT Exchange-Correlation Energy =       0.0000000000000000
    Empirical Dispersion Energy =           0.0000000000000000
    PCM Polarization Energy =               0.0000000000000000
    EFP Energy =                            0.0000000000000000
    Total Energy =                       -271.2852417377897041
    Molecular point group: c1
  Basis Set: CC-PVTZ
  Basis Set:

  -Total Gradient:
     Atom            X                  Y                   Z
    ------   -----------------  -----------------  -----------------
       1        0.000000286503     0.000003426802     0.000001806659
       2        0.000016514953    -0.000024146620    -0.000011530155
       3       -0.000011222876     0.000019515413     0.000006054643
       4        0.000011819504    -0.000014188112     0.000004375097
       5        0.000004305877    -0.000001221812     0.000000846684
       6        0.000004820029     0.000002950795    -0.000002648625
       7       -0.000121932860     0.000121198639    -0.000242028926
       8       -0.000001594239     0.000002071688    -0.000007730683
       9        0.000018135904     0.000001893717     0.000005022377
      10        0.000060192213     0.000117359154     0.000259222133
      11        0.000104611365    -0.000095854287     0.000182713044
      12       -0.000020981779    -0.000005717689     0.000023826165
      13       -0.000018757040    -0.000007813248     0.000012180174
      14       -0.000054628801    -0.000090665388    -0.000201699645
      15        0.000016264384     0.000007155203    -0.000030366819
      16       -0.000003635368     0.000000589659     0.000011894623
      17        0.000007301160    -0.000016332154    -0.000010196384
      18       -0.000011498934    -0.000020221761    -0.000001740363

  **** Optimization is complete! (in 5 steps) ****
    Final optimized geometry and variables:
    Molecular point group: c1

    Geometry (in Angstrom), charge = 0, multiplicity = 1:

    H           -3.001572453011    -1.622378935579    -0.117673830493
    O           -2.181116518656    -1.262217090133    -0.398781786942
    C           -1.923445425963    -0.059724064666     0.278943891789
    C           -0.573295558710     0.477530393938    -0.156249229490
    H           -2.695000102718     0.671986732274     0.053234115057
    H           -1.927822915278    -0.221794697015     1.355103959604
    C            0.595585582737    -0.424260381258     0.235849539508
    H           -0.589664233032     0.608903975494    -1.234322536084
    H           -0.454657930650     1.463773737928     0.280880181798
    C            1.956646106931     0.044648604058    -0.280689555157
    H            0.403246540999    -1.421481008930    -0.140135111532
    H            0.634337806756    -0.506799106394     1.320460031617
    C            2.454356048420     1.354418165464     0.325619411953
    H            2.686435774248    -0.733031463958    -0.077702739142
    H            1.913988497276     0.141616559141    -1.362385044496
    H            2.504292968699     1.288307959214     1.407957339318
    H            3.448265959938     1.593012604244    -0.035633268055
    H            1.809736719848     2.188583781939     0.075076755889

  Mulliken Charges: (a.u.)
   Center  Symbol    Alpha    Beta     Spin     Total
       1     H     0.39566  0.39566  0.00000  0.20868
       2     O     4.19862  4.19862  0.00000 -0.39723
       3     C     2.97231  2.97231  0.00000  0.05538
       4     C     3.09256  3.09256  0.00000 -0.18512
       5     H     0.46502  0.46502  0.00000  0.06997
       6     H     0.47346  0.47346  0.00000  0.05307
       7     C     3.09544  3.09544  0.00000 -0.19088
       8     H     0.45232  0.45232  0.00000  0.09536
       9     H     0.45353  0.45353  0.00000  0.09293
      10     C     3.09086  3.09086  0.00000 -0.18172
      11     H     0.43951  0.43951  0.00000  0.12099
      12     H     0.45854  0.45854  0.00000  0.08292
      13     C     3.15197  3.15197  0.00000 -0.30394
      14     H     0.44890  0.44890  0.00000  0.10219
      15     H     0.45412  0.45412  0.00000  0.09175
      16     H     0.45576  0.45576  0.00000  0.08849
      17     H     0.44683  0.44683  0.00000  0.10634
      18     H     0.45460  0.45460  0.00000  0.09081

   Total alpha = 25.00000, Total beta = 25.00000, Total charge = -0.00000

*** Psi4 exiting successfully. Buy a developer a beer!
