                              Psi4 1.0.54 Driver

  ==> Input File <==

--------------------------------------------------------------------------
set {
	reference rhf
	basis cc-pvtz
}

set_num_threads( 4 )
memory 2 gb

molecule MOL {
0 1

H	 3.716139	 0.538954	 0.861757
N	 2.896008	 -0.029299	 0.871289
C	 1.860978	 0.530248	 0.016256
H	 2.585325	 -0.082107	 1.818936
C	 0.644130	 -0.381765	 -0.031064
H	 2.273403	 0.628433	 -0.982329
H	 1.549148	 1.528780	 0.325532
C	 -0.678115	 0.376691	 0.025731
H	 0.693998	 -0.977147	 -0.936845
H	 0.693309	 -1.082142	 0.800523
C	 -1.900706	 -0.535531	 -0.022488
H	 -0.725296	 1.079516	 -0.802982
H	 -0.715474	 0.974884	 0.933278
C	 -3.220513	 0.226854	 0.028039
H	 -1.865036	 -1.134397	 -0.928236
H	 -1.857948	 -1.236381	 0.806820
H	 -3.309098	 0.911849	 -0.808725
H	 -4.066838	 -0.449485	 -0.008086
H	 -3.301685	 0.809374	 0.939860

	symmetry c1
}
set optking {
	frozen_dihedral = ("
		6 3 5 9
	")
}

ee,wfn = optimize('scf', return_wfn=True)
oeprop( wfn, 'DIPOLE', 'QUADRUPOLE', 'MULLIKEN_CHARGES')
f=open( 'psi4out.xyz', 'w' )
f.write( "19  " )
f.write( str(ee) + "\n" )
f.write( MOL.save_string_xyz() )
f.close()
--------------------------------------------------------------------------

    Molecular point group: c1
  Charge       = 0
  Multiplicity = 1
  Basis Set: CC-PVTZ
  Basis Set:
  @DF-RHF Final Energy:  -251.44299253562528
    Total Energy =                       -251.4429925356253648
    Molecular point group: c1
  Basis Set: CC-PVTZ
  Basis Set:
  Basis Set: CC-PVTZ
  Basis Set:
  @DF-RHF Final Energy:  -251.44334776956038
    Total Energy =                       -251.4433477695603756
  Basis Set: CC-PVTZ
  Basis Set:
  Basis Set: CC-PVTZ
  Basis Set:
  @DF-RHF Final Energy:  -251.44344107452054
    Total Energy =                       -251.4434410745203650
  Basis Set: CC-PVTZ
  Basis Set:
  Basis Set: CC-PVTZ
  Basis Set:
  @DF-RHF Final Energy:  -251.44344277610415
    Total Energy =                       -251.4434427761041206
  Basis Set: CC-PVTZ
  Basis Set:
  Charge       = 0
  Multiplicity = 1
  Basis Set: CC-PVTZ
  Basis Set:

    Orbital Energies (a.u.)
    -----------------------

    Doubly Occupied:

       1A    -15.526198     2A    -11.238215     3A    -11.211850
       4A    -11.210545     5A    -11.207813     6A    -11.205743
       7A     -1.176856     8A     -1.073856     9A     -0.998097
      10A     -0.900698    11A     -0.814540    12A     -0.789056
      13A     -0.669387    14A     -0.637185    15A     -0.620347
      16A     -0.583530    17A     -0.570014    18A     -0.549062
      19A     -0.528286    20A     -0.503206    21A     -0.483070
      22A     -0.465018    23A     -0.461187    24A     -0.446326
      25A     -0.382960

  @DF-RHF Final Energy:  -251.44344330843319

   => Energetics <=

    Nuclear Repulsion Energy =            246.1265900145305636
    One-Electron Energy =                -826.6339742183619137
    Two-Electron Energy =                 329.0639408953985026
    DFT Exchange-Correlation Energy =       0.0000000000000000
    Empirical Dispersion Energy =           0.0000000000000000
    PCM Polarization Energy =               0.0000000000000000
    EFP Energy =                            0.0000000000000000
    Total Energy =                       -251.4434433084329044
    Molecular point group: c1
  Basis Set: CC-PVTZ
  Basis Set:

  -Total Gradient:
     Atom            X                  Y                   Z
    ------   -----------------  -----------------  -----------------
       1        0.000022205862    -0.000008094361     0.000014621499
       2       -0.000007612729     0.000036043157    -0.000039013182
       3       -0.003491226564     0.004705676874    -0.001356676296
       4       -0.000013100827     0.000012446743    -0.000028237154
       5        0.003158594493    -0.004350147740     0.002685843299
       6        0.002435726750    -0.003292462548     0.000737357074
       7       -0.000005970453    -0.000036722021     0.000003705783
       8        0.000017717455    -0.000009389340     0.000051957609
       9       -0.002078211251     0.002907227571    -0.002068679801
      10       -0.000002448315     0.000032445878     0.000004530676
      11       -0.000006604951     0.000010154660    -0.000004738563
      12        0.000016315305     0.000000566798    -0.000000651469
      13       -0.000016385059     0.000008010445     0.000010109530
      14       -0.000014283387    -0.000013311683    -0.000002509032
      15        0.000000364671    -0.000010792458    -0.000003274675
      16       -0.000006024199     0.000005411473     0.000000802277
      17        0.000000815166     0.000001204052    -0.000002931974
      18       -0.000012583720     0.000002917146    -0.000002169836
      19        0.000002711753    -0.000001184645    -0.000000045767

  **** Optimization is complete! (in 5 steps) ****
    Final optimized geometry and variables:
    Molecular point group: c1

    Geometry (in Angstrom), charge = 0, multiplicity = 1:

    H            3.786302706060     0.472111001504     0.680801571134
    N            2.958702078195    -0.084534447379     0.719351776851
    C            1.904153100586     0.487355329715    -0.108497979541
    H            2.676590035536    -0.126927061441     1.676491598910
    C            0.674371687122    -0.430808005464    -0.140684961956
    H            2.317344463479     0.576214362356    -1.106016523560
    H            1.611220884466     1.484762288620     0.215861920125
    C           -0.647805135066     0.334560426899    -0.135711562711
    H            0.705711876801    -1.044419465201    -1.034682622367
    H            0.707873004636    -1.104388782471     0.708706840805
    C           -1.872320972459    -0.571102469108    -0.225242032724
    H           -0.661642301255     1.036282114363    -0.967165146692
    H           -0.712561894765     0.936757610060     0.767950857671
    C           -3.189891316583     0.196841351880    -0.211479703304
    H           -1.812383267264    -1.166654104728    -1.132040103219
    H           -1.857640227358    -1.275958165914     0.601751545850
    H           -3.249632684376     0.886376038928    -1.047106893890
    H           -4.037743692754    -0.475415326824    -0.276969597823
    H           -3.296535571433     0.775220728363     0.700334815575

  Mulliken Charges: (a.u.)
   Center  Symbol    Alpha    Beta     Spin     Total
       1     H     0.42961  0.42961  0.00000  0.14079
       2     N     3.68994  3.68994  0.00000 -0.37988
       3     C     3.03302  3.03302  0.00000 -0.06604
       4     H     0.43092  0.43092  0.00000  0.13817
       5     C     3.08552  3.08552  0.00000 -0.17105
       6     H     0.45561  0.45561  0.00000  0.08878
       7     H     0.46499  0.46499  0.00000  0.07003
       8     C     3.09178  3.09178  0.00000 -0.18356
       9     H     0.45239  0.45239  0.00000  0.09522
      10     H     0.45170  0.45170  0.00000  0.09661
      11     C     3.08486  3.08486  0.00000 -0.16973
      12     H     0.45513  0.45513  0.00000  0.08974
      13     H     0.45671  0.45671  0.00000  0.08657
      14     C     3.14951  3.14951  0.00000 -0.29901
      15     H     0.45424  0.45424  0.00000  0.09152
      16     H     0.45451  0.45451  0.00000  0.09098
      17     H     0.45541  0.45541  0.00000  0.08919
      18     H     0.44854  0.44854  0.00000  0.10291
      19     H     0.45562  0.45562  0.00000  0.08875

   Total alpha = 25.00000, Total beta = 25.00000, Total charge = -0.00000

*** Psi4 exiting successfully. Buy a developer a beer!
