  ==> Input File <==

--------------------------------------------------------------------------
set {
	reference rhf
	basis 6-31G*
}

set_num_threads( 4 )
memory 2 gb

molecule MOL {
0 1

H	 -4.236494	 0.538104	 0.039757
O	 -3.517110	 -0.026191	 -0.205115
C	 -2.306886	 0.532354	 0.237577
C	 -1.177863	 -0.397191	 -0.171080
H	 -2.156308	 1.517575	 -0.201710
H	 -2.315015	 0.655684	 1.319734
C	 0.198102	 0.111031	 0.262842
H	 -1.208843	 -0.518759	 -1.250427
H	 -1.368741	 -1.376554	 0.258909
C	 1.331804	 -0.827780	 -0.158768
H	 0.361943	 1.100838	 -0.156218
H	 0.217265	 0.229072	 1.345532
C	 2.723619	 -0.410569	 0.329459
H	 1.342964	 -0.912588	 -1.244120
H	 1.116806	 -1.824343	 0.220779
C	 2.864279	 1.077878	 0.653613
H	 3.448808	 -0.669814	 -0.437992
H	 2.988091	 -0.998006	 1.206464
H	 2.593898	 1.690740	 -0.202151
H	 2.233728	 1.374405	 1.485270
H	 3.888641	 1.318820	 0.920789

	symmetry c1
}
set optking {
	frozen_dihedral = ("
		16 13 10 14
	")
}

ee = optimize('scf')
oeprop('DIPOLE', 'QUADRUPOLE', 'MULLIKEN_CHARGES')
f=open( 'psi4out.xyz', 'w' )
f.write( "21  " )
f.write( str(ee) + "\n" )
f.write( MOL.save_string_xyz() )
f.close()
--------------------------------------------------------------------------

    Molecular point group: c1
  Charge       = 0
  Multiplicity = 1
  Basis Set: 6-31G*
  Basis Set:
  @DF-RHF Final Energy:  -310.20589934562275
    Total Energy =                       -310.2058993456231519
    Molecular point group: c1
  Basis Set: 6-31G*
  Basis Set:
  Basis Set: 6-31G*
  Basis Set:
  @DF-RHF Final Energy:  -310.20645217192362
    Total Energy =                       -310.2064521719233881
  Basis Set: 6-31G*
  Basis Set:
  Basis Set: 6-31G*
  Basis Set:
  @DF-RHF Final Energy:  -310.20720169637332
    Total Energy =                       -310.2072016963733176
  Basis Set: 6-31G*
  Basis Set:
  Basis Set: 6-31G*
  Basis Set:
  @DF-RHF Final Energy:  -310.20722090151867
    Total Energy =                       -310.2072209015185535
  Basis Set: 6-31G*
  Basis Set:
  Basis Set: 6-31G*
  Basis Set:
  @DF-RHF Final Energy:  -310.20723106818440
    Total Energy =                       -310.2072310681846830
  Basis Set: 6-31G*
  Basis Set:
  Basis Set: 6-31G*
  Basis Set:
  @DF-RHF Final Energy:  -310.20723302241186
    Total Energy =                       -310.2072330224119696
  Basis Set: 6-31G*
  Basis Set:
  Basis Set: 6-31G*
  Basis Set:
  @DF-RHF Final Energy:  -310.20723431729351
    Total Energy =                       -310.2072343172935120
  Basis Set: 6-31G*
  Basis Set:
  Charge       = 0
  Multiplicity = 1
  Basis Set: 6-31G*
  Basis Set:

    Orbital Energies (a.u.)
    -----------------------

    Doubly Occupied:

       1A    -20.551866     2A    -11.267077     3A    -11.216153
       4A    -11.215379     5A    -11.213573     6A    -11.210680
       7A    -11.208225     8A     -1.358683     9A     -1.084643
      10A     -1.031564    11A     -0.953947    12A     -0.879210
      13A     -0.809350    14A     -0.772769    15A     -0.692090
      16A     -0.662508    17A     -0.627665    18A     -0.598462
      19A     -0.583909    20A     -0.574791    21A     -0.533144
      22A     -0.525328    23A     -0.506988    24A     -0.485937
      25A     -0.484947    26A     -0.458191    27A     -0.447817
      28A     -0.444773    29A     -0.433893

  @DF-RHF Final Energy:  -310.20723442977459

   => Energetics <=

    Nuclear Repulsion Energy =            313.1493007018650019
    One-Electron Energy =               -1041.0459496668258907
    Two-Electron Energy =                 417.6894145351864154
    DFT Exchange-Correlation Energy =       0.0000000000000000
    Empirical Dispersion Energy =           0.0000000000000000
    PCM Polarization Energy =               0.0000000000000000
    EFP Energy =                            0.0000000000000000
    Total Energy =                       -310.2072344297744166
    Molecular point group: c1
  Basis Set: 6-31G*
  Basis Set:

  -Total Gradient:
     Atom            X                  Y                   Z
    ------   -----------------  -----------------  -----------------
       1       -0.000005823981    -0.000002019259    -0.000001213280
       2       -0.000005589916     0.000006126560     0.000003268199
       3        0.000007264499    -0.000008488068     0.000001897541
       4        0.000016274678    -0.000012016069    -0.000001305092
       5       -0.000001067028    -0.000002307092     0.000000174949
       6       -0.000001658421     0.000003748055     0.000001378261
       7       -0.000010448348    -0.000005312032     0.000002153310
       8       -0.000004930685     0.000001000689    -0.000001207819
       9       -0.000002877013    -0.000002536856    -0.000004890291
      10       -0.002256900206     0.006796533395     0.001111434645
      11        0.000006195427     0.000003997644    -0.000005761284
      12        0.000000210950    -0.000000264377    -0.000008199465
      13        0.002151306394    -0.000402175411    -0.005970825589
      14        0.001350456990    -0.005725448891     0.000596735786
      15       -0.000003036637     0.000008472217     0.000017408092
      16       -0.001249291976    -0.000667360100     0.004246716901
      17        0.000011792769    -0.000008941228     0.000007914992
      18       -0.000011797164     0.000027771444     0.000009162529
      19       -0.000003517108    -0.000006556711    -0.000004360497
      20        0.000008325529     0.000005530936     0.000000798771
      21        0.000005111245    -0.000009754847    -0.000001280659

  **** Optimization is complete! (in 8 steps) ****
    Final optimized geometry and variables:
    Molecular point group: c1

    Geometry (in Angstrom), charge = 0, multiplicity = 1:

    H           -4.215458408470     0.451556663945    -0.113690954337
    O           -3.482562885112    -0.092334543692    -0.364619970339
    C           -2.288606282004     0.476223849681     0.108492857337
    C           -1.137339694416    -0.420346379903    -0.311841209816
    H           -2.151682597846     1.475992033963    -0.301354618269
    H           -2.312119497556     0.569033306422     1.193473330548
    C            0.223085107521     0.102173519768     0.153170890892
    H           -1.153094451938    -0.512111240016    -1.394422267632
    H           -1.314838437721    -1.414717267834     0.088291205515
    C            1.370700374560    -0.810479345146    -0.282599850545
    H            0.374874792271     1.105101084158    -0.237441366459
    H            0.222763059103     0.191669751254     1.238196837782
    C            2.790263033442    -0.424671309271     0.196247734386
    H            1.368554758577    -0.922656813231    -1.364549110217
    H            1.160106873790    -1.812030101129     0.086944556515
    C            3.028570067124     1.057311539728     0.497380813680
    H            3.513052353386    -0.761905154345    -0.540582611070
    H            3.012737526655    -0.979657148453     1.104504361608
    H            2.841027541231     1.683850573115    -0.370330249332
    H            2.396244732726     1.410538646062     1.304230853357
    H            4.060004235808     1.216365696050     0.796919712888

  Mulliken Charges: (a.u.)
   Center  Symbol    Alpha    Beta     Spin     Total
       1     H     0.28116  0.28116  0.00000  0.43767
       2     O     4.37185  4.37185  0.00000 -0.74370
       3     C     2.98955  2.98955  0.00000  0.02090
       4     C     3.15929  3.15929  0.00000 -0.31859
       5     H     0.43285  0.43285  0.00000  0.13431
       6     H     0.43297  0.43297  0.00000  0.13406
       7     C     3.16263  3.16263  0.00000 -0.32525
       8     H     0.41467  0.41467  0.00000  0.17067
       9     H     0.41470  0.41470  0.00000  0.17061
      10     C     3.15501  3.15501  0.00000 -0.31003
      11     H     0.42073  0.42073  0.00000  0.15853
      12     H     0.42337  0.42337  0.00000  0.15327
      13     C     3.15312  3.15312  0.00000 -0.30624
      14     H     0.42116  0.42116  0.00000  0.15768
      15     H     0.42096  0.42096  0.00000  0.15808
      16     C     3.24232  3.24232  0.00000 -0.48463
      17     H     0.41972  0.41972  0.00000  0.16056
      18     H     0.42237  0.42237  0.00000  0.15527
      19     H     0.42215  0.42215  0.00000  0.15570
      20     H     0.42011  0.42011  0.00000  0.15979
      21     H     0.41933  0.41933  0.00000  0.16135

   Total alpha = 29.00000, Total beta = 29.00000, Total charge =  0.00000
