                              Psi4 1.0.54 Driver

  ==> Input File <==

--------------------------------------------------------------------------
set {
	reference rhf
	basis cc-pvtz
}

set_num_threads( 4 )
memory 2 gb

molecule MOL {
0 1

H	 3.273419	 0.176595	 -0.102789
N	 2.433987	 -0.362316	 -0.080024
C	 1.263552	 0.494993	 0.021953
H	 2.497638	 -0.973615	 0.707122
C	 -0.016533	 -0.325589	 -0.026925
H	 1.280915	 1.180773	 -0.818522
H	 1.263064	 1.106893	 0.925038
C	 -1.280353	 0.525521	 0.047747
H	 -0.016686	 -0.912532	 -0.939714
H	 -0.014099	 -1.037598	 0.796369
C	 -1.064640	 1.852038	 0.768727
H	 -2.061130	 -0.035181	 0.554665
H	 -1.647828	 0.718597	 -0.956523
H	 -0.728833	 1.692706	 1.787833
H	 -1.980073	 2.431125	 0.808606
H	 -0.314678	 2.453281	 0.265493

	symmetry c1
}
set optking {
	frozen_dihedral = ("
		12 8 5 9
	")
}

ee,wfn = optimize('scf', return_wfn=True)
oeprop( wfn, 'DIPOLE', 'QUADRUPOLE', 'MULLIKEN_CHARGES')
f=open( 'psi4out.xyz', 'w' )
f.write( "16  " )
f.write( str(ee) + "\n" )
f.write( MOL.save_string_xyz() )
f.close()
--------------------------------------------------------------------------

    Molecular point group: c1
  Charge       = 0
  Multiplicity = 1
  Basis Set: CC-PVTZ
  Basis Set:
  @DF-RHF Final Energy:  -212.39059621510927
    Total Energy =                       -212.3905962151092126
    Molecular point group: c1
  Basis Set: CC-PVTZ
  Basis Set:
  Basis Set: CC-PVTZ
  Basis Set:
  @DF-RHF Final Energy:  -212.37165129944043
    Total Energy =                       -212.3716512994403445
  Basis Set: CC-PVTZ
  Basis Set:
  Basis Set: CC-PVTZ
  Basis Set:
  @DF-RHF Final Energy:  -212.39261683686706
    Total Energy =                       -212.3926168368670915
  Basis Set: CC-PVTZ
  Basis Set:
  Basis Set: CC-PVTZ
  Basis Set:
  @DF-RHF Final Energy:  -212.39353158763316
    Total Energy =                       -212.3935315876331060
  Basis Set: CC-PVTZ
  Basis Set:
  Basis Set: CC-PVTZ
  Basis Set:
  @DF-RHF Final Energy:  -212.39360117534585
    Total Energy =                       -212.3936011753458502
  Basis Set: CC-PVTZ
  Basis Set:
  Basis Set: CC-PVTZ
  Basis Set:
  @DF-RHF Final Energy:  -212.39362883654331
    Total Energy =                       -212.3936288365433143
  Basis Set: CC-PVTZ
  Basis Set:
  Basis Set: CC-PVTZ
  Basis Set:
  @DF-RHF Final Energy:  -212.39363511717596
    Total Energy =                       -212.3936351171760180
  Basis Set: CC-PVTZ
  Basis Set:
  Charge       = 0
  Multiplicity = 1
  Basis Set: CC-PVTZ
  Basis Set:

    Orbital Energies (a.u.)
    -----------------------

    Doubly Occupied:

       1A    -15.525956     2A    -11.237045     3A    -11.213781
       4A    -11.208499     5A    -11.206443     6A     -1.177833
       7A     -1.057163     8A     -0.954886     9A     -0.862899
      10A     -0.775019    11A     -0.657143    12A     -0.642015
      13A     -0.621539    14A     -0.572349    15A     -0.550647
      16A     -0.535247    17A     -0.511938    18A     -0.467036
      19A     -0.462311    20A     -0.454547    21A     -0.383287

  @DF-RHF Final Energy:  -212.39363549848213

   => Energetics <=

    Nuclear Repulsion Energy =            189.4300193683932321
    One-Electron Energy =                -661.4921398363591152
    Two-Electron Energy =                 259.6684849694837567
    DFT Exchange-Correlation Energy =       0.0000000000000000
    Empirical Dispersion Energy =           0.0000000000000000
    PCM Polarization Energy =               0.0000000000000000
    EFP Energy =                            0.0000000000000000
    Total Energy =                       -212.3936354984821264
    Molecular point group: c1
  Basis Set: CC-PVTZ
  Basis Set:

  -Total Gradient:
     Atom            X                  Y                   Z
    ------   -----------------  -----------------  -----------------
       1        0.000000063920     0.000000171367     0.000004265523
       2       -0.000002128488    -0.000017599546     0.000063708354
       3        0.000014737832     0.000037956174    -0.000090632841
       4        0.000011824341     0.000007428482    -0.000024647088
       5       -0.002057567688    -0.005655916391     0.004765209546
       6        0.000006603096    -0.000021862332     0.000027589023
       7       -0.000014691449    -0.000026780034    -0.000030233756
       8       -0.002118883877    -0.001525478772    -0.007082179351
       9        0.002039066546     0.005013754413    -0.002896512354
      10       -0.000012188942    -0.000000308276    -0.000009853008
      11       -0.000003241136     0.000044754585    -0.000010788899
      12        0.002125131906     0.002189184797     0.005257357357
      13        0.000022238914    -0.000005768326     0.000007257418
      14        0.000000044461    -0.000000192047    -0.000013732004
      15        0.000036772667    -0.000020061491     0.000005361234
      16       -0.000047782103    -0.000019282602     0.000027830848

  **** Optimization is complete! (in 8 steps) ****
    Final optimized geometry and variables:
    Molecular point group: c1

    Geometry (in Angstrom), charge = 0, multiplicity = 1:

    H            2.949035951550    -0.006573794033    -0.764023067506
    N            2.152435004232    -0.599434216999    -0.664853144158
    C            0.979967631747     0.164426729475    -0.263680667019
    H            2.381883045015    -1.285749039967     0.023685793122
    C           -0.229694581618    -0.758867411958    -0.149701298574
    H            0.794919860299     0.909943742530    -1.030242312487
    H            1.132486255274     0.702876456878     0.669123370663
    C           -1.579308469282    -0.061481686023     0.106211719874
    H           -0.278720601841    -1.287018161674    -1.094616985786
    H           -0.036046027533    -1.491190750026     0.628905084143
    C           -1.523444729734     1.221325513740     0.939133677581
    H           -2.217668815837    -0.749533329303     0.650274157242
    H           -2.064007832777     0.154571251419    -0.839149076003
    H           -1.065314765067     1.046810100090     1.907051179552
    H           -2.526130835334     1.593652189389     1.115613459866
    H           -0.966543997780     2.008801920967     0.446400541589

  Mulliken Charges: (a.u.)
   Center  Symbol    Alpha    Beta     Spin     Total
       1     H     0.43008  0.43008  0.00000  0.13985
       2     N     3.69162  3.69162  0.00000 -0.38324
       3     C     3.02672  3.02672  0.00000 -0.05344
       4     H     0.43097  0.43097  0.00000  0.13807
       5     C     3.09132  3.09132  0.00000 -0.18263
       6     H     0.45590  0.45590  0.00000  0.08820
       7     H     0.46502  0.46502  0.00000  0.06996
       8     C     3.09124  3.09124  0.00000 -0.18247
       9     H     0.44606  0.44606  0.00000  0.10787
      10     H     0.45762  0.45762  0.00000  0.08477
      11     C     3.15910  3.15910  0.00000 -0.31820
      12     H     0.45148  0.45148  0.00000  0.09705
      13     H     0.45049  0.45049  0.00000  0.09902
      14     H     0.45427  0.45427  0.00000  0.09147
      15     H     0.44507  0.44507  0.00000  0.10986
      16     H     0.45306  0.45306  0.00000  0.09387

   Total alpha = 21.00000, Total beta = 21.00000, Total charge = -0.00000

*** Psi4 exiting successfully. Buy a developer a beer!
