  ==> Input File <==

--------------------------------------------------------------------------
set {
	reference rhf
	basis 6-31G*
}

set_num_threads( 4 )
memory 2 gb

molecule MOL {
0 1

O	 1.859379	 1.273495	 -0.220496
C	 1.705091	 0.115954	 0.001797
C	 0.381791	 -0.609817	 0.001258
O	 2.705751	 -0.709260	 0.282577
C	 -0.823008	 0.326187	 0.001381
H	 0.371250	 -1.265087	 -0.865474
H	 0.370908	 -1.265746	 0.867490
C	 -2.149452	 -0.435131	 -0.000098
H	 -0.770201	 0.977095	 -0.865636
H	 -0.771220	 0.975655	 0.869608
C	 -3.368779	 0.488503	 -0.000883
H	 -2.193746	 -1.087250	 -0.871175
H	 -2.195311	 -1.087803	 0.870418
C	 -4.693822	 -0.272754	 -0.001129
H	 -3.325798	 1.139422	 -0.871284
H	 -3.326423	 1.139959	 0.869145
H	 -4.781274	 -0.907928	 -0.878124
H	 -5.538651	 0.408946	 -0.001420
H	 -4.781694	 -0.907783	 0.875984
C	 4.007720	 -0.153488	 0.313370
H	 4.264515	 0.266432	 -0.648530
H	 4.671212	 -0.969284	 0.554475
H	 4.073851	 0.618199	 1.066783

	symmetry c1
}
set optking {
	frozen_dihedral = ("
		1 2 3 6
	")
}

ee = optimize('scf')
oeprop('DIPOLE', 'QUADRUPOLE', 'MULLIKEN_CHARGES')
f=open( 'psi4out.xyz', 'w' )
f.write( "23  " )
f.write( str(ee) + "\n" )
f.write( MOL.save_string_xyz() )
f.close()
--------------------------------------------------------------------------

    Molecular point group: c1
  Charge       = 0
  Multiplicity = 1
  Basis Set: 6-31G*
  Basis Set:
  @DF-RHF Final Energy:  -422.97613252127053
    Total Energy =                       -422.9761325212709835
    Molecular point group: c1
  Basis Set: 6-31G*
  Basis Set:
  Basis Set: 6-31G*
  Basis Set:
  @DF-RHF Final Energy:  -422.97579551736516
    Total Energy =                       -422.9757955173652135
  Basis Set: 6-31G*
  Basis Set:
  Basis Set: 6-31G*
  Basis Set:
  @DF-RHF Final Energy:  -422.97617069713539
    Total Energy =                       -422.9761706971357853
  Basis Set: 6-31G*
  Basis Set:
  Basis Set: 6-31G*
  Basis Set:
  @DF-RHF Final Energy:  -422.97619947844663
    Total Energy =                       -422.9761994784466879
  Basis Set: 6-31G*
  Basis Set:
  Charge       = 0
  Multiplicity = 1
  Basis Set: 6-31G*
  Basis Set:

    Orbital Energies (a.u.)
    -----------------------

    Doubly Occupied:

       1A    -20.603894     2A    -20.545175     3A    -11.372260
       4A    -11.280853     5A    -11.235469     6A    -11.219530
       7A    -11.217978     8A    -11.216545     9A    -11.209695
      10A     -1.469406    11A     -1.362690    12A     -1.093262
      13A     -1.043633    14A     -0.987041    15A     -0.932193
      16A     -0.843579    17A     -0.795134    18A     -0.767540
      19A     -0.696743    20A     -0.683729    21A     -0.671532
      22A     -0.651897    23A     -0.609274    24A     -0.599303
      25A     -0.572817    26A     -0.560583    27A     -0.554750
      28A     -0.523938    29A     -0.521623    30A     -0.507503
      31A     -0.484430    32A     -0.469977    33A     -0.466265
      34A     -0.461287    35A     -0.455783    36A     -0.435137

  @DF-RHF Final Energy:  -422.97619961580540

   => Energetics <=

    Nuclear Repulsion Energy =            452.1336457832970837
    One-Electron Energy =               -1471.9747923280176565
    Two-Electron Energy =                 596.8649469289149465
    DFT Exchange-Correlation Energy =       0.0000000000000000
    Empirical Dispersion Energy =           0.0000000000000000
    PCM Polarization Energy =               0.0000000000000000
    EFP Energy =                            0.0000000000000000
    Total Energy =                       -422.9761996158056263
    Molecular point group: c1
  Basis Set: 6-31G*
  Basis Set:

  -Total Gradient:
     Atom            X                  Y                   Z
    ------   -----------------  -----------------  -----------------
       1        0.000051008222    -0.000116411423    -0.000490688652
       2       -0.000126659852     0.000256064621     0.000700535786
       3        0.000262867829    -0.000464803407     0.000014197599
       4       -0.000004091968    -0.000003296427     0.000067640297
       5        0.000001413427     0.000010239135     0.000032894546
       6       -0.000205135386     0.000331737471    -0.000252167643
       7        0.000018815020     0.000007895529     0.000003182309
       8        0.000003949566    -0.000007484089    -0.000007250910
       9       -0.000002647323     0.000005683777    -0.000004538284
      10        0.000004691715    -0.000005997151    -0.000009045194
      11        0.000002890717     0.000002064960     0.000009748676
      12       -0.000004038986    -0.000007373341     0.000001776496
      13        0.000001349705     0.000003863432     0.000002082192
      14        0.000001703178    -0.000001496566    -0.000009443037
      15       -0.000000557757     0.000002948441     0.000002050592
      16       -0.000000724806    -0.000001644020     0.000002272720
      17       -0.000000295004    -0.000002840645     0.000001311106
      18        0.000000454627     0.000000743897    -0.000003013767
      19        0.000000630934     0.000003080264     0.000001131677
      20       -0.000003905132    -0.000029986471    -0.000132467603
      21        0.000028764234     0.000005732408     0.000026652300
      22       -0.000000638053     0.000004868125     0.000020983438
      23       -0.000029844920     0.000006411479     0.000022155355

  **** Optimization is complete! (in 5 steps) ****
    Final optimized geometry and variables:
    Molecular point group: c1

    Geometry (in Angstrom), charge = 0, multiplicity = 1:

    O            1.854539815699     1.271275707944    -0.238649771259
    C            1.705905457710     0.113006834624    -0.015861093419
    C            0.383646927886    -0.614941983643    -0.006971590832
    O            2.713217995363    -0.712645905835     0.237518270030
    C           -0.821544351294     0.321309802313    -0.025565328699
    H            0.377689867622    -1.266645419470    -0.877825954256
    H            0.366052382655    -1.270233863355     0.857835559250
    C           -2.147832773203    -0.439990452904    -0.043274755616
    H           -0.755224858178     0.970652000261    -0.892046653772
    H           -0.783128252119     0.971779098306     0.843538753190
    C           -3.366961573996     0.483718279854    -0.060262968223
    H           -2.180544786839    -1.091934380632    -0.915006974518
    H           -2.205178713564    -1.092752325174     0.826488443465
    C           -4.691889402265    -0.277483711965    -0.081216349639
    H           -3.311125270059     1.136096814118    -0.928769267942
    H           -3.337486797615     1.133648977694     0.811449649257
    H           -4.766269714148    -0.911566327056    -0.960237170206
    H           -5.536606800189     0.404208069247    -0.093256946158
    H           -4.792883482272    -0.913628710284     0.793665142101
    C            4.016606405821    -0.159356130275     0.223311773927
    H            4.243755287805     0.254316806836    -0.748712439682
    H            4.685904328894    -0.975044075854     0.448373343701
    H            4.107651641866     0.616635466966     0.969629176340

  Mulliken Charges: (a.u.)
   Center  Symbol    Alpha    Beta     Spin     Total
       1     O     4.28618  4.28618  0.00000 -0.57236
       2     C     2.60450  2.60450  0.00000  0.79100
       3     C     3.20842  3.20842  0.00000 -0.41684
       4     O     4.30729  4.30729  0.00000 -0.61457
       5     C     3.15318  3.15318  0.00000 -0.30637
       6     H     0.40034  0.40034  0.00000  0.19932
       7     H     0.40086  0.40086  0.00000  0.19829
       8     C     3.15324  3.15324  0.00000 -0.30648
       9     H     0.40874  0.40874  0.00000  0.18252
      10     H     0.41440  0.41440  0.00000  0.17120
      11     C     3.15158  3.15158  0.00000 -0.30316
      12     H     0.42392  0.42392  0.00000  0.15216
      13     H     0.42398  0.42398  0.00000  0.15203
      14     C     3.23959  3.23959  0.00000 -0.47919
      15     H     0.42109  0.42109  0.00000  0.15782
      16     H     0.42156  0.42156  0.00000  0.15688
      17     H     0.42176  0.42176  0.00000  0.15649
      18     H     0.41846  0.41846  0.00000  0.16307
      19     H     0.42185  0.42185  0.00000  0.15630
      20     C     3.09260  3.09260  0.00000 -0.18520
      21     H     0.40925  0.40925  0.00000  0.18150
      22     H     0.40842  0.40842  0.00000  0.18317
      23     H     0.40879  0.40879  0.00000  0.18242

   Total alpha = 36.00000, Total beta = 36.00000, Total charge = -0.00000
