  ==> Input File <==

--------------------------------------------------------------------------
set {
	reference rhf
	basis 6-31G*
}

set_num_threads( 4 )
memory 2 gb

molecule MOL {
0 1

O	 0.851774	 1.883526	 0.444330
C	 0.046903	 1.829983	 1.317460
C	 -1.223986	 1.016308	 1.291573
O	 0.166829	 2.497822	 2.457891
C	 -1.412532	 0.227344	 -0.000452
H	 -1.205549	 0.357857	 2.155782
H	 -2.051184	 1.700691	 1.459256
C	 -2.706999	 -0.587347	 -0.000541
H	 -0.562494	 -0.432264	 -0.144875
H	 -1.408854	 0.912505	 -0.842500
C	 -3.956778	 0.291888	 0.000910
H	 -2.726114	 -1.239230	 -0.871609
H	 -2.725217	 -1.240844	 0.869333
H	 -3.985213	 0.933254	 -0.875158
H	 -4.860123	 -0.309979	 0.000519
H	 -3.984618	 0.931166	 0.878514
C	 1.320543	 3.304233	 2.612116
H	 2.215653	 2.701640	 2.556018
H	 1.235481	 3.757607	 3.587393
H	 1.356731	 4.066124	 1.846793

	symmetry c1
}
set optking {
	frozen_dihedral = ("
		9 5 8 12
	")
}

ee = optimize('scf')
oeprop('DIPOLE', 'QUADRUPOLE', 'MULLIKEN_CHARGES')
f=open( 'psi4out.xyz', 'w' )
f.write( "20  " )
f.write( str(ee) + "\n" )
f.write( MOL.save_string_xyz() )
f.close()
--------------------------------------------------------------------------

    Molecular point group: c1
  Charge       = 0
  Multiplicity = 1
  Basis Set: 6-31G*
  Basis Set:
  @DF-RHF Final Energy:  -383.93946355492545
    Total Energy =                       -383.9394635549251689
    Molecular point group: c1
  Basis Set: 6-31G*
  Basis Set:
  Basis Set: 6-31G*
  Basis Set:
  @DF-RHF Final Energy:  -383.93983367198177
    Total Energy =                       -383.9398336719816598
  Basis Set: 6-31G*
  Basis Set:
  Basis Set: 6-31G*
  Basis Set:
  @DF-RHF Final Energy:  -383.94004408678859
    Total Energy =                       -383.9400440867882480
  Basis Set: 6-31G*
  Basis Set:
  Basis Set: 6-31G*
  Basis Set:
  @DF-RHF Final Energy:  -383.93958523575611
    Total Energy =                       -383.9395852357557715
  Basis Set: 6-31G*
  Basis Set:
  Basis Set: 6-31G*
  Basis Set:
  @DF-RHF Final Energy:  -383.94006803821759
    Total Energy =                       -383.9400680382173050
  Basis Set: 6-31G*
  Basis Set:
  Basis Set: 6-31G*
  Basis Set:
  @DF-RHF Final Energy:  -383.94007216321717
    Total Energy =                       -383.9400721632166551
  Basis Set: 6-31G*
  Basis Set:
  Charge       = 0
  Multiplicity = 1
  Basis Set: 6-31G*
  Basis Set:

    Orbital Energies (a.u.)
    -----------------------

    Doubly Occupied:

       1A    -20.603672     2A    -20.545513     3A    -11.372394
       4A    -11.280881     5A    -11.235298     6A    -11.220528
       7A    -11.219469     8A    -11.212686     9A     -1.469393
      10A     -1.362846    11A     -1.088695    12A     -1.022653
      13A     -0.967874    14A     -0.894782    15A     -0.799978
      16A     -0.764452    17A     -0.701456    18A     -0.682813
      19A     -0.672132    20A     -0.634256    21A     -0.611192
      22A     -0.595011    23A     -0.569815    24A     -0.548722
      25A     -0.533963    26A     -0.522985    27A     -0.509021
      28A     -0.473594    29A     -0.472021    30A     -0.467738
      31A     -0.455720    32A     -0.437732

  @DF-RHF Final Energy:  -383.94007231907278

   => Energetics <=

    Nuclear Repulsion Energy =            384.7014572915925328
    One-Electron Energy =               -1285.3844891479366197
    Two-Electron Energy =                 516.7429595372713038
    DFT Exchange-Correlation Energy =       0.0000000000000000
    Empirical Dispersion Energy =           0.0000000000000000
    PCM Polarization Energy =               0.0000000000000000
    EFP Energy =                            0.0000000000000000
    Total Energy =                       -383.9400723190727831
    Molecular point group: c1
  Basis Set: 6-31G*
  Basis Set:

  -Total Gradient:
     Atom            X                  Y                   Z
    ------   -----------------  -----------------  -----------------
       1       -0.000002592303     0.000005375062     0.000002044392
       2       -0.000000392718     0.000000704912     0.000000355998
       3        0.000004499796    -0.000029556550     0.000001170172
       4        0.000008167604    -0.000010198445     0.000000213411
       5        0.000017816873    -0.000048338603     0.000316448151
       6       -0.000005893308     0.000010011408    -0.000006737466
       7       -0.000015185602     0.000009087061    -0.000005582139
       8       -0.000130249595     0.000209732502    -0.000196200810
       9       -0.000019269538     0.000014902978    -0.000244240807
      10        0.000003224251     0.000006441047     0.000005606778
      11        0.000022130716     0.000003143888    -0.000010391575
      12        0.000103876532    -0.000178299366     0.000120692173
      13       -0.000005029342     0.000003697005     0.000009520721
      14        0.000004754545     0.000003345489     0.000007790762
      15        0.000007984348    -0.000007749595    -0.000006424080
      16        0.000006416203     0.000001437516     0.000006520721
      17       -0.000002710627     0.000008959118    -0.000001973263
      18       -0.000000600187    -0.000002184042    -0.000000177372
      19        0.000001396155    -0.000000541814     0.000000186304
      20        0.000001656199     0.000000030427     0.000001177931

  **** Optimization is complete! (in 7 steps) ****
    Final optimized geometry and variables:
    Molecular point group: c1

    Geometry (in Angstrom), charge = 0, multiplicity = 1:

    O            1.719398509203     0.507655514094    -0.569889948111
    C            0.899153928691     0.499751144141     0.290426860240
    C           -0.401105285496    -0.266446772485     0.259277829478
    O            1.025927948883     1.183746907456     1.420660729078
    C           -0.593931179931    -1.069252978519    -1.025133612303
    H           -0.415827151021    -0.914439994780     1.131836836888
    H           -1.198539968719     0.453650541467     0.411477736691
    C           -1.869541828606    -1.918334322104    -1.032605665460
    H            0.266014488419    -1.715491135347    -1.164321283871
    H           -0.599559501959    -0.391852991964    -1.873867871902
    C           -3.170004233563    -1.112856257852    -1.049820131912
    H           -1.844201468866    -2.560395520378    -1.908977932727
    H           -1.867410041741    -2.584092652098    -0.171626696240
    H           -3.195700621788    -0.432291796320    -1.896429387038
    H           -4.029493929162    -1.770987668976    -1.129586915951
    H           -3.297312988480    -0.523463610577    -0.147277576172
    C            2.206517938251     1.949274224994     1.579506422853
    H            3.079191659983     1.312879357776     1.548506859788
    H            2.123333888767     2.423019306399     2.545225879252
    H            2.283219976677     2.695371853238     0.801716234781

  Mulliken Charges: (a.u.)
   Center  Symbol    Alpha    Beta     Spin     Total
       1     O     4.28583  4.28583  0.00000 -0.57167
       2     C     2.60514  2.60514  0.00000  0.78972
       3     C     3.20934  3.20934  0.00000 -0.41868
       4     O     4.30732  4.30732  0.00000 -0.61463
       5     C     3.15320  3.15320  0.00000 -0.30640
       6     H     0.40113  0.40113  0.00000  0.19774
       7     H     0.39902  0.39902  0.00000  0.20197
       8     C     3.15598  3.15598  0.00000 -0.31196
       9     H     0.40918  0.40918  0.00000  0.18164
      10     H     0.41307  0.41307  0.00000  0.17386
      11     C     3.24240  3.24240  0.00000 -0.48481
      12     H     0.41707  0.41707  0.00000  0.16587
      13     H     0.42315  0.42315  0.00000  0.15370
      14     H     0.42018  0.42018  0.00000  0.15963
      15     H     0.41740  0.41740  0.00000  0.16521
      16     H     0.42160  0.42160  0.00000  0.15680
      17     C     3.09242  3.09242  0.00000 -0.18483
      18     H     0.40907  0.40907  0.00000  0.18185
      19     H     0.40845  0.40845  0.00000  0.18310
      20     H     0.40905  0.40905  0.00000  0.18190

   Total alpha = 32.00000, Total beta = 32.00000, Total charge =  0.00000
