  ==> Input File <==

--------------------------------------------------------------------------
set {
	reference rhf
	basis 6-31G*
}

set_num_threads( 1 )
memory 2 gb

molecule MOL {
0 1

H	 -3.135461	 -1.215070	 0.001379
O	 -2.310168	 -0.871793	 -0.309793
C	 -2.026376	 0.340750	 0.341611
C	 -0.673256	 0.843270	 -0.132153
H	 -2.792215	 1.080697	 0.115987
H	 -2.013526	 0.200402	 1.421792
C	 0.486613	 -0.083066	 0.235839
H	 -0.715586	 0.970948	 -1.210718
H	 -0.508072	 1.829858	 0.297090
C	 0.924458	 0.060753	 1.694407
H	 1.327074	 0.121966	 -0.419219
H	 0.193466	 -1.115685	 0.049819
C	 2.079683	 -0.869153	 2.063733
H	 1.218299	 1.091492	 1.881365
H	 0.078231	 -0.138393	 2.349148
H	 2.953102	 -0.670708	 1.449201
H	 2.370219	 -0.743797	 3.102395
H	 1.805815	 -1.910762	 1.920358

	symmetry c1
}
set optking {
	frozen_dihedral = ("
		14 10 7 11,
		2 3 4 8,
		1 2 3 4
	")
}

ee = energy('scf')
oeprop('DIPOLE', 'QUADRUPOLE', 'MULLIKEN_CHARGES')
f=open( 'psi4out.xyz', 'w' )
f.write( "18  " )
f.write( str(ee) + "\n" )
f.write( MOL.save_string_xyz() )
f.close()
--------------------------------------------------------------------------

    Molecular point group: c1

    Geometry (in Angstrom), charge = 0, multiplicity = 1:

       Center              X                  Y                   Z               Mass
    ------------   -----------------  -----------------  -----------------  -----------------
           H         -2.832698204769    -1.090916170728    -0.640365128189     1.007825032070
           O         -2.007405204769    -0.747639170728    -0.951537128189    15.994914619560
           C         -1.723613204769     0.464903829272    -0.300133128189    12.000000000000
           C         -0.370493204769     0.967423829272    -0.773897128189    12.000000000000
           H         -2.489452204769     1.204850829272    -0.525757128189     1.007825032070
           H         -1.710763204769     0.324555829272     0.780047871811     1.007825032070
           C          0.789375795231     0.041087829272    -0.405905128189    12.000000000000
           H         -0.412823204769     1.095101829272    -1.852462128189     1.007825032070
           H         -0.205309204769     1.954011829272    -0.344654128189     1.007825032070
           C          1.227220795231     0.184906829272     1.052662871811    12.000000000000
           H          1.629836795231     0.246119829272    -1.060963128189     1.007825032070
           H          0.496228795231    -0.991531170728    -0.591925128189     1.007825032070
           C          2.382445795231    -0.744999170728     1.421988871811    12.000000000000
           H          1.521061795231     1.215645829272     1.239620871811     1.007825032070
           H          0.380993795231    -0.014239170728     1.707403871811     1.007825032070
           H          3.255864795231    -0.546554170728     0.807456871811     1.007825032070
           H          2.672981795231    -0.619643170728     2.460650871811     1.007825032070
           H          2.108577795231    -1.786608170728     1.278613871811     1.007825032070

  Charge       = 0
  Multiplicity = 1
  Basis Set: 6-31G*
  Basis Set:

    Orbital Energies (a.u.)
    -----------------------

    Doubly Occupied:

       1A    -20.553286     2A    -11.267643     3A    -11.211565
       4A    -11.211492     5A    -11.205584     6A    -11.205234
       7A     -1.360049     8A     -1.076095     9A     -1.007081
      10A     -0.912929    11A     -0.828092    12A     -0.774540
      13A     -0.703006    14A     -0.650568    15A     -0.619627
      16A     -0.583293    17A     -0.564781    18A     -0.556599
      19A     -0.532168    20A     -0.503494    21A     -0.486536
      22A     -0.467471    23A     -0.453191    24A     -0.450030
      25A     -0.427745

  @DF-RHF Final Energy:  -271.17775691332417

   => Energetics <=

    Nuclear Repulsion Energy =            252.7716998371087982
    One-Electron Energy =                -868.6747899551658065
    Two-Electron Energy =                 344.7253332047326353
    DFT Exchange-Correlation Energy =       0.0000000000000000
    Empirical Dispersion Energy =           0.0000000000000000
    PCM Polarization Energy =               0.0000000000000000
    EFP Energy =                            0.0000000000000000
    Total Energy =                       -271.1777569133243446

  Mulliken Charges: (a.u.)
   Center  Symbol    Alpha    Beta     Spin     Total
       1     H     0.28060  0.28060  0.00000  0.43879
       2     O     4.36949  4.36949  0.00000 -0.73899
       3     C     2.99868  2.99868  0.00000  0.00264
       4     C     3.16237  3.16237  0.00000 -0.32475
       5     H     0.42891  0.42891  0.00000  0.14218
       6     H     0.43164  0.43164  0.00000  0.13672
       7     C     3.15765  3.15765  0.00000 -0.31530
       8     H     0.41283  0.41283  0.00000  0.17433
       9     H     0.42384  0.42384  0.00000  0.15232
      10     C     3.15379  3.15379  0.00000 -0.30758
      11     H     0.42184  0.42184  0.00000  0.15631
      12     H     0.40701  0.40701  0.00000  0.18598
      13     C     3.23856  3.23856  0.00000 -0.47711
      14     H     0.42502  0.42502  0.00000  0.14995
      15     H     0.42413  0.42413  0.00000  0.15173
      16     H     0.42188  0.42188  0.00000  0.15623
      17     H     0.42080  0.42080  0.00000  0.15839
      18     H     0.42094  0.42094  0.00000  0.15813

   Total alpha = 25.00000, Total beta = 25.00000, Total charge =  0.00000
