  ==> Input File <==

--------------------------------------------------------------------------
set {
	reference rhf
	basis cc-pvtz
}

set_num_threads( 4 )
memory 2 gb

molecule MOL {
0 1

O	 -0.294688	 1.318815	 -0.000872
C	 -0.448732	 0.145721	 -0.000187
C	 -1.780748	 -0.548101	 0.000195
O	 0.550743	 -0.719877	 0.000412
H	 -1.859389	 -1.183260	 -0.872613
H	 -2.570236	 0.185547	 -0.001342
H	 -1.860233	 -1.180337	 0.875064
C	 0.629017	 -1.618351	 1.089303
H	 0.739501	 -1.080644	 2.019192
H	 1.497060	 -2.230849	 0.907559
H	 -0.257496	 -2.232777	 1.140259

	symmetry c1
}
set optking {
	frozen_dihedral = ("
		8 4 2 1
	")
}

ee = optimize('scf')
oeprop('DIPOLE', 'QUADRUPOLE', 'MULLIKEN_CHARGES')
f=open( 'psi4out.xyz', 'w' )
f.write( "11  " )
f.write( str(ee) + "\n" )
f.write( MOL.save_string_xyz() )
f.close()
--------------------------------------------------------------------------

    Molecular point group: c1
  Charge       = 0
  Multiplicity = 1
  Basis Set: CC-PVTZ
  Basis Set:
  @DF-RHF Final Energy:  -266.91564654813726
    Total Energy =                       -266.9156465481372607
    Molecular point group: c1
  Basis Set: CC-PVTZ
  Basis Set:
  Basis Set: CC-PVTZ
  Basis Set:
  @DF-RHF Final Energy:  -266.91582318828421
    Total Energy =                       -266.9158231882842074
  Basis Set: CC-PVTZ
  Basis Set:
  Basis Set: CC-PVTZ
  Basis Set:
  @DF-RHF Final Energy:  -266.91855807989680
    Total Energy =                       -266.9185580798965702
  Basis Set: CC-PVTZ
  Basis Set:
  Basis Set: CC-PVTZ
  Basis Set:
  @DF-RHF Final Energy:  -266.91820390758818
    Total Energy =                       -266.9182039075881221
  Basis Set: CC-PVTZ
  Basis Set:
  @DF-RHF Final Energy:  -266.91964423542981
    Total Energy =                       -266.9196442354295868
  @DF-RHF Final Energy:  -266.91968761163446
    Total Energy =                       -266.9196876116342310
  Basis Set: CC-PVTZ
  Basis Set:
  @DF-RHF Final Energy:  -266.91970896874454
    Total Energy =                       -266.9197089687447715
  Basis Set: CC-PVTZ
  Basis Set:
  Basis Set: CC-PVTZ
  Basis Set:
  @DF-RHF Final Energy:  -266.91972538622520
    Total Energy =                       -266.9197253862250818
  Basis Set: CC-PVTZ
  Basis Set:
  Basis Set: CC-PVTZ
  Basis Set:
  @DF-RHF Final Energy:  -266.91973487274686
    Total Energy =                       -266.9197348727468579
  Basis Set: CC-PVTZ
  Basis Set:
  Charge       = 0
  Multiplicity = 1
  Basis Set: CC-PVTZ
  Basis Set:

    Orbital Energies (a.u.)
    -----------------------

    Doubly Occupied:

       1A    -20.584798     2A    -20.543078     3A    -11.371960
       4A    -11.293743     5A    -11.240005     6A     -1.464609
       7A     -1.372786     8A     -1.024090     9A     -0.974369
      10A     -0.782229    11A     -0.697917    12A     -0.687154
      13A     -0.675640    14A     -0.616556    15A     -0.591471
      16A     -0.580794    17A     -0.545544    18A     -0.498977
      19A     -0.464194    20A     -0.443165

  @DF-RHF Final Energy:  -266.91973581667844

   => Energetics <=

    Nuclear Repulsion Energy =            182.9384180191377425
    One-Electron Energy =                -726.8101447624189859
    Two-Electron Energy =                 276.9519909266028890
    DFT Exchange-Correlation Energy =       0.0000000000000000
    Empirical Dispersion Energy =           0.0000000000000000
    PCM Polarization Energy =               0.0000000000000000
    EFP Energy =                            0.0000000000000000
    Total Energy =                       -266.9197358166783260
    Molecular point group: c1
  Basis Set: CC-PVTZ
  Basis Set:

  -Total Gradient:
     Atom            X                  Y                   Z
    ------   -----------------  -----------------  -----------------
       1        0.000008266735    -0.000142112616     0.003296755595
       2        0.000509770748     0.001281138619    -0.004071097882
       3        0.000036708402    -0.000036241927     0.000010056177
       4       -0.002056578757    -0.002899166355    -0.000615457181
       5        0.000003514671     0.000005959203     0.000001124656
       6        0.000000983505     0.000004670995     0.000001228120
       7        0.000007320118     0.000007102048    -0.000006377215
       8        0.001480215868     0.001754047280     0.001404410204
       9       -0.000007907761     0.000004810828    -0.000009545847
      10        0.000009184555     0.000004757373    -0.000007363425
      11        0.000008521917     0.000015034552    -0.000003733203

  **** Optimization is complete! (in 10 steps) ****
    Final optimized geometry and variables:
    Molecular point group: c1

    Geometry (in Angstrom), charge = 0, multiplicity = 1:

    O           -0.030751592160     1.600913814518    -0.196101371496
    C           -0.212100893765     0.439640617294    -0.214475669952
    C           -1.580556344260    -0.190818783876    -0.252010291948
    O            0.825144610157    -0.415981258825    -0.229259202078
    H           -1.613269599789    -0.977486610773    -0.994187271856
    H           -2.312819718033     0.567983798614    -0.474573733671
    H           -1.814024728645    -0.629245789067     0.710970156702
    C            0.959926000693    -1.341641015342     0.822714666584
    H            0.973124159116    -0.835829021591     1.780639497406
    H            1.905212427938    -1.837055139256     0.673472652736
    H            0.169371969463    -2.082095999715     0.812905518960

  Mulliken Charges: (a.u.)
   Center  Symbol    Alpha    Beta     Spin     Total
       1     O     4.16762  4.16762  0.00000 -0.33523
       2     C     2.80450  2.80450  0.00000  0.39100
       3     C     3.15820  3.15820  0.00000 -0.31640
       4     O     4.15046  4.15046  0.00000 -0.30092
       5     H     0.44160  0.44160  0.00000  0.11680
       6     H     0.43076  0.43076  0.00000  0.13849
       7     H     0.44979  0.44979  0.00000  0.10043
       8     C     3.03976  3.03976  0.00000 -0.07952
       9     H     0.45749  0.45749  0.00000  0.08502
      10     H     0.43735  0.43735  0.00000  0.12530
      11     H     0.46248  0.46248  0.00000  0.07505

   Total alpha = 20.00000, Total beta = 20.00000, Total charge = -0.00000
