  ==> Input File <==

--------------------------------------------------------------------------
set {
	reference rhf
	basis 6-31G*
}

set_num_threads( 1 )
memory 2 gb

molecule MOL {
0 1

O	 -2.355436	 -0.470642	 1.560497
C	 -1.281533	 -0.176465	 1.990179
C	 -0.019031	 -0.806244	 1.428242
C	 -1.119652	 0.854139	 3.085179
C	 0.379448	 -0.143569	 0.099626
H	 -0.222674	 -1.858331	 1.261068
H	 0.796826	 -0.728689	 2.141256
C	 1.631333	 -0.777471	 -0.511575
H	 -0.459800	 -0.221667	 -0.582245
H	 0.557279	 0.918854	 0.258934
C	 2.915987	 -0.544314	 0.291766
H	 1.766672	 -0.399098	 -1.523130
H	 1.471257	 -1.849544	 -0.605828
C	 3.373361	 0.914346	 0.347591
H	 3.708709	 -1.142521	 -0.150311
H	 2.780642	 -0.921148	 1.303579
H	 3.506512	 1.320010	 -0.651625
H	 4.322697	 0.999599	 0.867103
H	 2.660624	 1.545032	 0.868198
H	 -0.738867	 0.375690	 3.983708
H	 -2.072241	 1.317403	 3.301387
H	 -0.397687	 1.612329	 2.795836

	symmetry c1
}
set optking {
	frozen_dihedral = ("
		6 3 2 1,
		6 3 5 8,
		12 8 11 15
	")
}

ee = energy('scf')
oeprop('DIPOLE', 'QUADRUPOLE', 'MULLIKEN_CHARGES')
f=open( 'psi4out.xyz', 'w' )
f.write( "22  " )
f.write( str(ee) + "\n" )
f.write( MOL.save_string_xyz() )
f.close()
--------------------------------------------------------------------------

    Molecular point group: c1

    Geometry (in Angstrom), charge = 0, multiplicity = 1:

       Center              X                  Y                   Z               Mass
    ------------   -----------------  -----------------  -----------------  -----------------
           O         -2.799785425113    -0.341748519799     0.516682770773    15.994914619560
           C         -1.725882425113    -0.047571519799     0.946364770773    12.000000000000
           C         -0.463380425113    -0.677350519799     0.384427770773    12.000000000000
           C         -1.564001425113     0.983032480201     2.041364770773    12.000000000000
           C         -0.064901425113    -0.014675519799    -0.944188229227    12.000000000000
           H         -0.667023425113    -1.729437519799     0.217253770773     1.007825032070
           H          0.352476574887    -0.599795519799     1.097441770773     1.007825032070
           C          1.186983574887    -0.648577519799    -1.555389229227    12.000000000000
           H         -0.904149425113    -0.092773519799    -1.626059229227     1.007825032070
           H          0.112929574887     1.047747480201    -0.784880229227     1.007825032070
           C          2.471637574887    -0.415420519799    -0.752048229227    12.000000000000
           H          1.322322574887    -0.270204519799    -2.566944229227     1.007825032070
           H          1.026907574887    -1.720650519799    -1.649642229227     1.007825032070
           C          2.929011574887     1.043239480201    -0.696223229227    12.000000000000
           H          3.264359574887    -1.013627519799    -1.194125229227     1.007825032070
           H          2.336292574887    -0.792254519799     0.259764770773     1.007825032070
           H          3.062162574887     1.448903480201    -1.695439229227     1.007825032070
           H          3.878347574887     1.128492480201    -0.176711229227     1.007825032070
           H          2.216274574887     1.673925480201    -0.175616229227     1.007825032070
           H         -1.183216425113     0.504583480201     2.939893770773     1.007825032070
           H         -2.516590425113     1.446296480201     2.257572770773     1.007825032070
           H         -0.842036425113     1.741222480201     1.752021770773     1.007825032070

  Charge       = 0
  Multiplicity = 1
  Basis Set: 6-31G*
  Basis Set:

    Orbital Energies (a.u.)
    -----------------------

    Doubly Occupied:

       1A    -20.547178     2A    -11.324391     3A    -11.229244
       4A    -11.228395     5A    -11.228268     6A    -11.222978
       7A    -11.222327     8A    -11.215843     9A     -1.392933
      10A     -1.098506    11A     -1.042702    12A     -0.999666
      13A     -0.940527    14A     -0.864181    15A     -0.780214
      16A     -0.734945    17A     -0.664009    18A     -0.651623
      19A     -0.621924    20A     -0.614490    21A     -0.605632
      22A     -0.573470    23A     -0.566775    24A     -0.552726
      25A     -0.532584    26A     -0.521393    27A     -0.510608
      28A     -0.485751    29A     -0.466073    30A     -0.463842
      31A     -0.458586    32A     -0.397096

  @DF-RHF Final Energy:  -348.09608334883558

   => Energetics <=

    Nuclear Repulsion Energy =            379.7001056223980413
    One-Electron Energy =               -1224.0745602183485516
    Two-Electron Energy =                 496.2783712471153308
    DFT Exchange-Correlation Energy =       0.0000000000000000
    Empirical Dispersion Energy =           0.0000000000000000
    PCM Polarization Energy =               0.0000000000000000
    EFP Energy =                            0.0000000000000000
    Total Energy =                       -348.0960833488351795

  Mulliken Charges: (a.u.)
   Center  Symbol    Alpha    Beta     Spin     Total
       1     O     4.26259  4.26259  0.00000 -0.52519
       2     C     2.73582  2.73582  0.00000  0.52837
       3     C     3.20320  3.20320  0.00000 -0.40640
       4     C     3.28948  3.28948  0.00000 -0.57895
       5     C     3.16520  3.16520  0.00000 -0.33041
       6     H     0.40139  0.40139  0.00000  0.19723
       7     H     0.41533  0.41533  0.00000  0.16934
       8     C     3.15513  3.15513  0.00000 -0.31026
       9     H     0.40307  0.40307  0.00000  0.19386
      10     H     0.41907  0.41907  0.00000  0.16185
      11     C     3.15691  3.15691  0.00000 -0.31381
      12     H     0.41818  0.41818  0.00000  0.16364
      13     H     0.41895  0.41895  0.00000  0.16210
      14     C     3.24104  3.24104  0.00000 -0.48208
      15     H     0.41778  0.41778  0.00000  0.16445
      16     H     0.42241  0.42241  0.00000  0.15519
      17     H     0.41992  0.41992  0.00000  0.16017
      18     H     0.41749  0.41749  0.00000  0.16502
      19     H     0.42291  0.42291  0.00000  0.15417
      20     H     0.40701  0.40701  0.00000  0.18598
      21     H     0.39701  0.39701  0.00000  0.20598
      22     H     0.41012  0.41012  0.00000  0.17977

   Total alpha = 32.00000, Total beta = 32.00000, Total charge =  0.00000
