                              Psi4 1.0.54 Driver

  ==> Input File <==

--------------------------------------------------------------------------
set {
	reference rhf
	basis cc-pvtz
}

set_num_threads( 4 )
memory 2 gb

molecule MOL {
0 1

H	 3.273419	 0.176595	 -0.102789
N	 2.433987	 -0.362316	 -0.080024
C	 1.263552	 0.494993	 0.021953
H	 2.497638	 -0.973615	 0.707122
C	 -0.016533	 -0.325589	 -0.026925
H	 1.280915	 1.180773	 -0.818522
H	 1.263064	 1.106893	 0.925038
C	 -1.280353	 0.525521	 0.047747
H	 -0.016686	 -0.912532	 -0.939714
H	 -0.014099	 -1.037598	 0.796369
C	 -0.992091	 2.000014	 0.309981
H	 -1.925855	 0.141270	 0.833013
H	 -1.838668	 0.428457	 -0.879473
H	 -0.463555	 2.134002	 1.247758
H	 -1.908531	 2.576606	 0.361251
H	 -0.377936	 2.424516	 -0.477289

	symmetry c1
}
set optking {
	frozen_dihedral = ("
		12 8 5 9
	")
}

ee,wfn = optimize('scf', return_wfn=True)
oeprop( wfn, 'DIPOLE', 'QUADRUPOLE', 'MULLIKEN_CHARGES')
f=open( 'psi4out.xyz', 'w' )
f.write( "16  " )
f.write( str(ee) + "\n" )
f.write( MOL.save_string_xyz() )
f.close()
--------------------------------------------------------------------------

    Molecular point group: c1
  Charge       = 0
  Multiplicity = 1
  Basis Set: CC-PVTZ
  Basis Set:
  @DF-RHF Final Energy:  -212.38597709710197
    Total Energy =                       -212.3859770971019998
    Molecular point group: c1
  Basis Set: CC-PVTZ
  Basis Set:
  Basis Set: CC-PVTZ
  Basis Set:
  @DF-RHF Final Energy:  -212.38492498217283
    Total Energy =                       -212.3849249821728051
  Basis Set: CC-PVTZ
  Basis Set:
  Basis Set: CC-PVTZ
  Basis Set:
  @DF-RHF Final Energy:  -212.38983962278752
    Total Energy =                       -212.3898396227874059
  Basis Set: CC-PVTZ
  Basis Set:
  Basis Set: CC-PVTZ
  Basis Set:
  @DF-RHF Final Energy:  -212.39029998274233
    Total Energy =                       -212.3902999827422491
  Basis Set: CC-PVTZ
  Basis Set:
  Basis Set: CC-PVTZ
  Basis Set:
  @DF-RHF Final Energy:  -212.39035021199382
    Total Energy =                       -212.3903502119939048
  Basis Set: CC-PVTZ
  Basis Set:
  Basis Set: CC-PVTZ
  Basis Set:
  @DF-RHF Final Energy:  -212.39035779113325
    Total Energy =                       -212.3903577911332832
  Basis Set: CC-PVTZ
  Basis Set:
  Basis Set: CC-PVTZ
  Basis Set:
  @DF-RHF Final Energy:  -212.39036377971482
    Total Energy =                       -212.3903637797146757
  Basis Set: CC-PVTZ
  Basis Set:
  Charge       = 0
  Multiplicity = 1
  Basis Set: CC-PVTZ
  Basis Set:

    Orbital Energies (a.u.)
    -----------------------

    Doubly Occupied:

       1A    -15.525958     2A    -11.237295     3A    -11.213679
       4A    -11.208363     5A    -11.206526     6A     -1.177860
       7A     -1.054586     8A     -0.955123     9A     -0.864304
      10A     -0.773678    11A     -0.660714    12A     -0.639425
      13A     -0.616514    14A     -0.576613    15A     -0.547168
      16A     -0.533781    17A     -0.516545    18A     -0.466965
      19A     -0.461843    20A     -0.449845    21A     -0.383252

  @DF-RHF Final Energy:  -212.39036455149596

   => Energetics <=

    Nuclear Repulsion Energy =            189.1498889886025268
    One-Electron Energy =                -660.9404346385199460
    Two-Electron Energy =                 259.4001810984213421
    DFT Exchange-Correlation Energy =       0.0000000000000000
    Empirical Dispersion Energy =           0.0000000000000000
    PCM Polarization Energy =               0.0000000000000000
    EFP Energy =                            0.0000000000000000
    Total Energy =                       -212.3903645514960772
    Molecular point group: c1
  Basis Set: CC-PVTZ
  Basis Set:

  -Total Gradient:
     Atom            X                  Y                   Z
    ------   -----------------  -----------------  -----------------
       1        0.000003615700     0.000004477004    -0.000005289772
       2       -0.000000132327    -0.000007932619    -0.000021073546
       3       -0.000004249800    -0.000006864597     0.000051336358
       4       -0.000004196090     0.000005282520     0.000000414184
       5       -0.000957511133    -0.001635860091     0.001559109757
       6        0.000006016705    -0.000010614186     0.000002507471
       7        0.000003377464     0.000011205143    -0.000000408350
       8       -0.000859590152    -0.001231667453    -0.001907623829
       9        0.000928260412     0.001561623184    -0.001029716712
      10        0.000011918542     0.000000606059     0.000000594436
      11       -0.000003529370    -0.000005176303    -0.000009576979
      12        0.000882999932     0.001310796107     0.001359778178
      13       -0.000000230201    -0.000001698506    -0.000003229632
      14        0.000002043391    -0.000002287527    -0.000002729387
      15       -0.000004890624     0.000003431395     0.000004599673
      16       -0.000003902454     0.000004679869     0.000001308150

  **** Optimization is complete! (in 8 steps) ****
    Final optimized geometry and variables:
    Molecular point group: c1

    Geometry (in Angstrom), charge = 0, multiplicity = 1:

    H            3.008969516039    -0.410372592326    -0.199307643829
    N            2.141804723015    -0.903483829390    -0.173923777537
    C            1.021514633299     0.016715271468    -0.045037296830
    H            2.181256042663    -1.527948437710     0.604577693426
    C           -0.289389914383    -0.763216412798    -0.061871545360
    H            1.058573331479     0.695124514559    -0.889328663632
    H            1.083681878364     0.627506837903     0.853623622918
    C           -1.600151750823     0.063101381185    -0.003456818816
    H           -0.279609888745    -1.360281008806    -0.965455905531
    H           -0.270206268132    -1.464552054641     0.767228500727
    C           -1.468592742718     1.568681376073     0.235543505094
    H           -2.225850085861    -0.334364803202     0.787980136993
    H           -2.150178106355    -0.084827750606    -0.925665889416
    H           -0.996808872017     1.789106243089     1.185874328023
    H           -2.452116492232     2.024505963736     0.248574737237
    H           -0.894964727756     2.058527337641    -0.542014176378

  Mulliken Charges: (a.u.)
   Center  Symbol    Alpha    Beta     Spin     Total
       1     H     0.43016  0.43016  0.00000  0.13968
       2     N     3.69080  3.69080  0.00000 -0.38160
       3     C     3.02687  3.02687  0.00000 -0.05374
       4     H     0.43084  0.43084  0.00000  0.13831
       5     C     3.09276  3.09276  0.00000 -0.18551
       6     H     0.45517  0.45517  0.00000  0.08966
       7     H     0.46563  0.46563  0.00000  0.06873
       8     C     3.09039  3.09039  0.00000 -0.18079
       9     H     0.44641  0.44641  0.00000  0.10718
      10     H     0.45774  0.45774  0.00000  0.08453
      11     C     3.15921  3.15921  0.00000 -0.31843
      12     H     0.45214  0.45214  0.00000  0.09572
      13     H     0.45040  0.45040  0.00000  0.09919
      14     H     0.45388  0.45388  0.00000  0.09223
      15     H     0.44441  0.44441  0.00000  0.11119
      16     H     0.45318  0.45318  0.00000  0.09364

   Total alpha = 21.00000, Total beta = 21.00000, Total charge = -0.00000

*** Psi4 exiting successfully. Buy a developer a beer!
