  ==> Input File <==

--------------------------------------------------------------------------
set {
	reference rhf
	basis 6-31G*
}

set_num_threads( 4 )
memory 2 gb

molecule MOL {
0 1

O	 1.185510	 1.402124	 0.473771
C	 0.001960	 1.304679	 0.429226
C	 -0.964145	 2.449580	 0.571320
O	 -0.632575	 0.154573	 0.251549
H	 -1.620137	 2.272562	 1.415883
H	 -0.417458	 3.369691	 0.714022
H	 -1.582803	 2.518828	 -0.315936
C	 0.160891	 -1.019931	 0.106212
C	 1.589627	 -0.672828	 0.480843
H	 0.089836	 -1.367806	 -0.916050
H	 -0.238459	 -1.792301	 0.749618
C	 2.246377	 0.346236	 -0.452210
H	 2.163194	 -1.597435	 0.473358
H	 1.604769	 -0.303424	 1.502885
C	 3.691736	 0.652107	 -0.061850
H	 2.219579	 -0.032311	 -1.472055
H	 1.666466	 1.263317	 -0.447249
H	 4.134505	 1.377213	 -0.737283
H	 4.305508	 -0.243868	 -0.089969
H	 3.748266	 1.059562	 0.943567

	symmetry c1
}
set optking {
	frozen_dihedral = ("
		2 4 8 10
	")
}

ee = optimize('scf')
oeprop('DIPOLE', 'QUADRUPOLE', 'MULLIKEN_CHARGES')
f=open( 'psi4out.xyz', 'w' )
f.write( "20  " )
f.write( str(ee) + "\n" )
f.write( MOL.save_string_xyz() )
f.close()
--------------------------------------------------------------------------

    Molecular point group: c1
  Charge       = 0
  Multiplicity = 1
  Basis Set: 6-31G*
  Basis Set:
  @DF-RHF Final Energy:  -383.63950809444009
    Total Energy =                       -383.6395080944400888
    Molecular point group: c1
  Basis Set: 6-31G*
  Basis Set:
  Basis Set: 6-31G*
  Basis Set:
  @DF-RHF Final Energy:  -383.76076664168698
    Total Energy =                       -383.7607666416868142
  Basis Set: 6-31G*
  Basis Set:
  Basis Set: 6-31G*
  Basis Set:
  @DF-RHF Final Energy:  -383.84714740155044
    Total Energy =                       -383.8471474015505009
  Basis Set: 6-31G*
  Basis Set:
  Basis Set: 6-31G*
  Basis Set:
  @DF-RHF Final Energy:  -383.89027403644553
    Total Energy =                       -383.8902740364454758
  Basis Set: 6-31G*
  Basis Set:
  @DF-RHF Final Energy:  -383.91126132980980
    Total Energy =                       -383.9112613298098040
  @DF-RHF Final Energy:  -383.92197797969186
    Total Energy =                       -383.9219779796917464
  @DF-RHF Final Energy:  -383.92691392742779
    Total Energy =                       -383.9269139274276768
  @DF-RHF Final Energy:  -383.92910871057779
    Total Energy =                       -383.9291087105776796
  @DF-RHF Final Energy:  -383.93009364293465
    Total Energy =                       -383.9300936429347075
  @DF-RHF Final Energy:  -383.93052874012653
    Total Energy =                       -383.9305287401263058
  @DF-RHF Final Energy:  -383.93072263634190
    Total Energy =                       -383.9307226363422387
  @DF-RHF Final Energy:  -383.93104415792703
    Total Energy =                       -383.9310441579268627
  @DF-RHF Final Energy:  -383.93113664796329
    Total Energy =                       -383.9311366479633989
  @DF-RHF Final Energy:  -383.93115754066895
    Total Energy =                       -383.9311575406688917
  @DF-RHF Final Energy:  -383.93117141574783
    Total Energy =                       -383.9311714157479400
  Basis Set: 6-31G*
  Basis Set:
  @DF-RHF Final Energy:  -383.93120453104035
    Total Energy =                       -383.9312045310402937
  Basis Set: 6-31G*
  Basis Set:
  Basis Set: 6-31G*
  Basis Set:
  @DF-RHF Final Energy:  -383.93122081113836
    Total Energy =                       -383.9312208111385871
  Basis Set: 6-31G*
  Basis Set:
  Basis Set: 6-31G*
  Basis Set:
  @DF-RHF Final Energy:  -383.93122939238884
    Total Energy =                       -383.9312293923886727
  Basis Set: 6-31G*
  Basis Set:
  Charge       = 0
  Multiplicity = 1
  Basis Set: 6-31G*
  Basis Set:

    Orbital Energies (a.u.)
    -----------------------

    Doubly Occupied:

       1A    -20.599435     2A    -20.541079     3A    -11.377062
       4A    -11.290261     5A    -11.230547     6A    -11.220805
       7A    -11.208840     8A    -11.203671     9A     -1.460684
      10A     -1.362498    11A     -1.079544    12A     -1.024964
      13A     -0.977137    14A     -0.894350    15A     -0.809496
      16A     -0.745362    17A     -0.687876    18A     -0.677471
      19A     -0.669519    20A     -0.624672    21A     -0.604453
      22A     -0.588241    23A     -0.564542    24A     -0.559031
      25A     -0.538576    26A     -0.524353    27A     -0.516107
      28A     -0.475527    29A     -0.466656    30A     -0.462629
      31A     -0.440363    32A     -0.429442

  @DF-RHF Final Energy:  -383.93122999312334

   => Energetics <=

    Nuclear Repulsion Energy =            393.9932945670765321
    One-Electron Energy =               -1304.1386659654579034
    Two-Electron Energy =                 526.2141414052575783
    DFT Exchange-Correlation Energy =       0.0000000000000000
    Empirical Dispersion Energy =           0.0000000000000000
    PCM Polarization Energy =               0.0000000000000000
    EFP Energy =                            0.0000000000000000
    Total Energy =                       -383.9312299931237931
    Molecular point group: c1
  Basis Set: 6-31G*
  Basis Set:

  -Total Gradient:
     Atom            X                  Y                   Z
    ------   -----------------  -----------------  -----------------
       1        0.000008592591     0.000023405204    -0.000109872994
       2       -0.000033313717    -0.000290622037     0.001010048653
       3        0.000002950982    -0.000003770836     0.000037018617
       4       -0.000121353800     0.000235392367    -0.001484899933
       5       -0.000001590521    -0.000000586117    -0.000011462493
       6       -0.000000672115     0.000001906050    -0.000003546580
       7        0.000003555389     0.000005004854    -0.000009048403
       8        0.000848917106     0.000697533553     0.000336867163
       9        0.000000139102    -0.000009712231    -0.000006384239
      10       -0.000715817040    -0.000658198076     0.000183033407
      11       -0.000003487906     0.000001221918     0.000001034831
      12        0.000051487501     0.000007091810    -0.000006311416
      13       -0.000001077235    -0.000001830108     0.000000699692
      14       -0.000000497273    -0.000001757270     0.000003632704
      15       -0.000006302625    -0.000013835044    -0.000015408660
      16       -0.000015019605     0.000009255851    -0.000008051857
      17       -0.000019254732    -0.000000343918     0.000081315805
      18        0.000001479414     0.000001387695     0.000000600801
      19       -0.000000463915    -0.000000571994    -0.000000672350
      20        0.000001728400    -0.000000971670     0.000001407250

  **** Optimization is complete! (in 19 steps) ****
    Final optimized geometry and variables:
    Molecular point group: c1

    Geometry (in Angstrom), charge = 0, multiplicity = 1:

    O           -0.131607545855     1.403672191227     0.409435777970
    C           -1.219246945194     0.933172291197     0.318946428929
    C           -2.491969865830     1.709135621126     0.545013981559
    O           -1.500125934095    -0.320009946460     0.009474669745
    H           -3.064809046157     1.250589099062     1.342578529667
    H           -2.251625956548     2.730360558074     0.800615046180
    H           -3.100219058490     1.684053851695    -0.351733703231
    C           -0.579052920334    -1.390418013273    -0.244731735488
    C            0.885530824104    -1.258435021280     0.174657316915
    H           -0.653491919065    -1.600396678992    -1.304674450633
    H           -1.027997712677    -2.221683506483     0.280412263903
    C            1.808054406143    -0.614911550732    -0.862824643185
    H            1.227001328791    -2.278225957979     0.346345020670
    H            0.960506808151    -0.745508084867     1.124336759014
    C            3.252526524762    -0.527475289929    -0.372854033081
    H            1.773522930385    -1.204654314186    -1.777740933537
    H            1.450365585024     0.375892364639    -1.106771472189
    H            3.897081048502    -0.096222705504    -1.132391329642
    H            3.647802114805    -1.508630604619    -0.122273787031
    H            3.322831021040     0.096055811766     0.513235062058

  Mulliken Charges: (a.u.)
   Center  Symbol    Alpha    Beta     Spin     Total
       1     O     4.28396  4.28396  0.00000 -0.56792
       2     C     2.61931  2.61931  0.00000  0.76137
       3     C     3.27980  3.27980  0.00000 -0.55961
       4     O     4.31830  4.31830  0.00000 -0.63661
       5     H     0.40171  0.40171  0.00000  0.19658
       6     H     0.39829  0.39829  0.00000  0.20342
       7     H     0.40133  0.40133  0.00000  0.19734
       8     C     2.98897  2.98897  0.00000  0.02205
       9     C     3.17364  3.17364  0.00000 -0.34728
      10     H     0.41368  0.41368  0.00000  0.17264
      11     H     0.41043  0.41043  0.00000  0.17914
      12     C     3.15355  3.15355  0.00000 -0.30711
      13     H     0.42155  0.42155  0.00000  0.15690
      14     H     0.40241  0.40241  0.00000  0.19519
      15     C     3.24189  3.24189  0.00000 -0.48377
      16     H     0.42947  0.42947  0.00000  0.14106
      17     H     0.40098  0.40098  0.00000  0.19804
      18     H     0.41911  0.41911  0.00000  0.16179
      19     H     0.42540  0.42540  0.00000  0.14920
      20     H     0.41622  0.41622  0.00000  0.16756

   Total alpha = 32.00000, Total beta = 32.00000, Total charge = -0.00000
