                              Psi4 1.0.54 Driver

  ==> Input File <==

--------------------------------------------------------------------------
set {
	reference rhf
	basis cc-pvtz
}

set_num_threads( 4 )
memory 2 gb

molecule MOL {
0 1

O	 -2.817697	 1.304178	 0.001046
C	 -2.664672	 0.129869	 0.003507
C	 -3.797908	 -0.860100	 -0.001145
O	 -1.481217	 -0.452708	 0.001092
H	 -4.408836	 -0.679689	 -0.875387
H	 -3.443486	 -1.878443	 -0.002770
H	 -4.412123	 -0.683688	 0.871605
C	 -0.332055	 0.384012	 -0.000250
C	 0.892252	 -0.506059	 -0.000295
H	 -0.360822	 1.020205	 -0.874146
H	 -0.359817	 1.021310	 0.872861
C	 2.188199	 0.299473	 -0.001416
H	 0.857046	 -1.152781	 -0.871031
H	 0.857910	 -1.151798	 0.871202
C	 2.188084	 1.433338	 1.020091
H	 3.026752	 -0.362499	 0.200074
H	 2.357675	 0.712164	 -0.992849
C	 3.482476	 2.239288	 1.018474
H	 2.020566	 1.021999	 2.011451
H	 1.350635	 2.095600	 0.819653
H	 4.335504	 1.610322	 1.249969
H	 3.449703	 3.035035	 1.753469
H	 3.660544	 2.691976	 0.048825

	symmetry c1
}
set optking {
	frozen_dihedral = ("
		16 12 9 13
	")
}

ee,wfn = optimize('scf', return_wfn=True)
oeprop( wfn, 'DIPOLE', 'QUADRUPOLE', 'MULLIKEN_CHARGES')
f=open( 'psi4out.xyz', 'w' )
f.write( "23  " )
f.write( str(ee) + "\n" )
f.write( MOL.save_string_xyz() )
f.close()
--------------------------------------------------------------------------

    Molecular point group: c1
  Charge       = 0
  Multiplicity = 1
  Basis Set: CC-PVTZ
  Basis Set:
  @DF-RHF Final Energy:  -423.12998793498230
    Total Energy =                       -423.1299879349819548
    Molecular point group: c1
  Basis Set: CC-PVTZ
  Basis Set:
  Basis Set: CC-PVTZ
  Basis Set:
  @DF-RHF Final Energy:  -423.12950095090491
    Total Energy =                       -423.1295009509041165
  Basis Set: CC-PVTZ
  Basis Set:
  Basis Set: CC-PVTZ
  Basis Set:
  @DF-RHF Final Energy:  -423.13168015993472
    Total Energy =                       -423.1316801599340351
  Basis Set: CC-PVTZ
  Basis Set:
  Basis Set: CC-PVTZ
  Basis Set:
  @DF-RHF Final Energy:  -423.13043614345645
    Total Energy =                       -423.1304361434565635
  Basis Set: CC-PVTZ
  Basis Set:
  @DF-RHF Final Energy:  -423.13190038364837
    Total Energy =                       -423.1319003836480306
  Basis Set: CC-PVTZ
  Basis Set:
  @DF-RHF Final Energy:  -423.13195033327770
    Total Energy =                       -423.1319503332774730
  Basis Set: CC-PVTZ
  Basis Set:
  Basis Set: CC-PVTZ
  Basis Set:
  @DF-RHF Final Energy:  -423.13195438514691
    Total Energy =                       -423.1319543851469689
  Basis Set: CC-PVTZ
  Basis Set:
  Basis Set: CC-PVTZ
  Basis Set:
  @DF-RHF Final Energy:  -423.13195602060500
    Total Energy =                       -423.1319560206047754
  Basis Set: CC-PVTZ
  Basis Set:
  Charge       = 0
  Multiplicity = 1
  Basis Set: CC-PVTZ
  Basis Set:

    Orbital Energies (a.u.)
    -----------------------

    Doubly Occupied:

       1A    -20.595635     2A    -20.529385     3A    -11.366242
       4A    -11.278660     5A    -11.230553     6A    -11.222621
       7A    -11.221508     8A    -11.219245     9A    -11.210748
      10A     -1.470888    11A     -1.363778    12A     -1.094796
      13A     -1.040992    14A     -1.003064    15A     -0.932080
      16A     -0.851830    17A     -0.789617    18A     -0.781297
      19A     -0.692976    20A     -0.687851    21A     -0.672007
      22A     -0.641343    23A     -0.610993    24A     -0.588417
      25A     -0.579398    26A     -0.572659    27A     -0.564589
      28A     -0.529925    29A     -0.528141    30A     -0.511936
      31A     -0.496700    32A     -0.475936    33A     -0.468360
      34A     -0.461100    35A     -0.453211    36A     -0.439242

  @DF-RHF Final Energy:  -423.13195611196141

   => Energetics <=

    Nuclear Repulsion Energy =            457.5985726912192035
    One-Electron Energy =               -1483.1056147268609493
    Two-Electron Energy =                 602.3750859236799897
    DFT Exchange-Correlation Energy =       0.0000000000000000
    Empirical Dispersion Energy =           0.0000000000000000
    PCM Polarization Energy =               0.0000000000000000
    EFP Energy =                            0.0000000000000000
    Total Energy =                       -423.1319561119616992
    Molecular point group: c1
  Basis Set: CC-PVTZ
  Basis Set:

  -Total Gradient:
     Atom            X                  Y                   Z
    ------   -----------------  -----------------  -----------------
       1       -0.000014112783     0.000015704949    -0.000003500069
       2        0.000059001227    -0.000022366382     0.000010364055
       3        0.000000474243     0.000004420776    -0.000006298006
       4       -0.000035361292    -0.000001277553     0.000000813278
       5        0.000000030535     0.000000816972     0.000001189777
       6       -0.000003279677    -0.000003577100     0.000000210442
       7        0.000002931020    -0.000001593534     0.000002177438
       8        0.000013205906     0.000019727598    -0.000011511304
       9        0.001736509392    -0.003019515154     0.003265443124
      10       -0.000003551432    -0.000002708213     0.000001100280
      11       -0.000005037179    -0.000004954578     0.000000339979
      12        0.000125181279    -0.000368989870    -0.004694815363
      13       -0.001489076285     0.002593043382    -0.002036526792
      14        0.000001734185    -0.000002256172    -0.000000224254
      15       -0.000007799153     0.000009938649     0.000005338698
      16       -0.000385137096     0.000796361067     0.003476344837
      17        0.000000499364     0.000000392227     0.000001802092
      18        0.000007097610    -0.000009139837    -0.000009349919
      19        0.000003108854     0.000003153086    -0.000012451186
      20        0.000004410281    -0.000006317077     0.000002657195
      21       -0.000003801934     0.000005946153    -0.000003876871
      22       -0.000003693880    -0.000003486524    -0.000000254272
      23       -0.000003333176    -0.000003322868     0.000011026839

  **** Optimization is complete! (in 9 steps) ****
    Final optimized geometry and variables:
    Molecular point group: c1

    Geometry (in Angstrom), charge = 0, multiplicity = 1:

    O           -2.578173514547     0.897578153504    -0.379936640998
    C           -2.425191069346    -0.276885393724    -0.383422668410
    C           -3.553707962736    -1.265436324512    -0.502193525912
    O           -1.246718684529    -0.860547184357    -0.284355878417
    H           -4.083181240863    -1.073631576830    -1.425816903073
    H           -3.200759685426    -2.284174686279    -0.484257541831
    H           -4.244141493726    -1.098765243870     0.313728263835
    C           -0.102726856626    -0.024348763793    -0.163288971622
    C            1.109148605892    -0.929292781916    -0.049682483708
    H           -0.039810664581     0.613811413504    -1.035057042707
    H           -0.227327394777     0.608834308822     0.701618217472
    C            2.444641392990    -0.180084033487    -0.074134803334
    H            1.072960542085    -1.611904201318    -0.891514219355
    H            1.024382948095    -1.520661766799     0.855556255124
    C            2.555572971767     0.989056312888     0.906311117895
    H            3.227377024237    -0.889776879125     0.175459357151
    H            2.646573029762     0.175965882534    -1.080248327539
    C            3.956997729194     1.589907966730     0.940145855435
    H            2.285458906049     0.649870225025     1.903154121116
    H            1.846163390375     1.767205543478     0.645215959558
    H            4.691927501292     0.853390811766     1.247202627761
    H            4.010671426528     2.420615139682     1.634035313234
    H            4.247965820025     1.957463537525    -0.038313244445

  Mulliken Charges: (a.u.)
   Center  Symbol    Alpha    Beta     Spin     Total
       1     O     4.20250  4.20250  0.00000 -0.40500
       2     C     2.81642  2.81642  0.00000  0.36716
       3     C     3.13979  3.13979  0.00000 -0.27958
       4     O     4.14605  4.14605  0.00000 -0.29211
       5     H     0.44215  0.44215  0.00000  0.11570
       6     H     0.44181  0.44181  0.00000  0.11637
       7     H     0.44223  0.44223  0.00000  0.11554
       8     C     2.97795  2.97795  0.00000  0.04411
       9     C     3.09094  3.09094  0.00000 -0.18188
      10     H     0.45351  0.45351  0.00000  0.09297
      11     H     0.45095  0.45095  0.00000  0.09811
      12     C     3.10276  3.10276  0.00000 -0.20553
      13     H     0.44556  0.44556  0.00000  0.10888
      14     H     0.44902  0.44902  0.00000  0.10197
      15     C     3.09252  3.09252  0.00000 -0.18503
      16     H     0.44804  0.44804  0.00000  0.10393
      17     H     0.45002  0.45002  0.00000  0.09995
      18     C     3.14959  3.14959  0.00000 -0.29918
      19     H     0.45192  0.45192  0.00000  0.09617
      20     H     0.45024  0.45024  0.00000  0.09951
      21     H     0.45449  0.45449  0.00000  0.09102
      22     H     0.44703  0.44703  0.00000  0.10595
      23     H     0.45450  0.45450  0.00000  0.09099

   Total alpha = 36.00000, Total beta = 36.00000, Total charge = -0.00000

*** Psi4 exiting successfully. Buy a developer a beer!
