  ==> Input File <==

--------------------------------------------------------------------------
set {
	reference rhf
	basis cc-pvtz
}

set_num_threads( 4 )
memory 2 gb

molecule MOL {
0 1

H	 1.166964	 -1.062386	 0.758429
O	 1.324748	 -0.612467	 -0.052206
C	 0.706474	 0.636793	 -0.025501
C	 1.349043	 1.633465	 0.897202
H	 -0.316064	 0.466240	 0.290142
H	 0.654792	 1.065361	 -1.024679
C	 2.341732	 1.388131	 1.723452
H	 0.929759	 2.625000	 0.849181
H	 2.774343	 0.409900	 1.812240
H	 2.745454	 2.160706	 2.349708

	symmetry c1
}
set optking {
	frozen_dihedral = ("
		5 3 2 1
	")
}

ee = optimize('scf')
oeprop('DIPOLE', 'QUADRUPOLE', 'MULLIKEN_CHARGES')
f=open( 'psi4out.xyz', 'w' )
f.write( "10  " )
f.write( str(ee) + "\n" )
f.write( MOL.save_string_xyz() )
f.close()
--------------------------------------------------------------------------

    Molecular point group: c1
  Charge       = 0
  Multiplicity = 1
  Basis Set: CC-PVTZ
  Basis Set:
  @DF-RHF Final Energy:  -191.99660945721914
    Total Energy =                       -191.9966094572189945
    Molecular point group: c1
  Basis Set: CC-PVTZ
  Basis Set:
  Basis Set: CC-PVTZ
  Basis Set:
  @DF-RHF Final Energy:  -191.99825071207846
    Total Energy =                       -191.9982507120784305
  Basis Set: CC-PVTZ
  Basis Set:
  Basis Set: CC-PVTZ
  Basis Set:
  @DF-RHF Final Energy:  -191.99863987474902
    Total Energy =                       -191.9986398747490171
  Basis Set: CC-PVTZ
  Basis Set:
  Basis Set: CC-PVTZ
  Basis Set:
  @DF-RHF Final Energy:  -191.99872502221072
    Total Energy =                       -191.9987250222108059
  Basis Set: CC-PVTZ
  Basis Set:
  Basis Set: CC-PVTZ
  Basis Set:
  @DF-RHF Final Energy:  -191.99874073432130
    Total Energy =                       -191.9987407343214159
  Basis Set: CC-PVTZ
  Basis Set:
  Charge       = 0
  Multiplicity = 1
  Basis Set: CC-PVTZ
  Basis Set:

    Orbital Energies (a.u.)
    -----------------------

    Doubly Occupied:

       1A    -20.554629     2A    -11.278340     3A    -11.228713
       4A    -11.214875     5A     -1.374861     6A     -1.061194
       7A     -0.931420     8A     -0.769972     9A     -0.694945
      10A     -0.663852    11A     -0.619700    12A     -0.574692
      13A     -0.535895    14A     -0.500010    15A     -0.451139
      16A     -0.367764

  @DF-RHF Final Energy:  -191.99874118980355

   => Energetics <=

    Nuclear Repulsion Energy =            119.5006494502156613
    One-Electron Energy =                -497.3547754879978129
    Two-Electron Energy =                 185.8553848479785700
    DFT Exchange-Correlation Energy =       0.0000000000000000
    Empirical Dispersion Energy =           0.0000000000000000
    PCM Polarization Energy =               0.0000000000000000
    EFP Energy =                            0.0000000000000000
    Total Energy =                       -191.9987411898036100
    Molecular point group: c1
  Basis Set: CC-PVTZ
  Basis Set:

  -Total Gradient:
     Atom            X                  Y                   Z
    ------   -----------------  -----------------  -----------------
       1       -0.000664332664    -0.000350312018    -0.000388520289
       2        0.000865613156     0.000467743405     0.000693165149
       3       -0.000369606598    -0.000220028030    -0.000975615261
       4        0.000086202540     0.000018950413    -0.000071921057
       5        0.000099915165     0.000076654416     0.000701727370
       6        0.000010489075     0.000014816603     0.000006857009
       7        0.000077401329     0.000068543379    -0.000089228007
       8       -0.000037802068    -0.000017325272     0.000031712179
       9       -0.000036148013    -0.000036265435     0.000046056227
      10       -0.000031731923    -0.000022777463     0.000045766678

  **** Optimization is complete! (in 6 steps) ****
    Final optimized geometry and variables:
    Molecular point group: c1

    Geometry (in Angstrom), charge = 0, multiplicity = 1:

    H           -0.351710622446    -1.767559973073     0.162646118771
    O           -0.104438066375    -1.313088057642    -0.622231287825
    C           -0.696830705485    -0.050576576786    -0.645209877237
    C           -0.088116052520     0.939085744175     0.308262676262
    H           -1.763924096032    -0.118522980452    -0.442571687665
    H           -0.595626663145     0.320945744092    -1.658064707259
    C            0.963627465363     0.726486847381     1.067317533701
    H           -0.586026952480     1.894292183609     0.342761667697
    H            1.492022213765    -0.207304549797     1.048253944404
    H            1.335253450942     1.488329062204     1.725842316528

  Mulliken Charges: (a.u.)
   Center  Symbol    Alpha    Beta     Spin     Total
       1     H     0.39118  0.39118  0.00000  0.21765
       2     O     4.19896  4.19896  0.00000 -0.39792
       3     C     2.95135  2.95135  0.00000  0.09729
       4     C     3.08461  3.08461  0.00000 -0.16921
       5     H     0.46838  0.46838  0.00000  0.06325
       6     H     0.45340  0.45340  0.00000  0.09319
       7     C     3.17708  3.17708  0.00000 -0.35416
       8     H     0.42353  0.42353  0.00000  0.15294
       9     H     0.42332  0.42332  0.00000  0.15337
      10     H     0.42820  0.42820  0.00000  0.14360

   Total alpha = 16.00000, Total beta = 16.00000, Total charge = -0.00000
