  ==> Input File <==

--------------------------------------------------------------------------
set {
	reference rhf
	basis 6-31G*
}

set_num_threads( 4 )
memory 2 gb

molecule MOL {
0 1

H	 3.276176	 0.174363	 -0.109463
N	 2.434251	 -0.367735	 -0.081097
C	 1.267428	 0.496480	 0.024474
H	 2.501951	 -0.965776	 0.720575
C	 -0.016086	 -0.325158	 -0.029487
H	 1.288818	 1.183521	 -0.816092
H	 1.267576	 1.109062	 0.929528
C	 -1.282277	 0.529072	 0.046735
H	 -0.012495	 -0.908639	 -0.945788
H	 -0.015903	 -1.041248	 0.791956
C	 -2.235436	 0.081575	 1.154406
H	 -1.800159	 0.491845	 -0.909508
H	 -1.009968	 1.570481	 0.205709
H	 -2.554322	 -0.945863	 1.004733
H	 -3.124738	 0.703516	 1.183621
H	 -1.758642	 0.139987	 2.128817

	symmetry c1
}
set optking {
	frozen_dihedral = ("
		12 8 5 9
	")
}

ee = optimize('scf')
oeprop('DIPOLE', 'QUADRUPOLE', 'MULLIKEN_CHARGES')
f=open( 'psi4out.xyz', 'w' )
f.write( "16  " )
f.write( str(ee) + "\n" )
f.write( MOL.save_string_xyz() )
f.close()
--------------------------------------------------------------------------

    Molecular point group: c1
  Charge       = 0
  Multiplicity = 1
  Basis Set: 6-31G*
  Basis Set:
  @DF-RHF Final Energy:  -212.31170411709346
    Total Energy =                       -212.3117041170932566
    Molecular point group: c1
  Basis Set: 6-31G*
  Basis Set:
  Basis Set: 6-31G*
  Basis Set:
  @DF-RHF Final Energy:  -212.31192178987342
    Total Energy =                       -212.3119217898731677
  Basis Set: 6-31G*
  Basis Set:
  Basis Set: 6-31G*
  Basis Set:
  @DF-RHF Final Energy:  -212.31199261774603
    Total Energy =                       -212.3119926177459433
  Basis Set: 6-31G*
  Basis Set:
  Charge       = 0
  Multiplicity = 1
  Basis Set: 6-31G*
  Basis Set:

    Orbital Energies (a.u.)
    -----------------------

    Doubly Occupied:

       1A    -15.532599     2A    -11.240286     3A    -11.214918
       4A    -11.209333     5A    -11.208638     6A     -1.176865
       7A     -1.056801     8A     -0.958398     9A     -0.844930
      10A     -0.791854    11A     -0.660956    12A     -0.637585
      13A     -0.599694    14A     -0.586382    15A     -0.563110
      16A     -0.517923    17A     -0.508590    18A     -0.469544
      19A     -0.460478    20A     -0.458764    21A     -0.381268

  @DF-RHF Final Energy:  -212.31199295200042

   => Energetics <=

    Nuclear Repulsion Energy =            186.5468646529792522
    One-Electron Energy =                -655.5598835650440606
    Two-Electron Energy =                 256.7010259600644986
    DFT Exchange-Correlation Energy =       0.0000000000000000
    Empirical Dispersion Energy =           0.0000000000000000
    PCM Polarization Energy =               0.0000000000000000
    EFP Energy =                            0.0000000000000000
    Total Energy =                       -212.3119929520003097
    Molecular point group: c1
  Basis Set: 6-31G*
  Basis Set:

  -Total Gradient:
     Atom            X                  Y                   Z
    ------   -----------------  -----------------  -----------------
       1        0.000041298159    -0.000015667502     0.000003161861
       2        0.000075079472    -0.000015220098    -0.000014975104
       3       -0.000074210943    -0.000023720980     0.000013233240
       4        0.000007936861    -0.000000654786     0.000004802637
       5       -0.001148895404    -0.001718247934     0.000991812256
       6       -0.000008651798    -0.000003392200     0.000005726058
       7       -0.000011486017     0.000012690465    -0.000005918745
       8        0.001162827828     0.001803381633    -0.000723480811
       9        0.000759399115     0.001180356774    -0.000738473316
      10       -0.000003107043     0.000004829074    -0.000001127071
      11       -0.000000992107     0.000016513333    -0.000024157029
      12       -0.000821406649    -0.001240994455     0.000488514428
      13        0.000018342724    -0.000005534599     0.000010525894
      14        0.000019179857    -0.000007159182     0.000010519800
      15       -0.000015608812    -0.000006127668    -0.000011789035
      16        0.000000294756     0.000018948126    -0.000008375063

  **** Optimization is complete! (in 4 steps) ****
    Final optimized geometry and variables:
    Molecular point group: c1

    Geometry (in Angstrom), charge = 0, multiplicity = 1:

    H            3.215955490100     0.100388384289    -0.370868665619
    N            2.375905770889    -0.444222547080    -0.335666385387
    C            1.207385408872     0.413719277354    -0.212695164067
    H            2.454705849679    -1.047904979697     0.460749794467
    C           -0.075576549809    -0.412053432854    -0.255626292459
    H            1.214919322663     1.105653463307    -1.049639832905
    H            1.212839161277     1.022135687376     0.695598755798
    C           -1.352878582774     0.452345390290    -0.182878942349
    H           -0.058039390421    -0.997903861631    -1.168252283485
    H           -0.060373813531    -1.123020516069     0.568373846631
    C           -2.325005351374     0.009226470273     0.911722237926
    H           -1.869969885842     0.421494749468    -1.137352533007
    H           -1.087268910177     1.493399598115    -0.015108428862
    H           -2.639648829147    -1.019619974124     0.761367520407
    H           -3.215850776367     0.629929509791     0.923654540326
    H           -1.863255468666     0.071939611393     1.893354712168

  Mulliken Charges: (a.u.)
   Center  Symbol    Alpha    Beta     Spin     Total
       1     H     0.33236  0.33236  0.00000  0.33529
       2     N     3.92210  3.92210  0.00000 -0.84420
       3     C     3.06314  3.06314  0.00000 -0.12629
       4     H     0.33522  0.33522  0.00000  0.32956
       5     C     3.15399  3.15399  0.00000 -0.30798
       6     H     0.42043  0.42043  0.00000  0.15913
       7     H     0.43485  0.43485  0.00000  0.13031
       8     C     3.15878  3.15878  0.00000 -0.31757
       9     H     0.41037  0.41037  0.00000  0.17925
      10     H     0.42504  0.42504  0.00000  0.14993
      11     C     3.23949  3.23949  0.00000 -0.47898
      12     H     0.41855  0.41855  0.00000  0.16290
      13     H     0.42128  0.42128  0.00000  0.15745
      14     H     0.42081  0.42081  0.00000  0.15839
      15     H     0.42067  0.42067  0.00000  0.15866
      16     H     0.42293  0.42293  0.00000  0.15414

   Total alpha = 21.00000, Total beta = 21.00000, Total charge = -0.00000
