  ==> Input File <==

--------------------------------------------------------------------------
set {
	reference rhf
	basis cc-pvtz
}

set_num_threads( 4 )
memory 2 gb

molecule MOL {
0 1

H	 2.867672	 -0.456275	 0.875795
C	 2.403497	 -0.020426	 0.000000
N	 0.989899	 -0.304564	 0.000000
H	 2.867672	 -0.456275	 -0.875795
H	 2.620366	 1.051270	 0.000000
C	 0.315497	 0.242468	 -1.159096
C	 0.338896	 0.126057	 1.219970
H	 0.405308	 1.332556	 -1.196334
H	 0.772220	 -0.155117	 -2.058017
C	 -1.153373	 -0.134300	 -1.132445
H	 0.812787	 -0.356943	 2.066649
H	 0.430467	 1.207389	 1.361674
C	 -1.130575	 -0.247720	 1.185494
H	 -1.682847	 0.345629	 -1.943588
H	 -1.254406	 -1.211973	 -1.244306
O	 -1.759359	 0.280769	 0.055681
H	 -1.643570	 0.150225	 2.049845
H	 -1.230428	 -1.331262	 1.193579

	symmetry c1
}
set optking {
	frozen_dihedral = ("
		6 3 2 5
	")
}

ee = optimize('scf')
oeprop('DIPOLE', 'QUADRUPOLE', 'MULLIKEN_CHARGES')
f=open( 'psi4out.xyz', 'w' )
f.write( "18  " )
f.write( str(ee) + "\n" )
f.write( MOL.save_string_xyz() )
f.close()
--------------------------------------------------------------------------

    Molecular point group: c1
  Charge       = 0
  Multiplicity = 1
  Basis Set: CC-PVTZ
  Basis Set:
  @DF-RHF Final Energy:  -325.14580827167930
    Total Energy =                       -325.1458082716793001
    Molecular point group: c1
  Basis Set: CC-PVTZ
  Basis Set:
  Charge       = 0
  Multiplicity = 1
  Basis Set: CC-PVTZ
  Basis Set:

    Orbital Energies (a.u.)
    -----------------------

    Doubly Occupied:

       1A    -20.547646     2A    -15.544728     3A    -11.264446
       4A    -11.264423     5A    -11.242574     6A    -11.242542
       7A    -11.239238     8A     -1.386569     9A     -1.234588
      10A     -1.039238    11A     -0.982238    12A     -0.884121
      13A     -0.869563    14A     -0.774782    15A     -0.685254
      16A     -0.646730    17A     -0.645434    18A     -0.635475
      19A     -0.631313    20A     -0.574432    21A     -0.557212
      22A     -0.540475    23A     -0.527422    24A     -0.501787
      25A     -0.485287    26A     -0.454093    27A     -0.410809
      28A     -0.356247

  @DF-RHF Final Energy:  -325.14581236681954

   => Energetics <=

    Nuclear Repulsion Energy =            342.0034466385292262
    One-Electron Energy =               -1119.9611956878370620
    Two-Electron Energy =                 452.8119366824885788
    DFT Exchange-Correlation Energy =       0.0000000000000000
    Empirical Dispersion Energy =           0.0000000000000000
    PCM Polarization Energy =               0.0000000000000000
    EFP Energy =                            0.0000000000000000
    Total Energy =                       -325.1458123668192570
    Molecular point group: c1
  Basis Set: CC-PVTZ
  Basis Set:

  -Total Gradient:
     Atom            X                  Y                   Z
    ------   -----------------  -----------------  -----------------
       1        0.000017073841     0.000002968762     0.000030939913
       2       -0.000169150146     0.000157866796     0.000816691821
       3        0.000061367840    -0.000608316434    -0.000592354103
       4       -0.000036892874     0.000002962680     0.000030437495
       5        0.000023685334     0.000013606798    -0.000638355193
       6        0.000032099750     0.000412812608     0.000396795894
       7        0.000037549975    -0.000015527709    -0.000123069956
       8        0.000005069701    -0.000000437153     0.000008316936
       9        0.000030095858    -0.000005938799     0.000004864137
      10        0.000004930567    -0.000042868758     0.000002708548
      11        0.000007430452    -0.000002060287    -0.000026090370
      12       -0.000052656243     0.000028896280     0.000067658996
      13        0.000046760623     0.000040379051     0.000055457770
      14        0.000008562402     0.000001030882    -0.000003240360
      15        0.000001193099     0.000000132447    -0.000004686632
      16       -0.000024189359     0.000016979189    -0.000035202088
      17        0.000000233937    -0.000009796163     0.000012094975
      18        0.000006835238     0.000007309810    -0.000002967785

  **** Optimization is complete! (in 2 steps) ****
    Final optimized geometry and variables:
    Molecular point group: c1

    Geometry (in Angstrom), charge = 0, multiplicity = 1:

    H            2.870514890926    -0.459205741238     0.846773511782
    C            2.402818933352    -0.019719190882    -0.025172218857
    N            0.989791051532    -0.306306854024    -0.023537432009
    H            2.864929294191    -0.450417821177    -0.904907903309
    H            2.618012720065     1.052360358435    -0.023961245767
    C            0.316377938149     0.242604279301    -1.182031083725
    C            0.338432444790     0.127731793246     1.195271652449
    H            0.406490013256     1.332749289640    -1.216639603922
    H            0.774069902906    -0.152865960538    -2.081647962223
    C           -1.152658832467    -0.133872626162    -1.157402332634
    H            0.811249667344    -0.353838246440     2.043390590081
    H            0.429684809674     1.209410592473     1.335312982183
    C           -1.131228440758    -0.245636791761     1.160656814514
    H           -1.680770617409     0.346305168313    -1.969374500083
    H           -1.253571318371    -1.211543552145    -1.269819220354
    O           -1.759902430633     0.281215155173     0.030013731289
    H           -1.644242293977     0.153164513318     2.024688282954
    H           -1.230755879328    -1.329253987190     1.170200253282

  Mulliken Charges: (a.u.)
   Center  Symbol    Alpha    Beta     Spin     Total
       1     H     0.45169  0.45169  0.00000  0.09661
       2     C     3.09495  3.09495  0.00000 -0.18989
       3     N     3.61695  3.61695  0.00000 -0.23389
       4     H     0.45133  0.45133  0.00000  0.09735
       5     H     0.46951  0.46951  0.00000  0.06098
       6     C     3.04129  3.04129  0.00000 -0.08257
       7     C     3.04085  3.04085  0.00000 -0.08170
       8     H     0.46860  0.46860  0.00000  0.06279
       9     H     0.45401  0.45401  0.00000  0.09198
      10     C     2.98342  2.98342  0.00000  0.03316
      11     H     0.45389  0.45389  0.00000  0.09222
      12     H     0.46898  0.46898  0.00000  0.06205
      13     C     2.98357  2.98357  0.00000  0.03287
      14     H     0.44975  0.44975  0.00000  0.10050
      15     H     0.46749  0.46749  0.00000  0.06502
      16     O     4.18649  4.18649  0.00000 -0.37299
      17     H     0.44972  0.44972  0.00000  0.10057
      18     H     0.46752  0.46752  0.00000  0.06495

   Total alpha = 28.00000, Total beta = 28.00000, Total charge = -0.00000
