                              Psi4 1.0.54 Driver

  ==> Input File <==

--------------------------------------------------------------------------
set {
	reference rhf
	basis cc-pvtz
}

set_num_threads( 4 )
memory 2 gb

molecule MOL {
0 1

H	 -2.498963	 -0.741158	 -0.729149
O	 -2.346257	 -0.289210	 0.080372
C	 -1.183935	 0.486039	 -0.009831
C	 0.062853	 -0.375310	 0.027457
H	 -1.178881	 1.094526	 -0.908634
H	 -1.184406	 1.155156	 0.838676
O	 1.055776	 0.322453	 0.704717
H	 0.384579	 -0.608566	 -0.988900
H	 -0.160984	 -1.317528	 0.523134
C	 2.255631	 -0.364958	 0.842690
H	 2.688169	 -0.607731	 -0.125425
H	 2.942244	 0.272159	 1.380585
H	 2.122509	 -1.288298	 1.401475

	symmetry c1
}
set optking {
	frozen_dihedral = ("
		8 4 3 5
	")
}

ee,wfn = optimize('scf', return_wfn=True)
oeprop( wfn, 'DIPOLE', 'QUADRUPOLE', 'MULLIKEN_CHARGES')
f=open( 'psi4out.xyz', 'w' )
f.write( "13  " )
f.write( str(ee) + "\n" )
f.write( MOL.save_string_xyz() )
f.close()
--------------------------------------------------------------------------

    Molecular point group: c1
  Charge       = 0
  Multiplicity = 1
  Basis Set: CC-PVTZ
  Basis Set:
  @DF-RHF Final Energy:  -268.05810146587305
    Total Energy =                       -268.0581014658728236
    Molecular point group: c1
  Basis Set: CC-PVTZ
  Basis Set:
  Basis Set: CC-PVTZ
  Basis Set:
  @DF-RHF Final Energy:  -268.05859976172360
    Total Energy =                       -268.0585997617237126
  Basis Set: CC-PVTZ
  Basis Set:
  Basis Set: CC-PVTZ
  Basis Set:
  @DF-RHF Final Energy:  -268.05873369854015
    Total Energy =                       -268.0587336985400952
  Basis Set: CC-PVTZ
  Basis Set:
  Basis Set: CC-PVTZ
  Basis Set:
  @DF-RHF Final Energy:  -268.05873790495912
    Total Energy =                       -268.0587379049591163
  Basis Set: CC-PVTZ
  Basis Set:
  Charge       = 0
  Multiplicity = 1
  Basis Set: CC-PVTZ
  Basis Set:

    Orbital Energies (a.u.)
    -----------------------

    Doubly Occupied:

       1A    -20.554027     2A    -20.551115     3A    -11.268678
       4A    -11.267843     5A    -11.266253     6A     -1.389337
       7A     -1.366751     8A     -1.017618     9A     -0.912552
      10A     -0.842523    11A     -0.710577    12A     -0.670654
      13A     -0.664688    14A     -0.643639    15A     -0.584488
      16A     -0.573539    17A     -0.548691    18A     -0.490577
      19A     -0.482840    20A     -0.440892    21A     -0.423000

  @DF-RHF Final Energy:  -268.05873864995112

   => Energetics <=

    Nuclear Repulsion Energy =            190.2764600211959021
    One-Electron Energy =                -743.3298303523336017
    Two-Electron Energy =                 284.9946316811866041
    DFT Exchange-Correlation Energy =       0.0000000000000000
    Empirical Dispersion Energy =           0.0000000000000000
    PCM Polarization Energy =               0.0000000000000000
    EFP Energy =                            0.0000000000000000
    Total Energy =                       -268.0587386499510671
    Molecular point group: c1
  Basis Set: CC-PVTZ
  Basis Set:

  -Total Gradient:
     Atom            X                  Y                   Z
    ------   -----------------  -----------------  -----------------
       1        0.000005555465    -0.000029530350    -0.000016706251
       2       -0.000016386256     0.000032107975     0.000035093014
       3        0.003642779784     0.005492689223     0.003021344779
       4       -0.004138522193    -0.005935635483    -0.000675174444
       5       -0.002342279392    -0.003559306873    -0.002418528422
       6       -0.000012390781    -0.000020033323    -0.000002998492
       7        0.000003091724     0.000013049556     0.000017017231
       8        0.002821658257     0.004006438403     0.000048015192
       9        0.000008184827     0.000017065722    -0.000006891255
      10        0.000022767682    -0.000019950354    -0.000014236253
      11        0.000006106599    -0.000000081201     0.000006119637
      12       -0.000013965988     0.000000134161     0.000002414867
      13        0.000013400269     0.000003052545     0.000004530400

  **** Optimization is complete! (in 5 steps) ****
    Final optimized geometry and variables:
    Molecular point group: c1

    Geometry (in Angstrom), charge = 0, multiplicity = 1:

    H           -2.461155586104    -0.618776939069    -1.135274267567
    O           -2.313916917262    -0.215579010289    -0.299678637483
    C           -1.131284255701     0.541327689848    -0.323461524671
    C            0.110195293705    -0.339498396664    -0.244844374619
    H           -1.109664216973     1.148430935555    -1.222298021923
    H           -1.151752264942     1.188755790328     0.539168660913
    O            1.108419969899     0.374596895180     0.417356352418
    H            0.468835652812    -0.594662869391    -1.241701152895
    H           -0.133331821633    -1.252930700694     0.290345790488
    C            2.326095221056    -0.287640021074     0.508279125854
    H            2.740755011795    -0.496965803521    -0.475540567896
    H            3.011385084276     0.351671445185     1.045394740931
    H            2.228553545224    -1.227517451837     1.047002593050

  Mulliken Charges: (a.u.)
   Center  Symbol    Alpha    Beta     Spin     Total
       1     H     0.39490  0.39490  0.00000  0.21020
       2     O     4.20113  4.20113  0.00000 -0.40226
       3     C     2.97290  2.97290  0.00000  0.05419
       4     C     2.97008  2.97008  0.00000  0.05983
       5     H     0.46726  0.46726  0.00000  0.06547
       6     H     0.45060  0.45060  0.00000  0.09881
       7     O     4.17464  4.17464  0.00000 -0.34928
       8     H     0.48071  0.48071  0.00000  0.03858
       9     H     0.46885  0.46885  0.00000  0.06230
      10     C     3.03029  3.03029  0.00000 -0.06059
      11     H     0.47194  0.47194  0.00000  0.05612
      12     H     0.44602  0.44602  0.00000  0.10797
      13     H     0.47068  0.47068  0.00000  0.05864

   Total alpha = 21.00000, Total beta = 21.00000, Total charge = -0.00000

*** Psi4 exiting successfully. Buy a developer a beer!
