  ==> Input File <==

--------------------------------------------------------------------------
set {
	reference rhf
	basis 6-31G*
}

set_num_threads( 4 )
memory 2 gb

molecule MOL {
0 1

O	 -0.988096	 -1.408613	 0.050699
C	 -0.676749	 -0.249230	 -0.009274
C	 -1.746085	 0.827156	 -0.009539
N	 0.623947	 0.147590	 -0.102813
H	 -1.701500	 1.431508	 -0.908902
H	 -2.703425	 0.330732	 0.036390
H	 -1.647323	 1.487769	 0.845106
C	 1.575772	 -0.737716	 -0.744794
C	 1.203401	 1.215629	 0.681897
H	 2.277133	 -0.151783	 -1.328568
H	 1.051719	 -1.417829	 -1.393451
H	 2.136956	 -1.313009	 -0.011629
H	 1.985884	 1.694539	 0.105351
H	 0.472248	 1.969080	 0.928191
H	 1.645341	 0.847232	 1.605903

	symmetry c1
}
set optking {
	frozen_dihedral = ("
		8 4 2 3
	")
}

ee = optimize('scf')
oeprop('DIPOLE', 'QUADRUPOLE', 'MULLIKEN_CHARGES')
f=open( 'psi4out.xyz', 'w' )
f.write( "15  " )
f.write( str(ee) + "\n" )
f.write( MOL.save_string_xyz() )
f.close()
--------------------------------------------------------------------------

    Molecular point group: c1
  Charge       = 0
  Multiplicity = 1
  Basis Set: 6-31G*
  Basis Set:
  @DF-RHF Final Energy:  -286.01848478317294
    Total Energy =                       -286.0184847831727666
    Molecular point group: c1
  Basis Set: 6-31G*
  Basis Set:
  Basis Set: 6-31G*
  Basis Set:
  @DF-RHF Final Energy:  -286.02050999154318
    Total Energy =                       -286.0205099915428946
  Basis Set: 6-31G*
  Basis Set:
  Basis Set: 6-31G*
  Basis Set:
  @DF-RHF Final Energy:  -286.02201133280312
    Total Energy =                       -286.0220113328030038
  Basis Set: 6-31G*
  Basis Set:
  Basis Set: 6-31G*
  Basis Set:
  @DF-RHF Final Energy:  -286.02285397169601
    Total Energy =                       -286.0228539716958949
  Basis Set: 6-31G*
  Basis Set:
  @DF-RHF Final Energy:  -286.02361607143570
    Total Energy =                       -286.0236160714360949
  @DF-RHF Final Energy:  -286.02438579879447
    Total Energy =                       -286.0243857987943557
  @DF-RHF Final Energy:  -286.02546045251916
    Total Energy =                       -286.0254604525192121
  @DF-RHF Final Energy:  -286.02610236059581
    Total Energy =                       -286.0261023605959281
  @DF-RHF Final Energy:  -286.02630180570935
    Total Energy =                       -286.0263018057094087
  Basis Set: 6-31G*
  Basis Set:
  @DF-RHF Final Energy:  -286.02629413727146
    Total Energy =                       -286.0262941372714067
  Basis Set: 6-31G*
  Basis Set:
  Basis Set: 6-31G*
  Basis Set:
  @DF-RHF Final Energy:  -286.02636655508763
    Total Energy =                       -286.0263665550875203
  Basis Set: 6-31G*
  Basis Set:
  Basis Set: 6-31G*
  Basis Set:
  @DF-RHF Final Energy:  -286.02637491005180
    Total Energy =                       -286.0263749100518567
  Basis Set: 6-31G*
  Basis Set:
  Charge       = 0
  Multiplicity = 1
  Basis Set: 6-31G*
  Basis Set:

    Orbital Energies (a.u.)
    -----------------------

    Doubly Occupied:

       1A    -20.519091     2A    -15.581670     3A    -11.343246
       4A    -11.264509     5A    -11.249433     6A    -11.229831
       7A     -1.387745     8A     -1.243333     9A     -1.014240
      10A     -0.970330    11A     -0.918178    12A     -0.737409
      13A     -0.681881    14A     -0.659668    15A     -0.650554
      16A     -0.589152    17A     -0.575250    18A     -0.570671
      19A     -0.561840    20A     -0.549018    21A     -0.528520
      22A     -0.503513    23A     -0.413281    24A     -0.368379

  @DF-RHF Final Energy:  -286.02637651098337

   => Energetics <=

    Nuclear Repulsion Energy =            252.6439295576466293
    One-Electron Energy =                -889.1191215129985039
    Two-Electron Energy =                 350.4488154443683925
    DFT Exchange-Correlation Energy =       0.0000000000000000
    Empirical Dispersion Energy =           0.0000000000000000
    PCM Polarization Energy =               0.0000000000000000
    EFP Energy =                            0.0000000000000000
    Total Energy =                       -286.0263765109834821
    Molecular point group: c1
  Basis Set: 6-31G*
  Basis Set:

  -Total Gradient:
     Atom            X                  Y                   Z
    ------   -----------------  -----------------  -----------------
       1        0.000020172943    -0.000039539217     0.000034602403
       2       -0.001530085565    -0.000285175937     0.006297676697
       3        0.000988957030     0.001592871940    -0.005461293702
       4        0.000044702435    -0.005782796073     0.003477659882
       5        0.000032350309    -0.000007406322    -0.000030552450
       6        0.000000394162     0.000024679504    -0.000023823248
       7        0.000002805490     0.000027475443    -0.000042601997
       8        0.000378177332     0.004455761266    -0.004268149209
       9        0.000015401966    -0.000004758131     0.000031549116
      10        0.000005418875     0.000012929970    -0.000012943943
      11       -0.000010999150    -0.000006649867    -0.000004773397
      12        0.000011361106    -0.000009094540     0.000003738111
      13        0.000003187674     0.000004021197    -0.000017127006
      14        0.000023667609     0.000003168530     0.000005457578
      15        0.000014487783     0.000014512241     0.000010581165

  **** Optimization is complete! (in 13 steps) ****
    Final optimized geometry and variables:
    Molecular point group: c1

    Geometry (in Angstrom), charge = 0, multiplicity = 1:

    O           -1.087884321257    -1.248082663161    -0.509846844163
    C           -0.692570687873    -0.208961065108    -0.059112149643
    C           -1.642395851100     0.963037234358     0.101825758900
    N            0.628698918753    -0.015670183970     0.258085193000
    H           -1.296386591899     1.817309714280    -0.469962650320
    H           -2.608664633885     0.651149629330    -0.264472681038
    H           -1.742620203456     1.273449035053     1.136151827209
    C            1.611955515900    -0.802146729860    -0.466424727841
    C            1.123695115133     1.265762651007     0.717250912321
    H            1.943102527866    -0.281575026539    -1.363378578441
    H            1.180941990041    -1.748332568966    -0.745043219837
    H            2.475036950519    -0.979106884291     0.164855905891
    H            1.295377101707     1.967220428081    -0.098684606247
    H            0.445713961027     1.717613620643     1.425472023283
    H            2.066772703705     1.109125543045     1.225647276631

  Mulliken Charges: (a.u.)
   Center  Symbol    Alpha    Beta     Spin     Total
       1     O     4.29838  4.29838  0.00000 -0.59675
       2     C     2.62674  2.62674  0.00000  0.74652
       3     C     3.29813  3.29813  0.00000 -0.59626
       4     N     3.81811  3.81811  0.00000 -0.63621
       5     H     0.40768  0.40768  0.00000  0.18463
       6     H     0.39051  0.39051  0.00000  0.21898
       7     H     0.40594  0.40594  0.00000  0.18813
       8     C     3.15004  3.15004  0.00000 -0.30008
       9     C     3.14469  3.14469  0.00000 -0.28938
      10     H     0.42213  0.42213  0.00000  0.15574
      11     H     0.38462  0.38462  0.00000  0.23077
      12     H     0.41616  0.41616  0.00000  0.16768
      13     H     0.42044  0.42044  0.00000  0.15912
      14     H     0.40844  0.40844  0.00000  0.18313
      15     H     0.40799  0.40799  0.00000  0.18401

   Total alpha = 24.00000, Total beta = 24.00000, Total charge =  0.00000
