                              Psi4 1.0.54 Driver

  ==> Input File <==

--------------------------------------------------------------------------
set {
	reference rhf
	basis cc-pvtz
}

set_num_threads( 4 )
memory 2 gb

molecule MOL {
0 1

H	 2.410010	 -1.644900	 0.892200
N	 1.430318	 -1.463495	 0.906508
C	 0.804215	 -1.936118	 -0.311878
C	 1.173672	 -0.054197	 1.125268
H	 0.997911	 -2.996225	 -0.421445
H	 1.190505	 -1.430854	 -1.199069
C	 -0.693217	 -1.700449	 -0.232909
H	 1.635085	 0.249378	 2.057089
H	 1.583304	 0.569967	 0.328876
C	 -0.324244	 0.179006	 1.202353
H	 -1.110628	 -2.328575	 0.559439
H	 -1.155858	 -1.998825	 -1.166212
N	 -0.976577	 -0.298712	 -0.000000
H	 -0.520094	 1.239593	 1.306835
H	 -0.716236	 -0.319643	 2.093579
C	 -2.391156	 -0.021003	 -0.000000
H	 -2.853954	 -0.458728	 -0.875714
H	 -2.853954	 -0.458728	 0.875714
H	 -2.614037	 1.049773	 -0.000000

	symmetry c1
}
set optking {
	frozen_dihedral = ("
		7 13 16 19
	")
}

ee,wfn = optimize('scf', return_wfn=True)
oeprop( wfn, 'DIPOLE', 'QUADRUPOLE', 'MULLIKEN_CHARGES')
f=open( 'psi4out.xyz', 'w' )
f.write( "19  " )
f.write( str(ee) + "\n" )
f.write( MOL.save_string_xyz() )
f.close()
--------------------------------------------------------------------------

    Molecular point group: c1
  Charge       = 0
  Multiplicity = 1
  Basis Set: CC-PVTZ
  Basis Set:
  @DF-RHF Final Energy:  -305.30820034017967
    Total Energy =                       -305.3082003401797806
    Molecular point group: c1
  Basis Set: CC-PVTZ
  Basis Set:
  Basis Set: CC-PVTZ
  Basis Set:
  @DF-RHF Final Energy:  -305.30887293798617
    Total Energy =                       -305.3088729379862798
  Basis Set: CC-PVTZ
  Basis Set:
  Basis Set: CC-PVTZ
  Basis Set:
  @DF-RHF Final Energy:  -305.30895274493434
    Total Energy =                       -305.3089527449345155
  Basis Set: CC-PVTZ
  Basis Set:
  Charge       = 0
  Multiplicity = 1
  Basis Set: CC-PVTZ
  Basis Set:

    Orbital Energies (a.u.)
    -----------------------

    Doubly Occupied:

       1A    -15.536160     2A    -15.531271     3A    -11.237280
       4A    -11.237263     5A    -11.235891     6A    -11.235822
       7A    -11.233182     8A     -1.249361     9A     -1.187758
      10A     -1.024146    11A     -0.965894    12A     -0.861980
      13A     -0.858219    14A     -0.757250    15A     -0.692809
      16A     -0.635451    17A     -0.627564    18A     -0.609361
      19A     -0.605323    20A     -0.581755    21A     -0.543700
      22A     -0.529627    23A     -0.512049    24A     -0.490528
      25A     -0.468163    26A     -0.458476    27A     -0.366136
      28A     -0.347202

  @DF-RHF Final Energy:  -305.30895352004893

   => Energetics <=

    Nuclear Repulsion Energy =            340.2991565102181539
    One-Electron Energy =               -1087.9769738502145628
    Two-Electron Energy =                 442.3688638199477055
    DFT Exchange-Correlation Energy =       0.0000000000000000
    Empirical Dispersion Energy =           0.0000000000000000
    PCM Polarization Energy =               0.0000000000000000
    EFP Energy =                            0.0000000000000000
    Total Energy =                       -305.3089535200487035
    Molecular point group: c1
  Basis Set: CC-PVTZ
  Basis Set:

  -Total Gradient:
     Atom            X                  Y                   Z
    ------   -----------------  -----------------  -----------------
       1        0.000011696051     0.000002605582     0.000005755364
       2        0.000025848682    -0.000013783168     0.000023490784
       3       -0.000028045477     0.000101240095    -0.000002315287
       4       -0.000027193729    -0.000007646029    -0.000012418025
       5       -0.000031158694     0.000010367116     0.000003440657
       6        0.000012025034    -0.000002055246    -0.000012938609
       7       -0.000017474736     0.000064103232    -0.000994073748
       8        0.000001531409    -0.000004868464     0.000001787182
       9       -0.000000443697    -0.000005225424    -0.000000909135
      10       -0.000014348446     0.000013460096     0.000050337495
      11        0.000002052370     0.000025004939    -0.000002581156
      12       -0.000012673000     0.000013125625    -0.000008756461
      13       -0.000014260762    -0.000210396388     0.000982470837
      14       -0.000001791483     0.000005372864    -0.000001582840
      15        0.000009213534     0.000001196767    -0.000018105267
      16       -0.000030842120     0.000025656548     0.001351449391
      17        0.000041483532    -0.000009298411    -0.000010040053
      18        0.000019893007    -0.000006963090     0.000004139164
      19        0.000054488524    -0.000001896644    -0.001359150293

  **** Optimization is complete! (in 4 steps) ****
    Final optimized geometry and variables:
    Molecular point group: c1

    Geometry (in Angstrom), charge = 0, multiplicity = 1:

    H            2.559299745676    -0.877037868935     0.523341495442
    N            1.578814715013    -0.699158383014     0.531277417659
    C            0.961455026820    -1.178112068760    -0.689003208106
    C            1.315399705101     0.709641897317     0.744389519540
    H            1.162498791477    -2.237165566658    -0.796089070860
    H            1.348802877770    -0.671716973620    -1.575244334889
    C           -0.538127593268    -0.952140852457    -0.618667190752
    H            1.771641570782     1.018618265337     1.677070075694
    H            1.725685024156     1.332824254137    -0.052548341121
    C           -0.183989021910     0.936008521543     0.814240958107
    H           -0.955766800064    -1.585010539174     0.170053407021
    H           -0.992867755955    -1.251576542081    -1.555359168428
    N           -0.829614017830     0.447520303386    -0.386367901556
    H           -0.386422880161     1.996277381458     0.911610276376
    H           -0.576830499407     0.440911984209     1.707149374778
    C           -2.243140288067     0.728461760100    -0.399970951975
    H           -2.687516311503     0.330290163095    -1.303664781702
    H           -2.773030232757     0.297310667167     0.453838872674
    H           -2.408463718525     1.799031989392    -0.399334439914

  Mulliken Charges: (a.u.)
   Center  Symbol    Alpha    Beta     Spin     Total
       1     H     0.43994  0.43994  0.00000  0.12012
       2     N     3.64286  3.64286  0.00000 -0.28573
       3     C     3.04099  3.04099  0.00000 -0.08198
       4     C     3.04060  3.04060  0.00000 -0.08121
       5     H     0.45246  0.45246  0.00000  0.09507
       6     H     0.46547  0.46547  0.00000  0.06907
       7     C     3.03359  3.03359  0.00000 -0.06719
       8     H     0.45243  0.45243  0.00000  0.09514
       9     H     0.46542  0.46542  0.00000  0.06915
      10     C     3.03450  3.03450  0.00000 -0.06899
      11     H     0.46905  0.46905  0.00000  0.06189
      12     H     0.45404  0.45404  0.00000  0.09192
      13     N     3.61431  3.61431  0.00000 -0.22863
      14     H     0.45425  0.45425  0.00000  0.09149
      15     H     0.46816  0.46816  0.00000  0.06367
      16     C     3.09683  3.09683  0.00000 -0.19366
      17     H     0.45320  0.45320  0.00000  0.09361
      18     H     0.46990  0.46990  0.00000  0.06020
      19     H     0.45197  0.45197  0.00000  0.09606

   Total alpha = 28.00000, Total beta = 28.00000, Total charge =  0.00000

*** Psi4 exiting successfully. Buy a developer a beer!
