                              Psi4 1.0.54 Driver

  ==> Input File <==

--------------------------------------------------------------------------
set {
	reference rhf
	basis cc-pvtz
}

set_num_threads( 4 )
memory 2 gb

molecule MOL {
0 1

H	 -4.328217	 0.669093	 -1.008561
O	 -3.458596	 0.315260	 -0.960865
C	 -3.176635	 -0.080824	 0.355601
C	 -1.763371	 0.265266	 0.799691
H	 -3.321825	 -1.153438	 0.379502
H	 -3.895468	 0.357385	 1.043382
C	 -0.673390	 -0.426948	 -0.013392
H	 -1.631049	 1.344913	 0.747560
H	 -1.664587	 -0.001624	 1.849167
C	 0.737842	 -0.043159	 0.423759
H	 -0.806103	 -0.190518	 -1.063345
H	 -0.797221	 -1.503753	 0.074146
C	 1.824000	 -0.743224	 -0.390623
H	 0.850588	 1.033777	 0.343840
H	 0.868587	 -0.286314	 1.476203
C	 3.255957	 -0.453067	 0.062319
H	 1.718250	 -0.470599	 -1.438164
H	 1.658105	 -1.815850	 -0.339904
C	 3.707029	 0.992337	 -0.133857
H	 3.928201	 -1.104096	 -0.488158
H	 3.362667	 -0.724561	 1.109374
H	 3.605811	 1.294044	 -1.171549
H	 4.748333	 1.111029	 0.143343
H	 3.129882	 1.683078	 0.468956

	symmetry c1
}
set optking {
	frozen_dihedral = ("
		1 2 3 5
	")
}

ee,wfn = optimize('scf', return_wfn=True)
oeprop( wfn, 'DIPOLE', 'QUADRUPOLE', 'MULLIKEN_CHARGES')
f=open( 'psi4out.xyz', 'w' )
f.write( "24  " )
f.write( str(ee) + "\n" )
f.write( MOL.save_string_xyz() )
f.close()
--------------------------------------------------------------------------

    Molecular point group: c1
  Charge       = 0
  Multiplicity = 1
  Basis Set: CC-PVTZ
  Basis Set:
  @DF-RHF Final Energy:  -349.37836310521976
    Total Energy =                       -349.3783631052193641
    Molecular point group: c1
  Basis Set: CC-PVTZ
  Basis Set:
  Basis Set: CC-PVTZ
  Basis Set:
  @DF-RHF Final Energy:  -349.37921884679548
    Total Energy =                       -349.3792188467953679
  Basis Set: CC-PVTZ
  Basis Set:
  Basis Set: CC-PVTZ
  Basis Set:
  @DF-RHF Final Energy:  -349.37939166994016
    Total Energy =                       -349.3793916699401052
  Basis Set: CC-PVTZ
  Basis Set:
  Basis Set: CC-PVTZ
  Basis Set:
  @DF-RHF Final Energy:  -349.37939977658039
    Total Energy =                       -349.3793997765801578
  Basis Set: CC-PVTZ
  Basis Set:
  Basis Set: CC-PVTZ
  Basis Set:
  @DF-RHF Final Energy:  -349.37940262363821
    Total Energy =                       -349.3794026236384411
  Basis Set: CC-PVTZ
  Basis Set:
  Charge       = 0
  Multiplicity = 1
  Basis Set: CC-PVTZ
  Basis Set:

    Orbital Energies (a.u.)
    -----------------------

    Doubly Occupied:

       1A    -20.545129     2A    -11.266013     3A    -11.209778
       4A    -11.209469     5A    -11.206532     6A    -11.205836
       7A    -11.204252     8A    -11.202657     9A     -1.362767
      10A     -1.086392    11A     -1.047067    12A     -0.984970
      13A     -0.912969    14A     -0.844532    15A     -0.791057
      16A     -0.773383    17A     -0.704287    18A     -0.650431
      19A     -0.628593    20A     -0.611886    21A     -0.584950
      22A     -0.578250    23A     -0.557664    24A     -0.532147
      25A     -0.525857    26A     -0.504026    27A     -0.490030
      28A     -0.483736    29A     -0.466844    30A     -0.454597
      31A     -0.450428    32A     -0.435181    33A     -0.428097

  @DF-RHF Final Energy:  -349.37940274843459

   => Energetics <=

    Nuclear Repulsion Energy =            385.0574677460797375
    One-Electron Energy =               -1236.9941297379727985
    Two-Electron Energy =                 502.5572592434580201
    DFT Exchange-Correlation Energy =       0.0000000000000000
    Empirical Dispersion Energy =           0.0000000000000000
    PCM Polarization Energy =               0.0000000000000000
    EFP Energy =                            0.0000000000000000
    Total Energy =                       -349.3794027484350408
    Molecular point group: c1
  Basis Set: CC-PVTZ
  Basis Set:

  -Total Gradient:
     Atom            X                  Y                   Z
    ------   -----------------  -----------------  -----------------
       1        0.000487548909     0.001224075686     0.000305690309
       2       -0.000314342358    -0.001559911767    -0.000445752456
       3       -0.001276960537     0.000479489513     0.000416608308
       4       -0.000017748444     0.000001088967     0.000027055147
       5        0.001110893316    -0.000149960685    -0.000270841532
       6        0.000015272056    -0.000004047126    -0.000002720891
       7       -0.000009282805    -0.000002294382    -0.000016849861
       8       -0.000002272591     0.000002665438     0.000000148985
       9       -0.000008335483     0.000007604953    -0.000005769079
      10       -0.000002839254    -0.000000785108    -0.000001281260
      11        0.000005462827    -0.000000325314    -0.000004081583
      12        0.000001110955     0.000002218851    -0.000002841024
      13        0.000005875834     0.000008650811    -0.000004992436
      14       -0.000010370038    -0.000013828746    -0.000005697464
      15        0.000000980968     0.000005458888     0.000006274613
      16       -0.000004821039     0.000000886359     0.000016127462
      17       -0.000002265535     0.000006911387     0.000000771813
      18        0.000003466970    -0.000003176243    -0.000007253919
      19        0.000006252354    -0.000000950023    -0.000004172570
      20        0.000000583032    -0.000003822659     0.000003332668
      21       -0.000000802289     0.000003819234     0.000004838365
      22       -0.000002566073     0.000003718708    -0.000003417553
      23        0.000001972107    -0.000002422764    -0.000004174910
      24        0.000013187127    -0.000005063977    -0.000001001130

  **** Optimization is complete! (in 6 steps) ****
    Final optimized geometry and variables:
    Molecular point group: c1

    Geometry (in Angstrom), charge = 0, multiplicity = 1:

    H           -4.265708251374     0.715527791042    -0.959895889284
    O           -3.406215329736     0.348410389128    -0.884712784653
    C           -3.165674938610    -0.073697252962     0.435800203458
    C           -1.745437609901     0.273268485125     0.844458409636
    H           -3.311441559911    -1.148982825886     0.502361631798
    H           -3.865487271758     0.396916537095     1.119196671101
    C           -0.680687092210    -0.417413784799    -0.003098745588
    H           -1.621349354890     1.350509435997     0.784193920469
    H           -1.617420003718    -0.002817578233     1.888548725042
    C            0.742210633839    -0.046363378266     0.406219023281
    H           -0.837091192656    -0.163746065354    -1.045427974066
    H           -0.808002058117    -1.494961947506     0.074134841840
    C            1.805997628691    -0.741804039106    -0.441033386241
    H            0.857938120771     1.030722164391     0.336094796978
    H            0.895899892490    -0.302765599806     1.452570655365
    C            3.249519625975    -0.464463690208    -0.017468355454
    H            1.677793840050    -0.455779264092    -1.482441883303
    H            1.635862442045    -1.814265049501    -0.399620950410
    C            3.704133308294     0.980688633503    -0.207493528804
    H            3.905730579879    -1.112674964996    -0.590337793715
    H            3.378471281042    -0.748446947846     1.023820007690
    H            3.579133644697     1.295403158484    -1.238686834748
    H            4.752642892508     1.090380453856     0.045478928717
    H            3.145703020492     1.667241396600     0.417232586849

  Mulliken Charges: (a.u.)
   Center  Symbol    Alpha    Beta     Spin     Total
       1     H     0.39297  0.39297  0.00000  0.21405
       2     O     4.20275  4.20275  0.00000 -0.40549
       3     C     2.97473  2.97473  0.00000  0.05054
       4     C     3.08451  3.08451  0.00000 -0.16902
       5     H     0.47166  0.47166  0.00000  0.05668
       6     H     0.46577  0.46577  0.00000  0.06847
       7     C     3.09178  3.09178  0.00000 -0.18357
       8     H     0.45617  0.45617  0.00000  0.08767
       9     H     0.45642  0.45642  0.00000  0.08716
      10     C     3.09152  3.09152  0.00000 -0.18304
      11     H     0.44355  0.44355  0.00000  0.11290
      12     H     0.45742  0.45742  0.00000  0.08516
      13     C     3.09417  3.09417  0.00000 -0.18834
      14     H     0.45245  0.45245  0.00000  0.09510
      15     H     0.45695  0.45695  0.00000  0.08610
      16     C     3.09020  3.09020  0.00000 -0.18041
      17     H     0.45349  0.45349  0.00000  0.09303
      18     H     0.45051  0.45051  0.00000  0.09898
      19     C     3.15232  3.15232  0.00000 -0.30464
      20     H     0.44910  0.44910  0.00000  0.10179
      21     H     0.45564  0.45564  0.00000  0.08872
      22     H     0.45477  0.45477  0.00000  0.09045
      23     H     0.44720  0.44720  0.00000  0.10561
      24     H     0.45396  0.45396  0.00000  0.09209

   Total alpha = 33.00000, Total beta = 33.00000, Total charge = -0.00000

*** Psi4 exiting successfully. Buy a developer a beer!
