  ==> Input File <==

--------------------------------------------------------------------------
set {
	reference rhf
	basis cc-pvtz
}

set_num_threads( 4 )
memory 2 gb

molecule MOL {
0 1

H	 -2.631972	 -0.819732	 1.599177
C	 -2.629922	 -1.167843	 0.568790
O	 -1.368059	 -1.063098	 -0.000657
H	 -2.914189	 -2.209882	 0.553412
H	 -3.369220	 -0.595709	 0.011129
C	 -0.870848	 0.233442	 -0.058983
C	 0.538515	 0.215926	 -0.595390
H	 -1.490200	 0.845979	 -0.714095
H	 -0.872118	 0.690966	 0.927983
O	 1.401606	 -0.295166	 0.366636
H	 0.569361	 -0.387717	 -1.499876
H	 0.828055	 1.232831	 -0.860048
C	 2.714315	 -0.441627	 -0.061017
H	 2.765292	 -0.641548	 -1.128869
H	 3.305661	 0.447341	 0.150952
H	 3.143725	 -1.278506	 0.470147

	symmetry c1
}
set optking {
	frozen_dihedral = ("
		7 10 13 14
	")
}

ee = optimize('scf')
oeprop('DIPOLE', 'QUADRUPOLE', 'MULLIKEN_CHARGES')
f=open( 'psi4out.xyz', 'w' )
f.write( "16  " )
f.write( str(ee) + "\n" )
f.write( MOL.save_string_xyz() )
f.close()
--------------------------------------------------------------------------

    Molecular point group: c1
  Charge       = 0
  Multiplicity = 1
  Basis Set: CC-PVTZ
  Basis Set:
  @DF-RHF Final Energy:  -307.09591113228112
    Total Energy =                       -307.0959111322812305
    Molecular point group: c1
  Basis Set: CC-PVTZ
  Basis Set:
  Basis Set: CC-PVTZ
  Basis Set:
  @DF-RHF Final Energy:  -307.09602106688936
    Total Energy =                       -307.0960210668890795
  Basis Set: CC-PVTZ
  Basis Set:
  Basis Set: CC-PVTZ
  Basis Set:
  @DF-RHF Final Energy:  -307.09605992238278
    Total Energy =                       -307.0960599223826648
  Basis Set: CC-PVTZ
  Basis Set:
  Charge       = 0
  Multiplicity = 1
  Basis Set: CC-PVTZ
  Basis Set:

    Orbital Energies (a.u.)
    -----------------------

    Doubly Occupied:

       1A    -20.547615     2A    -20.545999     3A    -11.267753
       4A    -11.266828     5A    -11.261483     6A    -11.261368
       7A     -1.390598     8A     -1.373074     9A     -1.031969
      10A     -0.937287    11A     -0.892223    12A     -0.824309
      13A     -0.685557    14A     -0.681812    15A     -0.659432
      16A     -0.637729    17A     -0.630586    18A     -0.598648
      19A     -0.552678    20A     -0.536168    21A     -0.509994
      22A     -0.479546    23A     -0.464369    24A     -0.422030
      25A     -0.411755

  @DF-RHF Final Energy:  -307.09606034496028

   => Energetics <=

    Nuclear Repulsion Energy =            258.7716552102044716
    One-Electron Energy =                -931.9938115552643012
    Two-Electron Energy =                 366.1260960000996647
    DFT Exchange-Correlation Energy =       0.0000000000000000
    Empirical Dispersion Energy =           0.0000000000000000
    PCM Polarization Energy =               0.0000000000000000
    EFP Energy =                            0.0000000000000000
    Total Energy =                       -307.0960603449601649
    Molecular point group: c1
  Basis Set: CC-PVTZ
  Basis Set:

  -Total Gradient:
     Atom            X                  Y                   Z
    ------   -----------------  -----------------  -----------------
       1       -0.000000856747    -0.000000428981     0.000000239754
       2       -0.000001433737     0.000004048215     0.000003575863
       3        0.000002783456    -0.000007317190     0.000014632818
       4        0.000002220228    -0.000000118368    -0.000000559043
       5        0.000002500054     0.000000319267    -0.000000888829
       6       -0.000026984684     0.000021819069    -0.000051011017
       7       -0.000508084973    -0.002056145434    -0.000734101806
       8       -0.000035017256     0.000010053596     0.000002655906
       9        0.000012669783    -0.000019470909    -0.000018007281
      10        0.000807781956     0.003790460604     0.000895686602
      11       -0.000001493744    -0.000004559916     0.000023253865
      12        0.000004777685    -0.000014878743     0.000000524171
      13       -0.000407262108    -0.004515266258     0.000371381424
      14        0.000144824078     0.002802681684    -0.000496584337
      15       -0.000014877570     0.000003266405    -0.000008369436
      16        0.000018453586    -0.000014463042    -0.000002428653

  **** Optimization is complete! (in 4 steps) ****
    Final optimized geometry and variables:
    Molecular point group: c1

    Geometry (in Angstrom), charge = 0, multiplicity = 1:

    H           -2.590963952390    -0.395700537000     1.565409604222
    C           -2.592766410657    -0.741758716636     0.534335640457
    O           -1.333511134419    -0.634035661851    -0.040219943074
    H           -2.875619133790    -1.784171167068     0.518062131413
    H           -3.335274930286    -0.169578672475    -0.019037184547
    C           -0.838293904712     0.663280095663    -0.097664660460
    C            0.568940875315     0.648808757415    -0.640102017151
    H           -1.460992133809     1.276379893189    -0.749211091130
    H           -0.836559319679     1.118639058253     0.890185567387
    O            1.433505395188     0.127786415829     0.315687929648
    H            0.595711386880     0.050732599030    -1.547481918775
    H            0.853994282936     1.668501199512    -0.899835189251
    C            2.754288392489    -0.026502002990    -0.093489660557
    H            2.825334712268    -0.221421683871    -1.159712990058
    H            3.333597742530     0.870199437554     0.115577790955
    H            3.187715673019    -0.854305635105     0.449550310949

  Mulliken Charges: (a.u.)
   Center  Symbol    Alpha    Beta     Spin     Total
       1     H     0.47019  0.47019  0.00000  0.05961
       2     C     3.03204  3.03204  0.00000 -0.06408
       3     O     4.17029  4.17029  0.00000 -0.34058
       4     H     0.44640  0.44640  0.00000  0.10719
       5     H     0.47373  0.47373  0.00000  0.05255
       6     C     2.96216  2.96216  0.00000  0.07569
       7     C     2.95976  2.95976  0.00000  0.08047
       8     H     0.47621  0.47621  0.00000  0.04758
       9     H     0.47080  0.47080  0.00000  0.05841
      10     O     4.17276  4.17276  0.00000 -0.34552
      11     H     0.46911  0.46911  0.00000  0.06177
      12     H     0.47737  0.47737  0.00000  0.04527
      13     C     3.02932  3.02932  0.00000 -0.05864
      14     H     0.47405  0.47405  0.00000  0.05191
      15     H     0.46691  0.46691  0.00000  0.06619
      16     H     0.44891  0.44891  0.00000  0.10218

   Total alpha = 25.00000, Total beta = 25.00000, Total charge =  0.00000
