  ==> Input File <==

--------------------------------------------------------------------------
set {
	reference rhf
	basis 6-31G*
}

set_num_threads( 4 )
memory 2 gb

molecule MOL {
0 1

O	 1.214711	 1.306902	 -0.000018
C	 1.122059	 0.121804	 -0.000188
C	 -0.170150	 -0.657997	 -0.000612
O	 2.172624	 -0.688929	 0.000216
C	 -1.412532	 0.227344	 -0.000452
H	 -0.153702	 -1.313099	 -0.867402
H	 -0.153924	 -1.313811	 0.865644
C	 -2.483437	 -0.273803	 0.969795
H	 -1.819507	 0.273965	 -1.005789
H	 -1.128752	 1.243007	 0.257233
C	 -3.731238	 0.608207	 0.977249
H	 -2.763564	 -1.292068	 0.707609
H	 -2.069624	 -0.321064	 1.975079
H	 -4.188330	 0.648067	 -0.007196
H	 -4.474410	 0.230982	 1.672716
H	 -3.489537	 1.625833	 1.269923
C	 3.452279	 -0.082609	 0.000533
H	 3.583069	 0.529321	 -0.880332
H	 4.163299	 -0.894027	 0.001117
H	 3.582335	 0.529955	 0.881077

	symmetry c1
}
set optking {
	frozen_dihedral = ("
		9 5 3 6
	")
}

ee = optimize('scf')
oeprop('DIPOLE', 'QUADRUPOLE', 'MULLIKEN_CHARGES')
f=open( 'psi4out.xyz', 'w' )
f.write( "20  " )
f.write( str(ee) + "\n" )
f.write( MOL.save_string_xyz() )
f.close()
--------------------------------------------------------------------------

    Molecular point group: c1
  Charge       = 0
  Multiplicity = 1
  Basis Set: 6-31G*
  Basis Set:
  @DF-RHF Final Energy:  -383.93751322838324
    Total Energy =                       -383.9375132283835228
    Molecular point group: c1
  Basis Set: 6-31G*
  Basis Set:
  Basis Set: 6-31G*
  Basis Set:
  @DF-RHF Final Energy:  -383.93779525547114
    Total Energy =                       -383.9377952554717695
  Basis Set: 6-31G*
  Basis Set:
  Basis Set: 6-31G*
  Basis Set:
  @DF-RHF Final Energy:  -383.93785902981529
    Total Energy =                       -383.9378590298153995
  Basis Set: 6-31G*
  Basis Set:
  Basis Set: 6-31G*
  Basis Set:
  @DF-RHF Final Energy:  -383.93766395810985
    Total Energy =                       -383.9376639581100790
  Basis Set: 6-31G*
  Basis Set:
  Basis Set: 6-31G*
  Basis Set:
  @DF-RHF Final Energy:  -383.93788784771760
    Total Energy =                       -383.9378878477176613
  Basis Set: 6-31G*
  Basis Set:
  Charge       = 0
  Multiplicity = 1
  Basis Set: 6-31G*
  Basis Set:

    Orbital Energies (a.u.)
    -----------------------

    Doubly Occupied:

       1A    -20.603843     2A    -20.546114     3A    -11.372913
       4A    -11.281020     5A    -11.235699     6A    -11.219515
       7A    -11.217849     8A    -11.209876     9A     -1.469793
      10A     -1.363144    11A     -1.086469    12A     -1.024156
      13A     -0.968210    14A     -0.886025    15A     -0.804145
      16A     -0.767063    17A     -0.699153    18A     -0.681835
      19A     -0.672493    20A     -0.639896    21A     -0.600610
      22A     -0.592048    23A     -0.578726    24A     -0.544529
      25A     -0.530816    26A     -0.521014    27A     -0.505028
      28A     -0.478063    29A     -0.469433    30A     -0.465893
      31A     -0.457044    32A     -0.438188

  @DF-RHF Final Energy:  -383.93788839347610

   => Energetics <=

    Nuclear Repulsion Energy =            381.5518325858898834
    One-Electron Energy =               -1279.1182381435405659
    Two-Electron Energy =                 513.6285171641748093
    DFT Exchange-Correlation Energy =       0.0000000000000000
    Empirical Dispersion Energy =           0.0000000000000000
    PCM Polarization Energy =               0.0000000000000000
    EFP Energy =                            0.0000000000000000
    Total Energy =                       -383.9378883934758733
    Molecular point group: c1
  Basis Set: 6-31G*
  Basis Set:

  -Total Gradient:
     Atom            X                  Y                   Z
    ------   -----------------  -----------------  -----------------
       1       -0.000020203434     0.000052651366    -0.000056153146
       2       -0.000025674058    -0.000021952499     0.000065366944
       3       -0.002157563489    -0.003060471745     0.002029099649
       4       -0.000056527469    -0.000010517025     0.000002685350
       5        0.002338351347     0.003301436446    -0.001084832702
       6        0.001410024534     0.001993992505    -0.001517337785
       7       -0.000007669844     0.000000178002    -0.000036935235
       8        0.000040025354    -0.000005849396     0.000056182999
       9       -0.001575603026    -0.002233656495     0.000521767467
      10        0.000046794965    -0.000019012221     0.000029377754
      11       -0.000001014759    -0.000004371136    -0.000037407619
      12        0.000024040049    -0.000003317071     0.000018307821
      13       -0.000025252104     0.000016505325     0.000021308642
      14       -0.000000970390     0.000011732339    -0.000003909898
      15        0.000001790211    -0.000013585604    -0.000011774785
      16       -0.000002220629    -0.000005788137     0.000007214020
      17        0.000022214101     0.000006255920     0.000003543557
      18       -0.000004068322    -0.000000686321    -0.000000056219
      19       -0.000003589787    -0.000000774473    -0.000001925464
      20       -0.000002883261    -0.000002769779    -0.000004521350

  **** Optimization is complete! (in 6 steps) ****
    Final optimized geometry and variables:
    Molecular point group: c1

    Geometry (in Angstrom), charge = 0, multiplicity = 1:

    O            1.199974656459     1.238044361045    -0.215215759986
    C            1.081857320037     0.055345026857    -0.229640544996
    C           -0.220826948048    -0.712892134077    -0.206936643585
    O            2.116876089467    -0.774612908727    -0.268194801830
    C           -1.473212041483     0.174699644961    -0.205670013517
    H           -0.196090412928    -1.367912572089    -1.072054046155
    H           -0.185585127366    -1.360836204672     0.663762808085
    C           -2.565556519286    -0.350077270834     0.730921955495
    H           -1.880086553944     0.222748859549    -1.211779059446
    H           -1.202657891100     1.184202096659     0.076494248296
    C           -3.833703624530     0.500659539346     0.692042316831
    H           -2.811207096145    -1.376872987094     0.466750589775
    H           -2.181556022629    -0.379904277569     1.748534312973
    H           -4.262204699470     0.520509233630    -0.306021437179
    H           -4.588547647652     0.111770631479     1.368297961075
    H           -3.625153706156     1.526447728459     0.981776861882
    C            3.407626876997    -0.192741632014    -0.289948383858
    H            3.528515080816     0.431029948669    -1.163879288188
    H            4.102481551287    -1.017503282545    -0.320141986178
    H            3.571271262589     0.402493705414     0.596836781563

  Mulliken Charges: (a.u.)
   Center  Symbol    Alpha    Beta     Spin     Total
       1     O     4.28493  4.28493  0.00000 -0.56986
       2     C     2.61257  2.61257  0.00000  0.77485
       3     C     3.20867  3.20867  0.00000 -0.41735
       4     O     4.30559  4.30559  0.00000 -0.61117
       5     C     3.15811  3.15811  0.00000 -0.31623
       6     H     0.39808  0.39808  0.00000  0.20385
       7     H     0.39841  0.39841  0.00000  0.20318
       8     C     3.15597  3.15597  0.00000 -0.31195
       9     H     0.41857  0.41857  0.00000  0.16286
      10     H     0.39625  0.39625  0.00000  0.20750
      11     C     3.24018  3.24018  0.00000 -0.48035
      12     H     0.42334  0.42334  0.00000  0.15331
      13     H     0.42177  0.42177  0.00000  0.15646
      14     H     0.42120  0.42120  0.00000  0.15759
      15     H     0.41872  0.41872  0.00000  0.16255
      16     H     0.41898  0.41898  0.00000  0.16203
      17     C     3.09204  3.09204  0.00000 -0.18409
      18     H     0.40899  0.40899  0.00000  0.18203
      19     H     0.40848  0.40848  0.00000  0.18304
      20     H     0.40913  0.40913  0.00000  0.18174

   Total alpha = 32.00000, Total beta = 32.00000, Total charge =  0.00000
