  ==> Input File <==

--------------------------------------------------------------------------
set {
	reference rhf
	basis cc-pvtz
}

set_num_threads( 4 )
memory 2 gb

molecule MOL {
0 1

H	 -3.268214	 -0.875720	 0.463107
C	 -2.806015	 0.000007	 0.024886
N	 -1.391133	 0.000016	 0.301321
H	 -3.029448	 0.000055	 -1.045738
H	 -3.268126	 0.875758	 0.463150
C	 -0.938707	 1.257436	 0.856103
C	 -0.604122	 -0.364549	 -0.856797
H	 -1.098985	 2.082825	 0.156179
H	 -1.510718	 1.471876	 1.751035
C	 0.535258	 1.188614	 1.209238
H	 -0.931863	 -1.334218	 -1.212350
H	 -0.741588	 0.350273	 -1.673486
C	 0.869843	 -0.433371	 -0.503662
H	 0.862999	 2.158283	 1.564791
H	 0.672724	 0.473792	 2.025926
N	 1.322269	 0.824049	 0.051120
H	 1.441854	 -0.647811	 -1.398594
H	 1.030121	 -1.258760	 0.196262
C	 2.737151	 0.824058	 0.327555
H	 3.044591	 1.800179	 0.681436
H	 3.290511	 0.607874	 -0.577773
H	 3.022296	 0.085716	 1.082341

	symmetry c1
}
set optking {
	frozen_dihedral = ("
		6 3 2 4
	")
}

ee = optimize('scf')
oeprop('DIPOLE', 'QUADRUPOLE', 'MULLIKEN_CHARGES')
f=open( 'psi4out.xyz', 'w' )
f.write( "22  " )
f.write( str(ee) + "\n" )
f.write( MOL.save_string_xyz() )
f.close()
--------------------------------------------------------------------------

    Molecular point group: c1
  Charge       = 0
  Multiplicity = 1
  Basis Set: CC-PVTZ
  Basis Set:
  @DF-RHF Final Energy:  -344.34472301651834
    Total Energy =                       -344.3447230165185147
    Molecular point group: c1
  Basis Set: CC-PVTZ
  Basis Set:
  Basis Set: CC-PVTZ
  Basis Set:
  @DF-RHF Final Energy:  -344.34529698601148
    Total Energy =                       -344.3452969860112489
  Basis Set: CC-PVTZ
  Basis Set:
  Basis Set: CC-PVTZ
  Basis Set:
  @DF-RHF Final Energy:  -344.34541993593660
    Total Energy =                       -344.3454199359363201
  Basis Set: CC-PVTZ
  Basis Set:
  Basis Set: CC-PVTZ
  Basis Set:
  @DF-RHF Final Energy:  -344.34542833918749
    Total Energy =                       -344.3454283391873787
  Basis Set: CC-PVTZ
  Basis Set:
  Charge       = 0
  Multiplicity = 1
  Basis Set: CC-PVTZ
  Basis Set:

    Orbital Energies (a.u.)
    -----------------------

    Doubly Occupied:

       1A    -15.537211     2A    -15.533545     3A    -11.237410
       4A    -11.237350     5A    -11.236419     6A    -11.236349
       7A    -11.234122     8A    -11.233927     9A     -1.255258
      10A     -1.203479    11A     -1.025821    12A     -0.991957
      13A     -0.912724    14A     -0.868060    15A     -0.836485
      16A     -0.753874    17A     -0.665970    18A     -0.636619
      19A     -0.632105    20A     -0.625664    21A     -0.620480
      22A     -0.580177    23A     -0.551658    24A     -0.549977
      25A     -0.543077    26A     -0.518979    27A     -0.498016
      28A     -0.488515    29A     -0.467000    30A     -0.456694
      31A     -0.351009    32A     -0.340484

  @DF-RHF Final Energy:  -344.34542894355195

   => Energetics <=

    Nuclear Repulsion Energy =            421.4195608095059242
    One-Electron Energy =               -1301.8091576472575071
    Two-Electron Energy =                 536.0441678941999726
    DFT Exchange-Correlation Energy =       0.0000000000000000
    Empirical Dispersion Energy =           0.0000000000000000
    PCM Polarization Energy =               0.0000000000000000
    EFP Energy =                            0.0000000000000000
    Total Energy =                       -344.3454289435516102
    Molecular point group: c1
  Basis Set: CC-PVTZ
  Basis Set:

  -Total Gradient:
     Atom            X                  Y                   Z
    ------   -----------------  -----------------  -----------------
       1        0.000004507057     0.000006621220    -0.000003720397
       2       -0.000431157708     0.004013563918     0.001104929941
       3        0.000631551417     0.000429023181    -0.003442081748
       4        0.000181955381    -0.003446906864    -0.000090600230
       5        0.000016793214    -0.000010544254     0.000008384435
       6       -0.000395958329    -0.000989564731     0.002433892042
       7       -0.000026887940    -0.000017031474    -0.000014557247
       8        0.000005872748    -0.000004017945     0.000004193728
       9        0.000006363634     0.000011224908     0.000002798509
      10        0.000003714295     0.000015846548     0.000000965377
      11        0.000006224166    -0.000003899824    -0.000010643942
      12       -0.000001170712     0.000000592583     0.000002363094
      13       -0.000003078465    -0.000005475417    -0.000000946790
      14        0.000007925045    -0.000001986427     0.000001108967
      15       -0.000009221335     0.000001852199     0.000001984566
      16       -0.000015172416    -0.000003152295     0.000005325524
      17       -0.000000955322     0.000002073718     0.000003603154
      18       -0.000001662084    -0.000008490387    -0.000001661485
      19        0.000009091864     0.000013726182    -0.000008795339
      20        0.000007254896    -0.000002209686     0.000000732037
      21        0.000006218587    -0.000000561344     0.000003071730
      22       -0.000002207991    -0.000000683811    -0.000000345925

  **** Optimization is complete! (in 5 steps) ****
    Final optimized geometry and variables:
    Molecular point group: c1

    Geometry (in Angstrom), charge = 0, multiplicity = 1:

    H           -3.205744153288    -1.352538093982     0.264655860706
    C           -2.787797912404    -0.434865436684    -0.137287177900
    N           -1.358738948244    -0.374025385874     0.099037002266
    H           -3.028502843696    -0.416856472893    -1.198313369667
    H           -3.296546906706     0.394366259672     0.336586452744
    C           -0.898278216399     0.869037097946     0.674422635961
    C           -0.567082039426    -0.772009728567    -1.040752464979
    H           -1.042696934776     1.712799651811    -0.007527939097
    H           -1.467725963455     1.072906189413     1.572832823588
    C            0.573346176842     0.775917588090     1.033370920068
    H           -0.902019352814    -1.745853811179    -1.378986711139
    H           -0.687981892067    -0.074942594460    -1.875547825107
    C            0.902813529104    -0.852698477014    -0.673381289801
    H            0.914093824614     1.738940169936     1.395024300698
    H            0.695547083308     0.055073856246     1.847465577768
    N            1.361567171997     0.403608225393    -0.121474260984
    H            1.481197116300    -1.077902023577    -1.561679468721
    H            1.049103098052    -1.675126880282     0.033303342910
    C            2.775331869375     0.394512152435     0.160086624049
    H            3.088546256319     1.369572330507     0.511957378411
    H            3.330608042812     0.171292753343    -0.742418137827
    H            3.052670130170    -0.343357400596     0.918421407385

  Mulliken Charges: (a.u.)
   Center  Symbol    Alpha    Beta     Spin     Total
       1     H     0.45047  0.45047  0.00000  0.09906
       2     C     3.09356  3.09356  0.00000 -0.18712
       3     N     3.61477  3.61477  0.00000 -0.22954
       4     H     0.46414  0.46414  0.00000  0.07171
       5     H     0.45741  0.45741  0.00000  0.08517
       6     C     3.03472  3.03472  0.00000 -0.06943
       7     C     3.03484  3.03484  0.00000 -0.06969
       8     H     0.46914  0.46914  0.00000  0.06173
       9     H     0.45386  0.45386  0.00000  0.09228
      10     C     3.03662  3.03662  0.00000 -0.07324
      11     H     0.45366  0.45366  0.00000  0.09268
      12     H     0.46857  0.46857  0.00000  0.06286
      13     C     3.03720  3.03720  0.00000 -0.07440
      14     H     0.45409  0.45409  0.00000  0.09182
      15     H     0.46877  0.46877  0.00000  0.06245
      16     N     3.61303  3.61303  0.00000 -0.22606
      17     H     0.45409  0.45409  0.00000  0.09183
      18     H     0.46866  0.46866  0.00000  0.06268
      19     C     3.09823  3.09823  0.00000 -0.19647
      20     H     0.45197  0.45197  0.00000  0.09607
      21     H     0.45196  0.45196  0.00000  0.09607
      22     H     0.47023  0.47023  0.00000  0.05954

   Total alpha = 32.00000, Total beta = 32.00000, Total charge = -0.00000
