  ==> Input File <==

--------------------------------------------------------------------------
set {
	reference rhf
	basis 6-31G*
}

set_num_threads( 4 )
memory 2 gb

molecule MOL {
0 1

H	 -2.273092	 1.173159	 0.000295
O	 -1.438904	 1.618192	 0.000114
C	 -0.409536	 0.736003	 0.000030
C	 0.338440	 0.653264	 1.164025
C	 -0.105604	 -0.054901	 -1.105881
H	 0.069857	 1.281166	 1.993238
C	 1.403503	 -0.224043	 1.238072
C	 0.970546	 -0.928036	 -1.003284
C	 -0.922827	 0.036958	 -2.375020
H	 1.979859	 -0.283471	 2.144039
C	 1.726215	 -1.021605	 0.151919
H	 1.218291	 -1.545944	 -1.848954
H	 -0.891683	 1.034917	 -2.807515
H	 -0.544286	 -0.646886	 -3.124046
H	 -1.966818	 -0.218985	 -2.205981
H	 2.553254	 -1.706188	 0.202437

	symmetry c1
}
set optking {
	frozen_dihedral = ("
		4 3 2 1
	")
}

ee = optimize('scf')
oeprop('DIPOLE', 'QUADRUPOLE', 'MULLIKEN_CHARGES')
f=open( 'psi4out.xyz', 'w' )
f.write( "16  " )
f.write( str(ee) + "\n" )
f.write( MOL.save_string_xyz() )
f.close()
--------------------------------------------------------------------------

    Molecular point group: c1
  Charge       = 0
  Multiplicity = 1
  Basis Set: 6-31G*
  Basis Set:
  @DF-RHF Final Energy:  -344.59040649634829
    Total Energy =                       -344.5904064963483506
    Molecular point group: c1
  Basis Set: 6-31G*
  Basis Set:
  Basis Set: 6-31G*
  Basis Set:
  @DF-RHF Final Energy:  -344.59115328814499
    Total Energy =                       -344.5911532881453923
  Basis Set: 6-31G*
  Basis Set:
  Basis Set: 6-31G*
  Basis Set:
  @DF-RHF Final Energy:  -344.59123040252092
    Total Energy =                       -344.5912304025207504
  Basis Set: 6-31G*
  Basis Set:
  Basis Set: 6-31G*
  Basis Set:
  @DF-RHF Final Energy:  -344.59124724902284
    Total Energy =                       -344.5912472490228993
  Basis Set: 6-31G*
  Basis Set:
  Basis Set: 6-31G*
  Basis Set:
  @DF-RHF Final Energy:  -344.59125096793036
    Total Energy =                       -344.5912509679303639
  Basis Set: 6-31G*
  Basis Set:
  Charge       = 0
  Multiplicity = 1
  Basis Set: 6-31G*
  Basis Set:

    Orbital Energies (a.u.)
    -----------------------

    Doubly Occupied:

       1A    -20.576823     2A    -11.283771     3A    -11.235067
       4A    -11.229143     5A    -11.228889     6A    -11.224971
       7A    -11.223587     8A    -11.222646     9A     -1.391385
      10A     -1.148583    11A     -1.045276    12A     -1.003169
      13A     -0.934461    14A     -0.826020    15A     -0.808487
      16A     -0.724943    17A     -0.668813    18A     -0.650976
      19A     -0.621322    20A     -0.591051    21A     -0.571089
      22A     -0.567545    23A     -0.546479    24A     -0.519346
      25A     -0.500123    26A     -0.482687    27A     -0.462908
      28A     -0.328690    29A     -0.316851

  @DF-RHF Final Energy:  -344.59125158947882

   => Energetics <=

    Nuclear Repulsion Energy =            349.7262771873899965
    One-Electron Energy =               -1160.7648612108860107
    Two-Electron Energy =                 466.4473324340171985
    DFT Exchange-Correlation Energy =       0.0000000000000000
    Empirical Dispersion Energy =           0.0000000000000000
    PCM Polarization Energy =               0.0000000000000000
    EFP Energy =                            0.0000000000000000
    Total Energy =                       -344.5912515894788157
    Molecular point group: c1
  Basis Set: 6-31G*
  Basis Set:

  -Total Gradient:
     Atom            X                  Y                   Z
    ------   -----------------  -----------------  -----------------
       1       -0.000012227998     0.000062119168     0.001170895434
       2       -0.000280557127    -0.000324939857    -0.001307049134
       3        0.000852162139     0.000837318654    -0.000137421765
       4       -0.000612676347    -0.000508206800     0.000316345316
       5        0.000037003698    -0.000042049375    -0.000045733749
       6        0.000003421327    -0.000013870934    -0.000013729081
       7        0.000054806856    -0.000071720998    -0.000039961975
       8       -0.000094439617     0.000072590592    -0.000051315491
       9       -0.000007575908    -0.000011409242     0.000040766064
      10        0.000004646078    -0.000001624722     0.000009886210
      11        0.000033192289     0.000013192753     0.000090236349
      12        0.000004639125    -0.000008866594    -0.000008399412
      13        0.000012773827    -0.000004331937    -0.000001301435
      14        0.000006668411    -0.000004984814    -0.000023306590
      15        0.000008527191     0.000004150892     0.000007561091
      16       -0.000010363938     0.000002633212    -0.000007471830

  **** Optimization is complete! (in 6 steps) ****
    Final optimized geometry and variables:
    Molecular point group: c1

    Geometry (in Angstrom), charge = 0, multiplicity = 1:

    H           -2.387955216474     1.051401519552     0.215677981027
    O           -1.551560528912     1.497958764929     0.212373058046
    C           -0.525752570916     0.589498222692     0.273764556234
    C            0.221180598522     0.513498008811     1.434297752223
    C           -0.229218927476    -0.206551226023    -0.830118467469
    H           -0.039585310449     1.151614822499     2.258541448419
    C            1.288735856277    -0.366444222314     1.513937536646
    C            0.839562700283    -1.086229654641    -0.726278975481
    C           -1.052021031305    -0.100493129560    -2.091270925665
    H            1.870836114367    -0.421790745698     2.416346285723
    C            1.597096927735    -1.171203379960     0.431958205716
    H            1.086713076931    -1.710203691693    -1.567517010250
    H           -1.115954510563     0.927574886327    -2.429190217019
    H           -0.618591090956    -0.695993563469    -2.885747417906
    H           -2.069299953757    -0.453282033123    -1.937226064562
    H            2.422573602996    -1.858219477647     0.483710279564

  Mulliken Charges: (a.u.)
   Center  Symbol    Alpha    Beta     Spin     Total
       1     H     0.27194  0.27194  0.00000  0.45612
       2     O     4.38728  4.38728  0.00000 -0.77456
       3     C     2.83448  2.83448  0.00000  0.33104
       4     C     3.11239  3.11239  0.00000 -0.22478
       5     C     2.99966  2.99966  0.00000  0.00067
       6     H     0.39331  0.39331  0.00000  0.21338
       7     C     3.10151  3.10151  0.00000 -0.20302
       8     C     3.11270  3.11270  0.00000 -0.22539
       9     C     3.25028  3.25028  0.00000 -0.50056
      10     H     0.39895  0.39895  0.00000  0.20211
      11     C     3.10117  3.10117  0.00000 -0.20234
      12     H     0.40108  0.40108  0.00000  0.19784
      13     H     0.40230  0.40230  0.00000  0.19541
      14     H     0.41305  0.41305  0.00000  0.17390
      15     H     0.41974  0.41974  0.00000  0.16052
      16     H     0.40017  0.40017  0.00000  0.19966

   Total alpha = 29.00000, Total beta = 29.00000, Total charge =  0.00000
