                              Psi4 1.0.54 Driver

  ==> Input File <==

--------------------------------------------------------------------------
set {
	reference rhf
	basis cc-pvtz
}

set_num_threads( 4 )
memory 2 gb

molecule MOL {
0 1

O	 -0.694481	 1.313155	 -0.204815
C	 -0.862519	 0.151932	 -0.046791
C	 -2.171428	 -0.477048	 0.339095
O	 0.085519	 -0.757083	 -0.192238
H	 -2.467997	 -1.191667	 -0.417688
H	 -2.923379	 0.287970	 0.444097
H	 -2.053854	 -1.015120	 1.270901
C	 1.392036	 -0.330828	 -0.560749
C	 2.089423	 -1.353625	 -1.433352
H	 1.963724	 -0.125887	 0.330872
H	 1.236998	 0.592191	 -1.099033
H	 3.051951	 -0.966494	 -1.748189
H	 2.254463	 -2.275175	 -0.892159
H	 1.501807	 -1.565832	 -2.318377

	symmetry c1
}
set optking {
	frozen_dihedral = ("
		10 8 4 2
	")
}

ee,wfn = optimize('scf', return_wfn=True)
oeprop( wfn, 'DIPOLE', 'QUADRUPOLE', 'MULLIKEN_CHARGES')
f=open( 'psi4out.xyz', 'w' )
f.write( "14  " )
f.write( str(ee) + "\n" )
f.write( MOL.save_string_xyz() )
f.close()
--------------------------------------------------------------------------

    Molecular point group: c1
  Charge       = 0
  Multiplicity = 1
  Basis Set: CC-PVTZ
  Basis Set:
  @DF-RHF Final Energy:  -305.98926773949472
    Total Energy =                       -305.9892677394948350
    Molecular point group: c1
  Basis Set: CC-PVTZ
  Basis Set:
  Basis Set: CC-PVTZ
  Basis Set:
  @DF-RHF Final Energy:  -305.99043666112095
    Total Energy =                       -305.9904366611208957
  Basis Set: CC-PVTZ
  Basis Set:
  Basis Set: CC-PVTZ
  Basis Set:
  @DF-RHF Final Energy:  -305.99065859712499
    Total Energy =                       -305.9906585971251616
  Basis Set: CC-PVTZ
  Basis Set:
  Basis Set: CC-PVTZ
  Basis Set:
  @DF-RHF Final Energy:  -305.99059741329989
    Total Energy =                       -305.9905974132997244
  Basis Set: CC-PVTZ
  Basis Set:
  Basis Set: CC-PVTZ
  Basis Set:
  @DF-RHF Final Energy:  -305.99097820818713
    Total Energy =                       -305.9909782081869025
  Basis Set: CC-PVTZ
  Basis Set:
  Charge       = 0
  Multiplicity = 1
  Basis Set: CC-PVTZ
  Basis Set:

    Orbital Energies (a.u.)
    -----------------------

    Doubly Occupied:

       1A    -20.594506     2A    -20.532702     3A    -11.367788
       4A    -11.282741     5A    -11.231497     6A    -11.220891
       7A     -1.470270     8A     -1.366012     9A     -1.058865
      10A     -1.000764    11A     -0.874031    12A     -0.780385
      13A     -0.696982    14A     -0.687715    15A     -0.667342
      16A     -0.612669    17A     -0.581919    18A     -0.564226
      19A     -0.558325    20A     -0.538718    21A     -0.513930
      22A     -0.501121    23A     -0.455492    24A     -0.441919

  @DF-RHF Final Energy:  -305.99098095259603

   => Energetics <=

    Nuclear Repulsion Energy =            246.0738281855789467
    One-Electron Energy =                -904.9279981563986439
    Two-Electron Energy =                 352.8631890182234088
    DFT Exchange-Correlation Energy =       0.0000000000000000
    Empirical Dispersion Energy =           0.0000000000000000
    PCM Polarization Energy =               0.0000000000000000
    EFP Energy =                            0.0000000000000000
    Total Energy =                       -305.9909809525963169
    Molecular point group: c1
  Basis Set: CC-PVTZ
  Basis Set:

  -Total Gradient:
     Atom            X                  Y                   Z
    ------   -----------------  -----------------  -----------------
       1        0.000072426071     0.000152347896    -0.000011459430
       2       -0.000298995286    -0.000293081159    -0.001447990587
       3       -0.000003998960    -0.000021296438     0.000004145445
       4        0.000720359398    -0.000168503100     0.001980328488
       5       -0.000009365272    -0.000018840072     0.000004743905
       6        0.000017166299     0.000014213361    -0.000000013049
       7       -0.000018288452    -0.000021239441     0.000020300911
       8       -0.000849986550     0.001871305802    -0.000494765486
       9       -0.000096535287    -0.000057075950     0.000020732521
      10        0.000493258016    -0.001539573317    -0.000037019548
      11       -0.000042325324     0.000104923549    -0.000037884697
      12        0.000003633054     0.000048498198     0.000019259508
      13        0.000019267509    -0.000064745816     0.000008690902
      14       -0.000006615215    -0.000006933514    -0.000029068884

  **** Optimization is complete! (in 6 steps) ****
    Final optimized geometry and variables:
    Molecular point group: c1

    Geometry (in Angstrom), charge = 0, multiplicity = 1:

    O           -0.693675913257     1.554506044194     0.259038112729
    C           -0.833764117467     0.382007711269     0.338922308971
    C           -2.121776399226    -0.301026603116     0.703183486027
    O            0.130523891612    -0.495155810657     0.120910162828
    H           -2.417662223073    -0.969500336927    -0.094920652051
    H           -2.887344274257     0.438379891421     0.872925279097
    H           -1.975656404480    -0.897885953408     1.594270872248
    C            1.416078355412    -0.028092831288    -0.267868039563
    C            2.061863451727    -1.091564628045    -1.127452697317
    H            1.997520309220     0.141623343111     0.629211404346
    H            1.315448896070     0.906601833229    -0.794520529649
    H            3.060126584382    -0.777009663038    -1.408906717960
    H            2.137091037596    -2.029576335322    -0.591808859705
    H            1.487964657932    -1.257948365524    -2.030635849568

  Mulliken Charges: (a.u.)
   Center  Symbol    Alpha    Beta     Spin     Total
       1     O     4.19794  4.19794  0.00000 -0.39588
       2     C     2.80395  2.80395  0.00000  0.39211
       3     C     3.13945  3.13945  0.00000 -0.27891
       4     O     4.15443  4.15443  0.00000 -0.30886
       5     H     0.44625  0.44625  0.00000  0.10751
       6     H     0.43810  0.43810  0.00000  0.12380
       7     H     0.44561  0.44561  0.00000  0.10878
       8     C     2.98204  2.98204  0.00000  0.03592
       9     C     3.13252  3.13252  0.00000 -0.26505
      10     H     0.45633  0.45633  0.00000  0.08735
      11     H     0.44535  0.44535  0.00000  0.10931
      12     H     0.45463  0.45463  0.00000  0.09074
      13     H     0.45139  0.45139  0.00000  0.09722
      14     H     0.45202  0.45202  0.00000  0.09596

   Total alpha = 24.00000, Total beta = 24.00000, Total charge = -0.00000

*** Psi4 exiting successfully. Buy a developer a beer!
