                              Psi4 1.0.54 Driver

  ==> Input File <==

--------------------------------------------------------------------------
set {
	reference rhf
	basis cc-pvtz
}

set_num_threads( 4 )
memory 2 gb

molecule MOL {
0 1

H	 -2.960880	 0.113703	 0.665863
O	 -2.346257	 -0.289210	 0.080372
C	 -1.183935	 0.486039	 -0.009831
C	 0.062853	 -0.375310	 0.027457
H	 -1.178881	 1.094526	 -0.908634
H	 -1.184406	 1.155156	 0.838676
O	 1.172093	 0.457955	 -0.054438
H	 0.052476	 -1.081302	 -0.804627
H	 0.076323	 -0.955658	 0.947560
C	 2.395478	 -0.199028	 -0.000366
H	 2.505946	 -0.901710	 -0.823354
H	 3.174616	 0.545641	 -0.071768
H	 2.513730	 -0.742241	 0.934223

	symmetry c1
}
set optking {
	frozen_dihedral = ("
		1 2 3 5
	")
}

ee,wfn = optimize('scf', return_wfn=True)
oeprop( wfn, 'DIPOLE', 'QUADRUPOLE', 'MULLIKEN_CHARGES')
f=open( 'psi4out.xyz', 'w' )
f.write( "13  " )
f.write( str(ee) + "\n" )
f.write( MOL.save_string_xyz() )
f.close()
--------------------------------------------------------------------------

    Molecular point group: c1
  Charge       = 0
  Multiplicity = 1
  Basis Set: CC-PVTZ
  Basis Set:
  @DF-RHF Final Energy:  -268.06041896815293
    Total Energy =                       -268.0604189681530443
    Molecular point group: c1
  Basis Set: CC-PVTZ
  Basis Set:
  Basis Set: CC-PVTZ
  Basis Set:
  @DF-RHF Final Energy:  -268.00814522951271
    Total Energy =                       -268.0081452295127633
  Basis Set: CC-PVTZ
  Basis Set:
  Basis Set: CC-PVTZ
  Basis Set:
  @DF-RHF Final Energy:  -268.05912783563002
    Total Energy =                       -268.0591278356299654
  Basis Set: CC-PVTZ
  Basis Set:
  Basis Set: CC-PVTZ
  Basis Set:
  @DF-RHF Final Energy:  -268.06174676065928
    Total Energy =                       -268.0617467606592754
  Basis Set: CC-PVTZ
  Basis Set:
  Basis Set: CC-PVTZ
  Basis Set:
  @DF-RHF Final Energy:  -268.06182205206568
    Total Energy =                       -268.0618220520656223
  Basis Set: CC-PVTZ
  Basis Set:
  Charge       = 0
  Multiplicity = 1
  Basis Set: CC-PVTZ
  Basis Set:

    Orbital Energies (a.u.)
    -----------------------

    Doubly Occupied:

       1A    -20.552599     2A    -20.551416     3A    -11.267664
       4A    -11.264905     5A    -11.264824     6A     -1.388699
       7A     -1.367702     8A     -1.019415     9A     -0.912037
      10A     -0.833073    11A     -0.714818    12A     -0.682382
      13A     -0.644019    14A     -0.643097    15A     -0.612057
      16A     -0.554002    17A     -0.543805    18A     -0.495255
      19A     -0.475633    20A     -0.442185    21A     -0.421138

  @DF-RHF Final Energy:  -268.06183006372908

   => Energetics <=

    Nuclear Repulsion Energy =            190.5892525434295237
    One-Electron Energy =                -744.0007198258171002
    Two-Electron Energy =                 285.3496372186584722
    DFT Exchange-Correlation Energy =       0.0000000000000000
    Empirical Dispersion Energy =           0.0000000000000000
    PCM Polarization Energy =               0.0000000000000000
    EFP Energy =                            0.0000000000000000
    Total Energy =                       -268.0618300637290758
    Molecular point group: c1
  Basis Set: CC-PVTZ
  Basis Set:

  -Total Gradient:
     Atom            X                  Y                   Z
    ------   -----------------  -----------------  -----------------
       1        0.000559242459    -0.000701696482     0.000636815223
       2       -0.000455569798     0.000967956322    -0.000969571066
       3       -0.000555220480     0.000240703581     0.001137379303
       4       -0.000009596884    -0.000014704916    -0.000077458371
       5        0.000491528981    -0.000540090597    -0.000678249922
       6       -0.000058820999    -0.000009756316    -0.000008538613
       7        0.000064260304     0.000042058664    -0.000002692363
       8        0.000072325493    -0.000028815210     0.000007228969
       9       -0.000071692647     0.000045184599    -0.000029155030
      10       -0.000002416969    -0.000026429130    -0.000052886090
      11        0.000012422244     0.000014397302     0.000035029130
      12       -0.000039028039    -0.000022757600     0.000011603201
      13       -0.000007433662     0.000033949783    -0.000009504372

  **** Optimization is complete! (in 6 steps) ****
    Final optimized geometry and variables:
    Molecular point group: c1

    Geometry (in Angstrom), charge = 0, multiplicity = 1:

    H           -2.881717664408    -0.579330742474     0.745994696816
    O           -2.236323329885    -0.655426107855     0.070088832978
    C           -1.221791847720     0.297025339793     0.248013870516
    C            0.102770636148    -0.351445489962    -0.088857305586
    H           -1.378546433274     1.144206724277    -0.410592515740
    H           -1.193345671982     0.664487021752     1.267813279369
    O            1.099036294188     0.613099999103     0.020594537602
    H            0.061038360970    -0.755133109827    -1.098423750416
    H            0.288072201071    -1.181212360216     0.590206012950
    C            2.376700310371     0.158519678979    -0.281173537518
    H            2.438530129059    -0.202703278260    -1.305064739202
    H            3.059701625442     0.986882243302    -0.162156202109
    H            2.680868450042    -0.644945692945     0.385847509030

  Mulliken Charges: (a.u.)
   Center  Symbol    Alpha    Beta     Spin     Total
       1     H     0.38952  0.38952  0.00000  0.22096
       2     O     4.20466  4.20466  0.00000 -0.40931
       3     C     2.96756  2.96756  0.00000  0.06487
       4     C     2.96091  2.96091  0.00000  0.07818
       5     H     0.46705  0.46705  0.00000  0.06589
       6     H     0.47037  0.47037  0.00000  0.05926
       7     O     4.17653  4.17653  0.00000 -0.35307
       8     H     0.47052  0.47052  0.00000  0.05896
       9     H     0.47375  0.47375  0.00000  0.05249
      10     C     3.03089  3.03089  0.00000 -0.06178
      11     H     0.47023  0.47023  0.00000  0.05955
      12     H     0.44704  0.44704  0.00000  0.10593
      13     H     0.47097  0.47097  0.00000  0.05807

   Total alpha = 21.00000, Total beta = 21.00000, Total charge = -0.00000

*** Psi4 exiting successfully. Buy a developer a beer!
