  ==> Input File <==

--------------------------------------------------------------------------
set {
	reference rhf
	basis 6-31G*
}

set_num_threads( 1 )
memory 2 gb

molecule MOL {
0 1

H	 -2.097415	 1.354475	 -2.856168
C	 -2.565721	 0.553596	 -2.270589
C	 -1.755909	 -0.713271	 -2.161669
O	 -3.634371	 0.720074	 -1.778630
C	 -0.323782	 -0.456179	 -1.672616
H	 -2.282307	 -1.400791	 -1.509803
H	 -1.720559	 -1.156756	 -3.156016
C	 -0.252658	 0.041456	 -0.226725
H	 0.241908	 -1.378546	 -1.764910
H	 0.159732	 0.262555	 -2.332459
C	 1.180775	 0.282413	 0.250794
H	 -0.734927	 -0.685176	 0.423866
H	 -0.823993	 0.962174	 -0.124769
C	 2.148627	 -0.814315	 -0.201312
H	 1.516199	 1.249228	 -0.115937
H	 1.192670	 0.346017	 1.338083
C	 3.580890	 -0.659131	 0.322722
H	 2.166869	 -0.852443	 -1.289387
H	 1.762857	 -1.776509	 0.128956
C	 4.324889	 0.564933	 -0.213704
H	 4.142010	 -1.551473	 0.056605
H	 3.564836	 -0.624694	 1.410140
H	 4.342616	 0.565491	 -1.300421
H	 3.866655	 1.493402	 0.110242
H	 5.353900	 0.572371	 0.132816

	symmetry c1
}
set optking {
	frozen_dihedral = ("
		6 3 5 8,
		6 3 2 4,
		3 5 8 12,
		8 11 14 18,
		20 17 14 18
	")
}

ee = energy('scf')
oeprop('DIPOLE', 'QUADRUPOLE', 'MULLIKEN_CHARGES')
f=open( 'psi4out.xyz', 'w' )
f.write( "25  " )
f.write( str(ee) + "\n" )
f.write( MOL.save_string_xyz() )
f.close()
--------------------------------------------------------------------------

    Molecular point group: c1

    Geometry (in Angstrom), charge = 0, multiplicity = 1:

       Center              X                  Y                   Z               Mass
    ------------   -----------------  -----------------  -----------------  -----------------
           H         -2.399682323562     1.397634777920    -1.970590587641     1.007825032070
           C         -2.867988323562     0.596755777920    -1.385011587641    12.000000000000
           C         -2.058176323562    -0.670111222080    -1.276091587641    12.000000000000
           O         -3.936638323562     0.763233777920    -0.893052587641    15.994914619560
           C         -0.626049323562    -0.413019222080    -0.787038587641    12.000000000000
           H         -2.584574323562    -1.357631222080    -0.624225587641     1.007825032070
           H         -2.022826323562    -1.113596222080    -2.270438587641     1.007825032070
           C         -0.554925323562     0.084615777920     0.658852412359    12.000000000000
           H         -0.060359323562    -1.335386222080    -0.879332587641     1.007825032070
           H         -0.142535323562     0.305714777920    -1.446881587641     1.007825032070
           C          0.878507676438     0.325572777920     1.136371412359    12.000000000000
           H         -1.037194323562    -0.642016222080     1.309443412359     1.007825032070
           H         -1.126260323562     1.005333777920     0.760808412359     1.007825032070
           C          1.846359676438    -0.771155222080     0.684265412359    12.000000000000
           H          1.213931676438     1.292387777920     0.769640412359     1.007825032070
           H          0.890402676438     0.389176777920     2.223660412359     1.007825032070
           C          3.278622676438    -0.615971222080     1.208299412359    12.000000000000
           H          1.864601676438    -0.809283222080    -0.403809587641     1.007825032070
           H          1.460589676438    -1.733349222080     1.014533412359     1.007825032070
           C          4.022621676438     0.608092777920     0.671873412359    12.000000000000
           H          3.839742676438    -1.508313222080     0.942182412359     1.007825032070
           H          3.262568676438    -0.581534222080     2.295717412359     1.007825032070
           H          4.040348676438     0.608650777920    -0.414843587641     1.007825032070
           H          3.564387676438     1.536561777920     0.995819412359     1.007825032070
           H          5.051632676438     0.615530777920     1.018393412359     1.007825032070

  Charge       = 0
  Multiplicity = 1
  Basis Set: 6-31G*
  Basis Set:

    Orbital Energies (a.u.)
    -----------------------

    Doubly Occupied:

       1A    -20.561549     2A    -11.325637     3A    -11.234309
       4A    -11.233628     5A    -11.223793     6A    -11.219853
       7A    -11.219231     8A    -11.218400     9A    -11.211856
      10A     -1.401556    11A     -1.107215    12A     -1.067814
      13A     -1.013619    14A     -0.938715    15A     -0.885129
      16A     -0.824922    17A     -0.792400    18A     -0.768575
      19A     -0.664736    20A     -0.657531    21A     -0.634439
      22A     -0.625113    23A     -0.601229    24A     -0.599117
      25A     -0.584233    26A     -0.544583    27A     -0.541998
      28A     -0.523927    29A     -0.514349    30A     -0.501972
      31A     -0.486847    32A     -0.476243    33A     -0.458310
      34A     -0.452990    35A     -0.448873    36A     -0.408384

  @DF-RHF Final Energy:  -387.11625205714302

   => Energetics <=

    Nuclear Repulsion Energy =            446.2067448008041310
    One-Electron Energy =               -1408.6997401831640673
    Two-Electron Energy =                 575.3767433252151022
    DFT Exchange-Correlation Energy =       0.0000000000000000
    Empirical Dispersion Energy =           0.0000000000000000
    PCM Polarization Energy =               0.0000000000000000
    EFP Energy =                            0.0000000000000000
    Total Energy =                       -387.1162520571448340

  Mulliken Charges: (a.u.)
   Center  Symbol    Alpha    Beta     Spin     Total
       1     H     0.43280  0.43280  0.00000  0.13441
       2     C     2.83108  2.83108  0.00000  0.33784
       3     C     3.20643  3.20643  0.00000 -0.41286
       4     O     4.23791  4.23791  0.00000 -0.47583
       5     C     3.17349  3.17349  0.00000 -0.34699
       6     H     0.39992  0.39992  0.00000  0.20017
       7     H     0.40706  0.40706  0.00000  0.18589
       8     C     3.15567  3.15567  0.00000 -0.31134
       9     H     0.40773  0.40773  0.00000  0.18454
      10     H     0.42000  0.42000  0.00000  0.15999
      11     C     3.15416  3.15416  0.00000 -0.30831
      12     H     0.41795  0.41795  0.00000  0.16410
      13     H     0.41601  0.41601  0.00000  0.16799
      14     C     3.16087  3.16087  0.00000 -0.32174
      15     H     0.42043  0.42043  0.00000  0.15913
      16     H     0.41878  0.41878  0.00000  0.16244
      17     C     3.15094  3.15094  0.00000 -0.30189
      18     H     0.42117  0.42117  0.00000  0.15767
      19     H     0.42187  0.42187  0.00000  0.15627
      20     C     3.24140  3.24140  0.00000 -0.48281
      21     H     0.42081  0.42081  0.00000  0.15839
      22     H     0.42265  0.42265  0.00000  0.15470
      23     H     0.42283  0.42283  0.00000  0.15433
      24     H     0.41969  0.41969  0.00000  0.16061
      25     H     0.41835  0.41835  0.00000  0.16331

   Total alpha = 36.00000, Total beta = 36.00000, Total charge =  0.00000
