  ==> Input File <==

--------------------------------------------------------------------------
set {
	reference rhf
	basis 6-31G*
}

set_num_threads( 4 )
memory 2 gb

molecule MOL {
0 1

O	 1.097365	 0.401464	 0.982751
C	 1.705091	 0.115954	 0.001797
C	 1.444441	 0.658826	 -1.382117
O	 2.721346	 -0.737485	 -0.000216
C	 0.284826	 1.648762	 -1.436546
H	 2.367285	 1.113788	 -1.731521
H	 1.267938	 -0.190734	 -2.036193
C	 0.043681	 2.183121	 -2.849122
H	 0.486270	 2.473022	 -0.759638
H	 -0.614420	 1.166934	 -1.065727
C	 -1.115682	 3.178328	 -2.921910
H	 0.950117	 2.661921	 -3.216709
H	 -0.155394	 1.351647	 -3.523587
C	 -1.356925	 3.710964	 -4.333771
H	 -0.917147	 4.010841	 -2.250608
H	 -2.022066	 2.701236	 -2.555865
H	 -0.478695	 4.224531	 -4.714791
H	 -2.184470	 4.413290	 -4.352727
H	 -1.591962	 2.904388	 -5.022613
C	 4.024888	 -0.184556	 -0.001949
H	 4.179030	 0.422472	 -0.882452
H	 4.701782	 -1.024608	 -0.003642
H	 4.181981	 0.421185	 0.878906

	symmetry c1
}
set optking {
	frozen_dihedral = ("
		1 2 4 20
	")
}

ee = optimize('scf')
oeprop('DIPOLE', 'QUADRUPOLE', 'MULLIKEN_CHARGES')
f=open( 'psi4out.xyz', 'w' )
f.write( "23  " )
f.write( str(ee) + "\n" )
f.write( MOL.save_string_xyz() )
f.close()
--------------------------------------------------------------------------

    Molecular point group: c1
  Charge       = 0
  Multiplicity = 1
  Basis Set: 6-31G*
  Basis Set:
  @DF-RHF Final Energy:  -422.95319912016879
    Total Energy =                       -422.9531991201687333
    Molecular point group: c1
  Basis Set: 6-31G*
  Basis Set:
  Basis Set: 6-31G*
  Basis Set:
  @DF-RHF Final Energy:  -422.95148644914360
    Total Energy =                       -422.9514864491435446
  Basis Set: 6-31G*
  Basis Set:
  Basis Set: 6-31G*
  Basis Set:
  @DF-RHF Final Energy:  -422.95445747380836
    Total Energy =                       -422.9544574738083611
  Basis Set: 6-31G*
  Basis Set:
  Basis Set: 6-31G*
  Basis Set:
  @DF-RHF Final Energy:  -422.95534544989914
    Total Energy =                       -422.9553454498986866
  Basis Set: 6-31G*
  Basis Set:
  Basis Set: 6-31G*
  Basis Set:
  @DF-RHF Final Energy:  -422.95537852174800
    Total Energy =                       -422.9553785217480026
  Basis Set: 6-31G*
  Basis Set:
  Basis Set: 6-31G*
  Basis Set:
  @DF-RHF Final Energy:  -422.95538437254044
    Total Energy =                       -422.9553843725399247
  Basis Set: 6-31G*
  Basis Set:
  Basis Set: 6-31G*
  Basis Set:
  @DF-RHF Final Energy:  -422.95538560610777
    Total Energy =                       -422.9553856061075976
  Basis Set: 6-31G*
  Basis Set:
  Charge       = 0
  Multiplicity = 1
  Basis Set: 6-31G*
  Basis Set:

    Orbital Energies (a.u.)
    -----------------------

    Doubly Occupied:

       1A    -20.585813     2A    -20.556889     3A    -11.375097
       4A    -11.292867     5A    -11.240542     6A    -11.222576
       7A    -11.220746     8A    -11.218652     9A    -11.211496
      10A     -1.458505    11A     -1.367639    12A     -1.095197
      13A     -1.041737    14A     -0.980870    15A     -0.944736
      16A     -0.851223    17A     -0.797848    18A     -0.765428
      19A     -0.696212    20A     -0.678378    21A     -0.675030
      22A     -0.650303    23A     -0.619984    24A     -0.606737
      25A     -0.579879    26A     -0.568236    27A     -0.557100
      28A     -0.536971    29A     -0.510803    30A     -0.495335
      31A     -0.485614    32A     -0.481343    33A     -0.471035
      34A     -0.468183    35A     -0.449541    36A     -0.431936

  @DF-RHF Final Energy:  -422.95538562177393

   => Energetics <=

    Nuclear Repulsion Energy =            452.8191805738311473
    One-Electron Energy =               -1473.1681749378649329
    Two-Electron Energy =                 597.3936087422596302
    DFT Exchange-Correlation Energy =       0.0000000000000000
    Empirical Dispersion Energy =           0.0000000000000000
    PCM Polarization Energy =               0.0000000000000000
    EFP Energy =                            0.0000000000000000
    Total Energy =                       -422.9553856217742123
    Molecular point group: c1
  Basis Set: 6-31G*
  Basis Set:

  -Total Gradient:
     Atom            X                  Y                   Z
    ------   -----------------  -----------------  -----------------
       1       -0.000970125481    -0.001292985387    -0.000412222581
       2        0.001405777424     0.002014947373    -0.000037361737
       3        0.000037583816    -0.000029664736    -0.000018248550
       4       -0.000493914783    -0.000754306058     0.001793350878
       5        0.000024453503     0.000010528685     0.000003773371
       6       -0.000008709466    -0.000006836887     0.000013257895
       7        0.000000484473     0.000002500820    -0.000008123226
       8       -0.000018932569    -0.000008823719     0.000006084043
       9       -0.000012948823     0.000000944033     0.000009815407
      10        0.000004637288    -0.000000415692    -0.000010687816
      11       -0.000003190504    -0.000009011828    -0.000014879966
      12       -0.000004781729    -0.000012508618    -0.000009129086
      13       -0.000013440531    -0.000001376687     0.000004319739
      14        0.000006948543     0.000030215884     0.000002915376
      15       -0.000007743938    -0.000005781201     0.000007080292
      16        0.000001233663    -0.000005938955    -0.000011795100
      17        0.000000948513    -0.000002974226    -0.000006533480
      18        0.000002764506     0.000009585678    -0.000006051452
      19       -0.000003044834     0.000000200341     0.000009545538
      20        0.000031564130     0.000060273636    -0.001313689891
      21       -0.000010921748    -0.000001056404     0.000002286406
      22        0.000007847351    -0.000006829137     0.000001360890
      23        0.000023511194     0.000009313090    -0.000005066948

  **** Optimization is complete! (in 8 steps) ****
    Final optimized geometry and variables:
    Molecular point group: c1

    Geometry (in Angstrom), charge = 0, multiplicity = 1:

    O            0.074562763231    -0.856583880178     2.240133362784
    C            0.718915355914    -1.083064326194     1.276514734500
    C            0.432334336123    -0.529981667146    -0.100140777677
    O            1.751834512512    -1.958331617237     1.313527856179
    C           -0.722220127860     0.466891605600    -0.135012740767
    H            1.342672981252    -0.081363102786    -0.489445414390
    H            0.232637518722    -1.385373276146    -0.741248129502
    C           -0.996706531833     0.991126001399    -1.545312542423
    H           -0.499373930408     1.296286332464     0.529657158045
    H           -1.613068616144    -0.007565321320     0.263199915593
    C           -2.152101012585     1.992301964317    -1.596450149332
    H           -0.097693004601     1.461954910886    -1.940776202491
    H           -1.217908579570     0.155086944299    -2.207060358390
    C           -2.423147036434     2.518958519058    -3.005152550780
    H           -1.933635821290     2.827185569881    -0.934352503176
    H           -3.052071389142     1.521941337566    -1.206991777304
    H           -1.550920453420     3.024791503853    -3.409754712905
    H           -3.246322299829     3.226528483372    -3.008366745277
    H           -2.679708147976     1.710308441333    -3.683727806548
    C            3.054890344368    -1.428696983846     1.417650970687
    H            3.309753765398    -0.823280922719     0.554688301856
    H            3.725201661496    -2.272535959142     1.466541473776
    H            3.156057294385    -0.836872321938     2.319684314746

  Mulliken Charges: (a.u.)
   Center  Symbol    Alpha    Beta     Spin     Total
       1     O     4.25057  4.25057  0.00000 -0.50113
       2     C     2.61321  2.61321  0.00000  0.77358
       3     C     3.21569  3.21569  0.00000 -0.43139
       4     O     4.31523  4.31523  0.00000 -0.63046
       5     C     3.15231  3.15231  0.00000 -0.30462
       6     H     0.40820  0.40820  0.00000  0.18360
       7     H     0.39777  0.39777  0.00000  0.20446
       8     C     3.15329  3.15329  0.00000 -0.30659
       9     H     0.41354  0.41354  0.00000  0.17292
      10     H     0.40874  0.40874  0.00000  0.18252
      11     C     3.15172  3.15172  0.00000 -0.30343
      12     H     0.42506  0.42506  0.00000  0.14989
      13     H     0.42326  0.42326  0.00000  0.15347
      14     C     3.23967  3.23967  0.00000 -0.47934
      15     H     0.42145  0.42145  0.00000  0.15710
      16     H     0.42052  0.42052  0.00000  0.15895
      17     H     0.42207  0.42207  0.00000  0.15587
      18     H     0.41803  0.41803  0.00000  0.16394
      19     H     0.42149  0.42149  0.00000  0.15702
      20     C     3.09266  3.09266  0.00000 -0.18531
      21     H     0.42259  0.42259  0.00000  0.15482
      22     H     0.40180  0.40180  0.00000  0.19640
      23     H     0.41114  0.41114  0.00000  0.17772

   Total alpha = 36.00000, Total beta = 36.00000, Total charge = -0.00000
