  ==> Input File <==

--------------------------------------------------------------------------
set {
	reference rhf
	basis 6-31G*
}

set_num_threads( 1 )
memory 2 gb

molecule MOL {
0 1

H	 -2.172150	 0.880146	 0.502514
C	 -2.018062	 -0.000025	 -0.114509
O	 -0.774054	 0.001095	 -0.743181
H	 -2.760490	 0.003458	 -0.901350
H	 -2.173624	 -0.884374	 0.496163
C	 -0.067697	 -1.216374	 -0.902433
C	 1.212513	 -0.799471	 -1.623035
C	 0.275688	 -1.837646	 0.455247
C	 -0.856560	 -2.204078	 -1.768026
H	 1.760141	 -0.079949	 -1.024851
H	 0.971964	 -0.334281	 -2.572302
H	 1.853138	 -1.655508	 -1.808671
H	 0.770526	 -1.108050	 1.087588
H	 0.942618	 -2.683530	 0.323773
H	 -0.605550	 -2.197819	 0.975102
H	 -1.156757	 -1.732111	 -2.697639
H	 -0.244107	 -3.067661	 -2.006059
H	 -1.747237	 -2.567039	 -1.266443

	symmetry c1
}
set optking {
	frozen_dihedral = ("
		2 3 6 7
	")
}

ee = energy('scf')
oeprop('DIPOLE', 'QUADRUPOLE', 'MULLIKEN_CHARGES')
f=open( 'psi4out.xyz', 'w' )
f.write( "18  " )
f.write( str(ee) + "\n" )
f.write( MOL.save_string_xyz() )
f.close()
--------------------------------------------------------------------------

    Molecular point group: c1

    Geometry (in Angstrom), charge = 0, multiplicity = 1:

       Center              X                  Y                   Z               Mass
    ------------   -----------------  -----------------  -----------------  -----------------
           H         -1.781322109511     1.881647111431     1.277662867572     1.007825032070
           C         -1.627234109511     1.001476111431     0.660639867572    12.000000000000
           O         -0.383226109511     1.002596111431     0.031967867572    15.994914619560
           H         -2.369662109511     1.004959111431    -0.126201132428     1.007825032070
           H         -1.782796109511     0.117127111431     1.271311867572     1.007825032070
           C          0.323130890489    -0.214872888569    -0.127284132428    12.000000000000
           C          1.603340890489     0.202030111431    -0.847886132428    12.000000000000
           C          0.666515890489    -0.836144888569     1.230395867572    12.000000000000
           C         -0.465732109511    -1.202576888569    -0.992877132428    12.000000000000
           H          2.150968890489     0.921552111431    -0.249702132428     1.007825032070
           H          1.362791890489     0.667220111431    -1.797153132428     1.007825032070
           H          2.243965890489    -0.654006888569    -1.033522132428     1.007825032070
           H          1.161353890489    -0.106548888569     1.862736867572     1.007825032070
           H          1.333445890489    -1.682028888569     1.098921867572     1.007825032070
           H         -0.214722109511    -1.196317888569     1.750250867572     1.007825032070
           H         -0.765929109511    -0.730609888569    -1.922490132428     1.007825032070
           H          0.146720890489    -2.066159888569    -1.230910132428     1.007825032070
           H         -1.356409109511    -1.565537888569    -0.491294132428     1.007825032070

  Charge       = 0
  Multiplicity = 1
  Basis Set: 6-31G*
  Basis Set:

    Orbital Energies (a.u.)
    -----------------------

    Doubly Occupied:

       1A    -20.544174     2A    -11.282264     3A    -11.260392
       4A    -11.208921     5A    -11.208755     6A    -11.203306
       7A     -1.369053     8A     -1.072947     9A     -0.946201
      10A     -0.939885    11A     -0.911927    12A     -0.752500
      13A     -0.654989    14A     -0.644082    15A     -0.639714
      16A     -0.590716    17A     -0.573338    18A     -0.551198
      19A     -0.537409    20A     -0.524050    21A     -0.515169
      22A     -0.489909    23A     -0.486235    24A     -0.437887
      25A     -0.400622

  @DF-RHF Final Energy:  -271.17216517343098

   => Energetics <=

    Nuclear Repulsion Energy =            272.3705893627475803
    One-Electron Energy =                -907.5938125765226232
    Two-Electron Energy =                 364.0510580403441168
    DFT Exchange-Correlation Energy =       0.0000000000000000
    Empirical Dispersion Energy =           0.0000000000000000
    PCM Polarization Energy =               0.0000000000000000
    EFP Energy =                            0.0000000000000000
    Total Energy =                       -271.1721651734309830

  Mulliken Charges: (a.u.)
   Center  Symbol    Alpha    Beta     Spin     Total
       1     H     0.41654  0.41654  0.00000  0.16692
       2     C     3.07720  3.07720  0.00000 -0.15439
       3     O     4.32105  4.32105  0.00000 -0.64210
       4     H     0.42457  0.42457  0.00000  0.15086
       5     H     0.43096  0.43096  0.00000  0.13809
       6     C     2.84384  2.84384  0.00000  0.31232
       7     C     3.23294  3.23294  0.00000 -0.46588
       8     C     3.24625  3.24625  0.00000 -0.49250
       9     C     3.24612  3.24612  0.00000 -0.49224
      10     H     0.41395  0.41395  0.00000  0.17211
      11     H     0.41404  0.41404  0.00000  0.17191
      12     H     0.42522  0.42522  0.00000  0.14956
      13     H     0.41306  0.41306  0.00000  0.17388
      14     H     0.41978  0.41978  0.00000  0.16045
      15     H     0.42039  0.42039  0.00000  0.15921
      16     H     0.41331  0.41331  0.00000  0.17338
      17     H     0.41990  0.41990  0.00000  0.16021
      18     H     0.42090  0.42090  0.00000  0.15820

   Total alpha = 25.00000, Total beta = 25.00000, Total charge =  0.00000
