  ==> Input File <==

--------------------------------------------------------------------------
set {
	reference rhf
	basis 6-31G*
}

set_num_threads( 1 )
memory 2 gb

molecule MOL {
0 1

H	 3.367740	 -3.143492	 -2.075582
C	 3.163872	 -2.120525	 -2.376413
C	 1.834252	 -1.630998	 -1.804006
H	 3.987620	 -1.503483	 -2.029946
H	 3.160598	 -2.089493	 -3.462611
C	 1.512475	 -0.192508	 -2.215127
H	 1.863107	 -1.699978	 -0.721411
H	 1.034208	 -2.288703	 -2.140228
C	 0.178263	 0.319243	 -1.671753
H	 2.305307	 0.467283	 -1.880854
H	 1.485602	 -0.130854	 -3.300722
C	 0.169600	 0.576866	 -0.172154
H	 -0.075056	 1.264196	 -2.149942
H	 -0.630901	 -0.363095	 -1.922445
C	 -1.181045	 0.701995	 0.511084
O	 1.183248	 0.695829	 0.448145
C	 -2.285934	 -0.139295	 -0.145128
H	 -1.449051	 1.751551	 0.493206
H	 -1.071135	 0.403303	 1.551943
C	 -3.651768	 0.085446	 0.506485
H	 -2.346596	 0.110469	 -1.202272
H	 -2.034737	 -1.195320	 -0.088721
C	 -4.759797	 -0.746382	 -0.137905
H	 -3.908762	 1.140117	 0.445781
H	 -3.588286	 -0.154158	 1.565709
H	 -4.868882	 -0.505166	 -1.191300
H	 -4.548009	 -1.809175	 -0.062213
H	 -5.715422	 -0.564821	 0.343442

	symmetry c1
}
set optking {
	frozen_dihedral = ("
		10 6 3 2,
		12 15 17 21
	")
}

ee = energy('scf')
oeprop('DIPOLE', 'QUADRUPOLE', 'MULLIKEN_CHARGES')
f=open( 'psi4out.xyz', 'w' )
f.write( "28  " )
f.write( str(ee) + "\n" )
f.write( MOL.save_string_xyz() )
f.close()
--------------------------------------------------------------------------

    Molecular point group: c1

    Geometry (in Angstrom), charge = 0, multiplicity = 1:

       Center              X                  Y                   Z               Mass
    ------------   -----------------  -----------------  -----------------  -----------------
           H          3.750822112614    -2.883067243477    -1.365988360293     1.007825032070
           C          3.546954112614    -1.860100243477    -1.666819360293    12.000000000000
           C          2.217334112614    -1.370573243477    -1.094412360293    12.000000000000
           H          4.370702112614    -1.243058243477    -1.320352360293     1.007825032070
           H          3.543680112614    -1.829068243477    -2.753017360293     1.007825032070
           C          1.895557112614     0.067916756523    -1.505533360293    12.000000000000
           H          2.246189112614    -1.439553243477    -0.011817360293     1.007825032070
           H          1.417290112614    -2.028278243477    -1.430634360293     1.007825032070
           C          0.561345112614     0.579667756523    -0.962159360293    12.000000000000
           H          2.688389112614     0.727707756523    -1.171260360293     1.007825032070
           H          1.868684112614     0.129570756523    -2.591128360293     1.007825032070
           C          0.552682112614     0.837290756523     0.537439639707    12.000000000000
           H          0.308026112614     1.524620756523    -1.440348360293     1.007825032070
           H         -0.247818887386    -0.102670243477    -1.212851360293     1.007825032070
           C         -0.797962887386     0.962419756523     1.220677639707    12.000000000000
           O          1.566330112614     0.956253756523     1.157738639707    15.994914619560
           C         -1.902851887386     0.121129756523     0.564465639707    12.000000000000
           H         -1.065968887386     2.011975756523     1.202799639707     1.007825032070
           H         -0.688052887386     0.663727756523     2.261536639707     1.007825032070
           C         -3.268685887386     0.345870756523     1.216078639707    12.000000000000
           H         -1.963513887386     0.370893756523    -0.492678360293     1.007825032070
           H         -1.651654887386    -0.934895243477     0.620872639707     1.007825032070
           C         -4.376714887386    -0.485957243477     0.571688639707    12.000000000000
           H         -3.525679887386     1.400541756523     1.155374639707     1.007825032070
           H         -3.205203887386     0.106266756523     2.275302639707     1.007825032070
           H         -4.485799887386    -0.244741243477    -0.481706360293     1.007825032070
           H         -4.164926887386    -1.548750243477     0.647380639707     1.007825032070
           H         -5.332339887386    -0.304396243477     1.053035639707     1.007825032070

  Charge       = 0
  Multiplicity = 1
  Basis Set: 6-31G*
  Basis Set:

    Orbital Energies (a.u.)
    -----------------------

    Doubly Occupied:

       1A    -20.546706     2A    -11.322771     3A    -11.230720
       4A    -11.230133     5A    -11.228182     6A    -11.225890
       7A    -11.216715     8A    -11.215832     9A    -11.212280
      10A    -11.205655    11A     -1.392392    12A     -1.097900
      13A     -1.076200    14A     -1.023374    15A     -0.989918
      16A     -0.905613    17A     -0.876022    18A     -0.810659
      19A     -0.800646    20A     -0.720478    21A     -0.665455
      22A     -0.659948    23A     -0.629214    24A     -0.618721
      25A     -0.609617    26A     -0.587770    27A     -0.581836
      28A     -0.573085    29A     -0.544349    30A     -0.529000
      31A     -0.525472    32A     -0.509382    33A     -0.493120
      34A     -0.487385    35A     -0.477729    36A     -0.475241
      37A     -0.470189    38A     -0.463300    39A     -0.455380
      40A     -0.391834

  @DF-RHF Final Energy:  -426.16384894367138

   => Energetics <=

    Nuclear Repulsion Energy =            537.0763892705374474
    One-Electron Energy =               -1642.3282197281823755
    Two-Electron Energy =                 679.0879815139746825
    DFT Exchange-Correlation Energy =       0.0000000000000000
    Empirical Dispersion Energy =           0.0000000000000000
    PCM Polarization Energy =               0.0000000000000000
    EFP Energy =                            0.0000000000000000
    Total Energy =                       -426.1638489436702457

  Mulliken Charges: (a.u.)
   Center  Symbol    Alpha    Beta     Spin     Total
       1     H     0.41948  0.41948  0.00000  0.16104
       2     C     3.24008  3.24008  0.00000 -0.48016
       3     C     3.15641  3.15641  0.00000 -0.31282
       4     H     0.41820  0.41820  0.00000  0.16360
       5     H     0.42362  0.42362  0.00000  0.15276
       6     C     3.14771  3.14771  0.00000 -0.29542
       7     H     0.41070  0.41070  0.00000  0.17859
       8     H     0.42792  0.42792  0.00000  0.14415
       9     C     3.21776  3.21776  0.00000 -0.43552
      10     H     0.40695  0.40695  0.00000  0.18610
      11     H     0.42226  0.42226  0.00000  0.15548
      12     C     2.72896  2.72896  0.00000  0.54208
      13     H     0.40517  0.40517  0.00000  0.18966
      14     H     0.40628  0.40628  0.00000  0.18744
      15     C     3.20101  3.20101  0.00000 -0.40202
      16     O     4.26990  4.26990  0.00000 -0.53980
      17     C     3.16844  3.16844  0.00000 -0.33689
      18     H     0.40459  0.40459  0.00000  0.19083
      19     H     0.39944  0.39944  0.00000  0.20112
      20     C     3.15091  3.15091  0.00000 -0.30183
      21     H     0.41798  0.41798  0.00000  0.16404
      22     H     0.41648  0.41648  0.00000  0.16704
      23     C     3.24003  3.24003  0.00000 -0.48005
      24     H     0.42131  0.42131  0.00000  0.15739
      25     H     0.41988  0.41988  0.00000  0.16024
      26     H     0.42120  0.42120  0.00000  0.15760
      27     H     0.42044  0.42044  0.00000  0.15912
      28     H     0.41687  0.41687  0.00000  0.16625

   Total alpha = 40.00000, Total beta = 40.00000, Total charge =  0.00000
