  ==> Input File <==

--------------------------------------------------------------------------
set {
	reference rhf
	basis 6-31G*
}

set_num_threads( 4 )
memory 2 gb

molecule MOL {
0 1

O	 -0.912621	 -1.260085	 0.734697
C	 -0.624532	 -0.158067	 0.350948
C	 -1.671110	 0.940346	 0.335150
N	 0.623947	 0.147590	 -0.102813
H	 -1.824109	 1.329219	 -0.665576
H	 -2.594487	 0.511212	 0.693292
H	 -1.390973	 1.767528	 0.978481
C	 1.665360	 -0.855771	 0.000151
C	 1.084754	 1.494127	 -0.361156
H	 2.465253	 -0.618490	 -0.692587
H	 1.257730	 -1.821716	 -0.242189
H	 2.081488	 -0.891645	 1.004627
H	 1.807279	 1.472601	 -1.168332
H	 0.275724	 2.139233	 -0.664871
H	 1.568244	 1.932275	 0.510094

	symmetry c1
}
set optking {
	frozen_dihedral = ("
		2 4 8 10
	")
}

ee = optimize('scf')
oeprop('DIPOLE', 'QUADRUPOLE', 'MULLIKEN_CHARGES')
f=open( 'psi4out.xyz', 'w' )
f.write( "15  " )
f.write( str(ee) + "\n" )
f.write( MOL.save_string_xyz() )
f.close()
--------------------------------------------------------------------------

    Molecular point group: c1
  Charge       = 0
  Multiplicity = 1
  Basis Set: 6-31G*
  Basis Set:
  @DF-RHF Final Energy:  -286.02938763032256
    Total Energy =                       -286.0293876303222191
    Molecular point group: c1
  Basis Set: 6-31G*
  Basis Set:
  Basis Set: 6-31G*
  Basis Set:
  @DF-RHF Final Energy:  -286.02957427637784
    Total Energy =                       -286.0295742763777298
  Basis Set: 6-31G*
  Basis Set:
  Basis Set: 6-31G*
  Basis Set:
  @DF-RHF Final Energy:  -286.02958179025961
    Total Energy =                       -286.0295817902595559
  Basis Set: 6-31G*
  Basis Set:
  Basis Set: 6-31G*
  Basis Set:
  @DF-RHF Final Energy:  -286.02965134102146
    Total Energy =                       -286.0296513410213493
  Basis Set: 6-31G*
  Basis Set:
  Basis Set: 6-31G*
  Basis Set:
  @DF-RHF Final Energy:  -286.02966174974688
    Total Energy =                       -286.0296617497467082
  Basis Set: 6-31G*
  Basis Set:
  Basis Set: 6-31G*
  Basis Set:
  @DF-RHF Final Energy:  -286.02966537632471
    Total Energy =                       -286.0296653763248287
  Basis Set: 6-31G*
  Basis Set:
  Basis Set: 6-31G*
  Basis Set:
  @DF-RHF Final Energy:  -286.02966640277646
    Total Energy =                       -286.0296664027764564
  Basis Set: 6-31G*
  Basis Set:
  Charge       = 0
  Multiplicity = 1
  Basis Set: 6-31G*
  Basis Set:

    Orbital Energies (a.u.)
    -----------------------

    Doubly Occupied:

       1A    -20.515566     2A    -15.583256     3A    -11.340769
       4A    -11.266456     5A    -11.248042     6A    -11.228463
       7A     -1.385228     8A     -1.242863     9A     -1.014011
      10A     -0.972752    11A     -0.918146    12A     -0.737443
      13A     -0.680529    14A     -0.658511    15A     -0.651337
      16A     -0.588785    17A     -0.576377    18A     -0.568992
      19A     -0.562586    20A     -0.545965    21A     -0.529935
      22A     -0.501493    23A     -0.411183    24A     -0.367438

  @DF-RHF Final Energy:  -286.02966682051948

   => Energetics <=

    Nuclear Repulsion Energy =            252.5472610050334765
    One-Electron Energy =                -888.9616037925328556
    Two-Electron Energy =                 350.3846759669800690
    DFT Exchange-Correlation Energy =       0.0000000000000000
    Empirical Dispersion Energy =           0.0000000000000000
    PCM Polarization Energy =               0.0000000000000000
    EFP Energy =                            0.0000000000000000
    Total Energy =                       -286.0296668205193669
    Molecular point group: c1
  Basis Set: 6-31G*
  Basis Set:

  -Total Gradient:
     Atom            X                  Y                   Z
    ------   -----------------  -----------------  -----------------
       1        0.000000110099     0.000010959857    -0.000002722355
       2        0.000138250985     0.000172737137     0.000431645251
       3       -0.000020546097    -0.000013574354    -0.000056273212
       4       -0.000153928016    -0.000158519841    -0.000511359775
       5        0.000000816777     0.000001243170     0.000017506434
       6       -0.000007498351     0.000005565049     0.000005492120
       7        0.000006552620    -0.000006562331     0.000017829140
       8       -0.000270363567    -0.000299892645    -0.000287891569
       9        0.000032312824    -0.000001522477    -0.000020990039
      10        0.000260421596     0.000310243927     0.000382587470
      11        0.000006410023    -0.000007058531     0.000006959425
      12        0.000009762649    -0.000001687982     0.000000643747
      13       -0.000006925508     0.000000215534    -0.000011602427
      14       -0.000000678088    -0.000003013759     0.000018464401
      15        0.000005302053    -0.000009132754     0.000009711388

  **** Optimization is complete! (in 8 steps) ****
    Final optimized geometry and variables:
    Molecular point group: c1

    Geometry (in Angstrom), charge = 0, multiplicity = 1:

    O           -0.920860425696    -1.305042677209     0.608287698493
    C           -0.657429789296    -0.209410053206     0.191122572841
    C           -1.715791755815     0.876907069430     0.169479117963
    N            0.578872357064     0.090868536303    -0.300881335602
    H           -1.860875079279     1.273823812920    -0.829044906262
    H           -2.638644204735     0.436594869607     0.515513674578
    H           -1.450488080466     1.700558264653     0.823972178304
    C            1.610366463103    -0.921325385525    -0.165558858194
    C            1.044869500968     1.444284797862    -0.515962604224
    H            2.398521842269    -0.717665368933    -0.879710836862
    H            1.193450236088    -1.895405235410    -0.360481354436
    H            2.042454022060    -0.925401784960     0.832316751706
    H            1.775132503920     1.445799823455    -1.315668945903
    H            0.237318787352     2.095366586968    -0.811327347941
    H            1.516900517941     1.861183343102     0.372150996103

  Mulliken Charges: (a.u.)
   Center  Symbol    Alpha    Beta     Spin     Total
       1     O     4.30311  4.30311  0.00000 -0.60622
       2     C     2.62544  2.62544  0.00000  0.74912
       3     C     3.29822  3.29822  0.00000 -0.59644
       4     N     3.82211  3.82211  0.00000 -0.64422
       5     H     0.40653  0.40653  0.00000  0.18695
       6     H     0.39064  0.39064  0.00000  0.21872
       7     H     0.40755  0.40755  0.00000  0.18491
       8     C     3.14066  3.14066  0.00000 -0.28132
       9     C     3.14281  3.14281  0.00000 -0.28561
      10     H     0.41943  0.41943  0.00000  0.16113
      11     H     0.39138  0.39138  0.00000  0.21724
      12     H     0.41761  0.41761  0.00000  0.16478
      13     H     0.41000  0.41000  0.00000  0.18001
      14     H     0.40735  0.40735  0.00000  0.18531
      15     H     0.41717  0.41717  0.00000  0.16566

   Total alpha = 24.00000, Total beta = 24.00000, Total charge = -0.00000
