                              Psi4 1.0.54 Driver

  ==> Input File <==

--------------------------------------------------------------------------
set {
	reference rhf
	basis cc-pvtz
}

set_num_threads( 4 )
memory 2 gb

molecule MOL {
0 1

H	 -3.093182	 -0.664444	 1.518548
O	 -2.448659	 -0.997060	 0.912186
C	 -1.386951	 -0.196671	 0.945207
C	 -0.310616	 -0.658853	 0.000791
O	 -1.338334	 0.755169	 1.644926
C	 0.926581	 0.227233	 0.000178
H	 -0.755865	 -0.715841	 -0.987254
H	 -0.064555	 -1.680241	 0.272709
C	 2.220156	 -0.582071	 -0.000088
H	 0.899945	 0.878221	 -0.866390
H	 0.900542	 0.878581	 0.866486
C	 3.466689	 0.296012	 -0.000457
H	 2.239073	 -1.234095	 -0.869382
H	 2.239505	 -1.233985	 0.869270
H	 3.493549	 0.935857	 -0.875887
H	 4.368821	 -0.304526	 -0.001199
H	 3.494559	 0.935166	 0.875458

	symmetry c1
}
set optking {
	frozen_dihedral = ("
		7 4 6 10
	")
}

ee,wfn = optimize('scf', return_wfn=True)
oeprop( wfn, 'DIPOLE', 'QUADRUPOLE', 'MULLIKEN_CHARGES')
f=open( 'psi4out.xyz', 'w' )
f.write( "17  " )
f.write( str(ee) + "\n" )
f.write( MOL.save_string_xyz() )
f.close()
--------------------------------------------------------------------------

    Molecular point group: c1
  Charge       = 0
  Multiplicity = 1
  Basis Set: CC-PVTZ
  Basis Set:
  @DF-RHF Final Energy:  -345.04486792865549
    Total Energy =                       -345.0448679286555489
    Molecular point group: c1
  Basis Set: CC-PVTZ
  Basis Set:
  Basis Set: CC-PVTZ
  Basis Set:
  @DF-RHF Final Energy:  -345.04509967867040
    Total Energy =                       -345.0450996786704536
  Basis Set: CC-PVTZ
  Basis Set:
  Basis Set: CC-PVTZ
  Basis Set:
  @DF-RHF Final Energy:  -345.04398290549784
    Total Energy =                       -345.0439829054978986
  Basis Set: CC-PVTZ
  Basis Set:
  Basis Set: CC-PVTZ
  Basis Set:
  @DF-RHF Final Energy:  -345.04522359172734
    Total Energy =                       -345.0452235917271082
  Basis Set: CC-PVTZ
  Basis Set:
  Basis Set: CC-PVTZ
  Basis Set:
  @DF-RHF Final Energy:  -345.04523413022491
    Total Energy =                       -345.0452341302247987
  Basis Set: CC-PVTZ
  Basis Set:
  Basis Set: CC-PVTZ
  Basis Set:
  @DF-RHF Final Energy:  -345.04523672568320
    Total Energy =                       -345.0452367256829689
  Basis Set: CC-PVTZ
  Basis Set:
  Charge       = 0
  Multiplicity = 1
  Basis Set: CC-PVTZ
  Basis Set:

    Orbital Energies (a.u.)
    -----------------------

    Doubly Occupied:

       1A    -20.604188     2A    -20.541298     3A    -11.374246
       4A    -11.239575     5A    -11.220420     6A    -11.219638
       7A    -11.209942     8A     -1.478131     9A     -1.369516
      10A     -1.090715    11A     -1.019177    12A     -0.915013
      13A     -0.825031    14A     -0.790028    15A     -0.704778
      16A     -0.692559    17A     -0.664701    18A     -0.631377
      19A     -0.591700    20A     -0.585139    21A     -0.579296
      22A     -0.532385    23A     -0.514731    24A     -0.485281
      25A     -0.482607    26A     -0.473880    27A     -0.469774
      28A     -0.447618

  @DF-RHF Final Energy:  -345.04523769156259

   => Energetics <=

    Nuclear Repulsion Energy =            305.1355210628657346
    One-Electron Energy =               -1074.8560293834782442
    Two-Electron Energy =                 424.6752706290503738
    DFT Exchange-Correlation Energy =       0.0000000000000000
    Empirical Dispersion Energy =           0.0000000000000000
    PCM Polarization Energy =               0.0000000000000000
    EFP Energy =                            0.0000000000000000
    Total Energy =                       -345.0452376915620789
    Molecular point group: c1
  Basis Set: CC-PVTZ
  Basis Set:

  -Total Gradient:
     Atom            X                  Y                   Z
    ------   -----------------  -----------------  -----------------
       1       -0.000033654287    -0.000008771880     0.000003725457
       2        0.000001361310     0.000033152368     0.000046684341
       3        0.000070719451     0.000015118393    -0.000019078750
       4        0.002403183985    -0.003309467226    -0.001119915323
       5       -0.000045471401    -0.000016901608    -0.000016573641
       6       -0.002110615091     0.002966410161     0.002021673159
       7       -0.001599224741     0.002275534329     0.000612145546
       8        0.000012710653     0.000011404939    -0.000028701753
       9       -0.000014016440    -0.000029808394    -0.000003900797
      10        0.001332752317    -0.001927164053    -0.001512173370
      11       -0.000019298819    -0.000004890954     0.000005050270
      12       -0.000007164872     0.000004300060     0.000012361081
      13        0.000001562693     0.000003163845     0.000005132436
      14        0.000017967957    -0.000002230672    -0.000007099770
      15       -0.000005557339    -0.000007062369     0.000005197590
      16       -0.000004077821    -0.000002683668     0.000002365021
      17       -0.000001177558    -0.000000103275    -0.000006891499

  **** Optimization is complete! (in 7 steps) ****
    Final optimized geometry and variables:
    Molecular point group: c1

    Geometry (in Angstrom), charge = 0, multiplicity = 1:

    H           -3.223083076806    -0.509989068236     1.016667861347
    O           -2.574243102828    -0.832744503503     0.409629218396
    C           -1.511576719881    -0.034457794071     0.465882570510
    C           -0.429892416310    -0.493810645444    -0.478833272592
    O           -1.470644275709     0.903665899682     1.184249384774
    C            0.814537307321     0.398803496104    -0.499605744631
    H           -0.898554584578    -0.551472370954    -1.454500068099
    H           -0.190063876245    -1.513165817997    -0.197599000422
    C            2.112330936900    -0.404714668421    -0.571683316473
    H            0.770809931381     1.053535356159    -1.363267350056
    H            0.822506160236     1.029614427978     0.378080025192
    C            3.351581155533     0.479953250303    -0.642070577068
    H            2.087378179812    -1.060058695650    -1.438552468230
    H            2.180285840388    -1.052219820207     0.298349726095
    H            3.331242970073     1.112564282099    -1.523158057326
    H            4.256287437279    -0.115327606983    -0.683277421631
    H            3.418808015467     1.126609286914     0.226128147912

  Mulliken Charges: (a.u.)
   Center  Symbol    Alpha    Beta     Spin     Total
       1     H     0.38258  0.38258  0.00000  0.23484
       2     O     4.16019  4.16019  0.00000 -0.32037
       3     C     2.80094  2.80094  0.00000  0.39813
       4     C     3.11598  3.11598  0.00000 -0.23196
       5     O     4.19038  4.19038  0.00000 -0.38076
       6     C     3.09121  3.09121  0.00000 -0.18241
       7     H     0.43390  0.43390  0.00000  0.13220
       8     H     0.43710  0.43710  0.00000  0.12581
       9     C     3.08696  3.08696  0.00000 -0.17392
      10     H     0.45236  0.45236  0.00000  0.09529
      11     H     0.43525  0.43525  0.00000  0.12950
      12     C     3.14960  3.14960  0.00000 -0.29919
      13     H     0.45399  0.45399  0.00000  0.09202
      14     H     0.45399  0.45399  0.00000  0.09202
      15     H     0.45482  0.45482  0.00000  0.09036
      16     H     0.44810  0.44810  0.00000  0.10380
      17     H     0.45267  0.45267  0.00000  0.09465

   Total alpha = 28.00000, Total beta = 28.00000, Total charge = -0.00000

*** Psi4 exiting successfully. Buy a developer a beer!
