  ==> Input File <==

--------------------------------------------------------------------------
set {
	reference rhf
	basis cc-pvtz
}

set_num_threads( 4 )
memory 2 gb

molecule MOL {
0 1

H	 1.036454	 -0.539356	 -1.516002
O	 1.233408	 0.350516	 -1.284076
C	 0.706474	 0.636793	 -0.025501
C	 -0.793473	 0.591216	 0.050087
H	 1.046254	 1.633639	 0.229742
H	 1.116820	 -0.032747	 0.728179
C	 -1.534243	 -0.493009	 -0.013340
H	 -1.266611	 1.552628	 0.164437
H	 -1.101195	 -1.466332	 -0.144046
H	 -2.604242	 -0.437780	 0.050785

	symmetry c1
}
set optking {
	frozen_dihedral = ("
		5 3 4 7
	")
}

ee = optimize('scf')
oeprop('DIPOLE', 'QUADRUPOLE', 'MULLIKEN_CHARGES')
f=open( 'psi4out.xyz', 'w' )
f.write( "10  " )
f.write( str(ee) + "\n" )
f.write( MOL.save_string_xyz() )
f.close()
--------------------------------------------------------------------------

    Molecular point group: c1
  Charge       = 0
  Multiplicity = 1
  Basis Set: CC-PVTZ
  Basis Set:
  @DF-RHF Final Energy:  -191.99263351181818
    Total Energy =                       -191.9926335118181839
    Molecular point group: c1
  Basis Set: CC-PVTZ
  Basis Set:
  Basis Set: CC-PVTZ
  Basis Set:
  @DF-RHF Final Energy:  -191.99356521836859
    Total Energy =                       -191.9935652183685590
  Basis Set: CC-PVTZ
  Basis Set:
  Basis Set: CC-PVTZ
  Basis Set:
  @DF-RHF Final Energy:  -191.99381307233921
    Total Energy =                       -191.9938130723391225
  Basis Set: CC-PVTZ
  Basis Set:
  Basis Set: CC-PVTZ
  Basis Set:
  @DF-RHF Final Energy:  -191.99384875730789
    Total Energy =                       -191.9938487573079442
  Basis Set: CC-PVTZ
  Basis Set:
  Basis Set: CC-PVTZ
  Basis Set:
  @DF-RHF Final Energy:  -191.99385579484391
    Total Energy =                       -191.9938557948439097
  Basis Set: CC-PVTZ
  Basis Set:
  Charge       = 0
  Multiplicity = 1
  Basis Set: CC-PVTZ
  Basis Set:

    Orbital Energies (a.u.)
    -----------------------

    Doubly Occupied:

       1A    -20.548514     2A    -11.275635     3A    -11.234301
       4A    -11.227951     5A     -1.366777     6A     -1.067549
       7A     -0.928130     8A     -0.777016     9A     -0.702957
      10A     -0.637707    11A     -0.628372    12A     -0.586652
      13A     -0.540806    14A     -0.494961    15A     -0.441893
      16A     -0.381120

  @DF-RHF Final Energy:  -191.99385664834728

   => Energetics <=

    Nuclear Repulsion Energy =            118.5846832411611445
    One-Electron Energy =                -495.4763975405722931
    Two-Electron Energy =                 184.8978576510639869
    DFT Exchange-Correlation Energy =       0.0000000000000000
    Empirical Dispersion Energy =           0.0000000000000000
    PCM Polarization Energy =               0.0000000000000000
    EFP Energy =                            0.0000000000000000
    Total Energy =                       -191.9938566483471618
    Molecular point group: c1
  Basis Set: CC-PVTZ
  Basis Set:

  -Total Gradient:
     Atom            X                  Y                   Z
    ------   -----------------  -----------------  -----------------
       1        0.000045559331    -0.000051847231     0.000022266922
       2       -0.000041051009     0.000041217859    -0.000099958644
       3       -0.000002093683    -0.001062748608     0.003207609034
       4        0.000111986239    -0.000153911781     0.004596770827
       5       -0.000066059382     0.000967499058    -0.003940968060
       6       -0.000003963703    -0.000023170914    -0.000014757596
       7       -0.000072493674     0.000266885242    -0.003756511041
       8        0.000013846811     0.000013490950    -0.000013207473
       9        0.000008958002     0.000005419576    -0.000005659674
      10        0.000005311067    -0.000002834150     0.000004415706

  **** Optimization is complete! (in 6 steps) ****
    Final optimized geometry and variables:
    Molecular point group: c1

    Geometry (in Angstrom), charge = 0, multiplicity = 1:

    H            0.847677325419    -0.684582631645    -1.260065079127
    O            1.256777540376     0.086039027796    -0.911012944848
    C            0.739186826427     0.361094267376     0.365952439218
    C           -0.772291165168     0.346624279241     0.393450231669
    H            1.103474917385     1.349893656880     0.602375457120
    H            1.135141786688    -0.338300412370     1.095729493574
    C           -1.492029169043    -0.752973612717     0.332912898068
    H           -1.270137702951     1.300240222501     0.387061817950
    H           -1.038339257977    -1.729610348859     0.335924132737
    H           -2.564285258374    -0.724297975496     0.291396370210

  Mulliken Charges: (a.u.)
   Center  Symbol    Alpha    Beta     Spin     Total
       1     H     0.39302  0.39302  0.00000  0.21395
       2     O     4.20076  4.20076  0.00000 -0.40152
       3     C     2.95367  2.95367  0.00000  0.09266
       4     C     3.07865  3.07865  0.00000 -0.15731
       5     H     0.45489  0.45489  0.00000  0.09022
       6     H     0.46817  0.46817  0.00000  0.06366
       7     C     3.17751  3.17751  0.00000 -0.35503
       8     H     0.41836  0.41836  0.00000  0.16328
       9     H     0.43009  0.43009  0.00000  0.13983
      10     H     0.42487  0.42487  0.00000  0.15026

   Total alpha = 16.00000, Total beta = 16.00000, Total charge = -0.00000
