  ==> Input File <==

--------------------------------------------------------------------------
set {
	reference rhf
	basis 6-31G*
}

set_num_threads( 4 )
memory 2 gb

molecule MOL {
0 1

H	 -4.241418	 0.509019	 0.089437
O	 -3.520048	 -0.043603	 -0.175403
C	 -2.310112	 0.513431	 0.269973
C	 -1.177863	 -0.397191	 -0.171080
H	 -2.170930	 1.510122	 -0.146612
H	 -2.309391	 0.610492	 1.354832
C	 0.198102	 0.111031	 0.262842
H	 -1.217678	 -0.492862	 -1.252741
H	 -1.357470	 -1.388113	 0.236708
C	 1.331804	 -0.827780	 -0.158768
H	 0.361943	 1.100838	 -0.156218
H	 0.217265	 0.229072	 1.345532
C	 2.723619	 -0.410569	 0.329459
H	 1.342964	 -0.912588	 -1.244120
H	 1.116806	 -1.824343	 0.220779
C	 3.243875	 0.895854	 -0.272975
H	 3.424222	 -1.207124	 0.091250
H	 2.714788	 -0.329854	 1.414619
H	 3.251977	 0.848779	 -1.358681
H	 2.637085	 1.747371	 0.016682
H	 4.259473	 1.094070	 0.055697

	symmetry c1
}
set optking {
	frozen_dihedral = ("
		8 4 7 10
	")
}

ee = optimize('scf')
oeprop('DIPOLE', 'QUADRUPOLE', 'MULLIKEN_CHARGES')
f=open( 'psi4out.xyz', 'w' )
f.write( "21  " )
f.write( str(ee) + "\n" )
f.write( MOL.save_string_xyz() )
f.close()
--------------------------------------------------------------------------

    Molecular point group: c1
  Charge       = 0
  Multiplicity = 1
  Basis Set: 6-31G*
  Basis Set:
  @DF-RHF Final Energy:  -310.21282997251598
    Total Energy =                       -310.2128299725156353
    Molecular point group: c1
  Basis Set: 6-31G*
  Basis Set:
  Charge       = 0
  Multiplicity = 1
  Basis Set: 6-31G*
  Basis Set:

    Orbital Energies (a.u.)
    -----------------------

    Doubly Occupied:

       1A    -20.551832     2A    -11.267031     3A    -11.215700
       4A    -11.215167     5A    -11.213599     6A    -11.210673
       7A    -11.208206     8A     -1.358656     9A     -1.086254
      10A     -1.033218    11A     -0.954421    12A     -0.875673
      13A     -0.807151    14A     -0.779034    15A     -0.692431
      16A     -0.661621    17A     -0.621913    18A     -0.607507
      19A     -0.586681    20A     -0.568972    21A     -0.536855
      22A     -0.519751    23A     -0.510601    24A     -0.487155
      25A     -0.479355    26A     -0.460514    27A     -0.455980
      28A     -0.443130    29A     -0.433987

  @DF-RHF Final Energy:  -310.21282989428204

   => Energetics <=

    Nuclear Repulsion Energy =            312.4575070089412634
    One-Electron Energy =               -1039.6545421718246871
    Two-Electron Energy =                 416.9842052686013858
    DFT Exchange-Correlation Energy =       0.0000000000000000
    Empirical Dispersion Energy =           0.0000000000000000
    PCM Polarization Energy =               0.0000000000000000
    EFP Energy =                            0.0000000000000000
    Total Energy =                       -310.2128298942819811
    Molecular point group: c1
  Basis Set: 6-31G*
  Basis Set:

  -Total Gradient:
     Atom            X                  Y                   Z
    ------   -----------------  -----------------  -----------------
       1        0.000000924136     0.000005307690    -0.000006613609
       2        0.000004197614     0.000003317018    -0.000002594614
       3        0.000026856939    -0.000022875211    -0.000062520647
       4        0.000079761803    -0.000372858086     0.000177010242
       5       -0.000014026182     0.000016632384     0.000005474891
       6        0.000027879684    -0.000020670937    -0.000013864514
       7        0.000012657067     0.000268404631    -0.000304644031
       8       -0.000090429501     0.000284799457    -0.000020723343
       9       -0.000033149692    -0.000026488766     0.000019146343
      10       -0.000017684029    -0.000147698895     0.000220490205
      11        0.000060244414     0.000072964709     0.000033371288
      12       -0.000037406470    -0.000043904371    -0.000025410324
      13        0.000013152435     0.000001645618    -0.000047185821
      14       -0.000033787155    -0.000016084868     0.000010820573
      15        0.000039717560    -0.000006323074     0.000020356237
      16       -0.000002912394    -0.000000307895     0.000009120894
      17        0.000005760497     0.000004851400    -0.000008628916
      18       -0.000009580360    -0.000009948188    -0.000009680988
      19       -0.000000793034    -0.000001210786     0.000002233031
      20       -0.000034121027     0.000004206055     0.000005767017
      21        0.000002737702     0.000006242115    -0.000001923914

  **** Optimization is complete! (in 2 steps) ****
    Final optimized geometry and variables:
    Molecular point group: c1

    Geometry (in Angstrom), charge = 0, multiplicity = 1:

    H           -4.237926599070     0.523937755871     0.065886214610
    O           -3.516882543946    -0.029737029180    -0.197658601170
    C           -2.308070031205     0.518547780259     0.261414265659
    C           -1.176311117196    -0.393269009321    -0.178414361708
    H           -2.161716023458     1.518083305894    -0.145881899202
    H           -2.315090909626     0.606641841651     1.346985432190
    C            0.198863632137     0.110896977809     0.262792429241
    H           -1.212406514569    -0.482197164285    -1.260758268518
    H           -1.360308678884    -1.385550414168     0.224079451861
    C            1.333078982592    -0.826377545029    -0.160891661443
    H            0.364427549534     1.103805031117    -0.148089836672
    H            0.215123289066     0.220540718021     1.346444584368
    C            2.725979505466    -0.403964080842     0.319731574436
    H            1.339700390519    -0.914693363774    -1.246029391347
    H            1.122284362936    -1.822206349849     0.222833228396
    C            3.239414690639     0.902805404479    -0.287796356041
    H            3.427833934504    -1.198868269382     0.079722069583
    H            2.722131673594    -0.321109029497     1.404764046713
    H            3.242151815699     0.853656700345    -1.373430994358
    H            2.631614099964     1.753110655016     0.003293495805
    H            4.256084133159     1.104610312007     0.035339508020

  Mulliken Charges: (a.u.)
   Center  Symbol    Alpha    Beta     Spin     Total
       1     H     0.28118  0.28118  0.00000  0.43765
       2     O     4.37180  4.37180  0.00000 -0.74361
       3     C     2.98973  2.98973  0.00000  0.02053
       4     C     3.15892  3.15892  0.00000 -0.31785
       5     H     0.43297  0.43297  0.00000  0.13406
       6     H     0.43286  0.43286  0.00000  0.13427
       7     C     3.16194  3.16194  0.00000 -0.32387
       8     H     0.41471  0.41471  0.00000  0.17059
       9     H     0.41486  0.41486  0.00000  0.17027
      10     C     3.15175  3.15175  0.00000 -0.30349
      11     H     0.42136  0.42136  0.00000  0.15728
      12     H     0.42425  0.42425  0.00000  0.15151
      13     C     3.15251  3.15251  0.00000 -0.30503
      14     H     0.42301  0.42301  0.00000  0.15397
      15     H     0.42097  0.42097  0.00000  0.15807
      16     C     3.24117  3.24117  0.00000 -0.48235
      17     H     0.42061  0.42061  0.00000  0.15878
      18     H     0.42357  0.42357  0.00000  0.15285
      19     H     0.42194  0.42194  0.00000  0.15611
      20     H     0.42065  0.42065  0.00000  0.15870
      21     H     0.41923  0.41923  0.00000  0.16154

   Total alpha = 29.00000, Total beta = 29.00000, Total charge = -0.00000
