                              Psi4 1.0.54 Driver

  ==> Input File <==

--------------------------------------------------------------------------
set {
	reference rhf
	basis cc-pvtz
}

set_num_threads( 4 )
memory 2 gb

molecule MOL {
0 1

H	 2.454793	 -0.997430	 -0.523312
O	 1.722121	 -0.446173	 -0.726690
C	 1.215083	 0.136088	 0.446297
C	 0.027642	 1.012027	 0.090274
H	 1.976134	 0.747537	 0.924522
H	 0.923777	 -0.633137	 1.156153
C	 -1.138737	 0.285728	 -0.581921
H	 0.378399	 1.800139	 -0.568024
H	 -0.317017	 1.494007	 1.001932
C	 -1.933983	 -0.631436	 0.343653
H	 -0.763151	 -0.285569	 -1.422081
H	 -1.808359	 1.035291	 -0.992333
H	 -2.789188	 -1.049673	 -0.174718
H	 -1.335629	 -1.461368	 0.700418
H	 -2.305435	 -0.092167	 1.209725

	symmetry c1
}
set optking {
	frozen_dihedral = ("
		8 4 7 11
	")
}

ee,wfn = optimize('scf', return_wfn=True)
oeprop( wfn, 'DIPOLE', 'QUADRUPOLE', 'MULLIKEN_CHARGES')
f=open( 'psi4out.xyz', 'w' )
f.write( "15  " )
f.write( str(ee) + "\n" )
f.write( MOL.save_string_xyz() )
f.close()
--------------------------------------------------------------------------

    Molecular point group: c1
  Charge       = 0
  Multiplicity = 1
  Basis Set: CC-PVTZ
  Basis Set:
  @DF-RHF Final Energy:  -232.23744645655430
    Total Energy =                       -232.2374464565541530
    Molecular point group: c1
  Basis Set: CC-PVTZ
  Basis Set:
  Basis Set: CC-PVTZ
  Basis Set:
  @DF-RHF Final Energy:  -232.23746878288893
    Total Energy =                       -232.2374687828888113
  Basis Set: CC-PVTZ
  Basis Set:
  Basis Set: CC-PVTZ
  Basis Set:
  @DF-RHF Final Energy:  -232.23750836892663
    Total Energy =                       -232.2375083689262851
  Basis Set: CC-PVTZ
  Basis Set:
  Charge       = 0
  Multiplicity = 1
  Basis Set: CC-PVTZ
  Basis Set:

    Orbital Energies (a.u.)
    -----------------------

    Doubly Occupied:

       1A    -20.546497     2A    -11.265629     3A    -11.210868
       4A    -11.207362     5A    -11.203547     6A     -1.364365
       7A     -1.065555     8A     -0.971988     9A     -0.868460
      10A     -0.777012    11A     -0.707003    12A     -0.650272
      13A     -0.608676    14A     -0.575479    15A     -0.566128
      16A     -0.534093    17A     -0.509897    18A     -0.476005
      19A     -0.468779    20A     -0.453590    21A     -0.432992

  @DF-RHF Final Energy:  -232.23750884795118

   => Energetics <=

    Nuclear Repulsion Energy =            191.4086292594292900
    One-Electron Energy =                -694.3638767406109764
    Two-Electron Energy =                 270.7177386332305105
    DFT Exchange-Correlation Energy =       0.0000000000000000
    Empirical Dispersion Energy =           0.0000000000000000
    PCM Polarization Energy =               0.0000000000000000
    EFP Energy =                            0.0000000000000000
    Total Energy =                       -232.2375088479511760
    Molecular point group: c1
  Basis Set: CC-PVTZ
  Basis Set:

  -Total Gradient:
     Atom            X                  Y                   Z
    ------   -----------------  -----------------  -----------------
       1       -0.000001026166     0.000017260436     0.000017281002
       2       -0.000040558852     0.000027948622     0.000013187147
       3       -0.000005882248    -0.000029578691     0.000002853971
       4        0.000854734839    -0.001007727334    -0.000407511763
       5       -0.000005235416    -0.000001150673    -0.000015730987
       6       -0.000005270098    -0.000012600488     0.000009968247
       7       -0.000330466564     0.001140733672    -0.000658937790
       8       -0.000652697691     0.000663361681     0.000400112685
       9        0.000003129493    -0.000012803125     0.000004795394
      10        0.000015334130    -0.000004404412     0.000012597713
      11        0.000149994775    -0.000780043521     0.000624099855
      12        0.000008881410     0.000009751043    -0.000002736258
      13        0.000007137034     0.000005527319    -0.000000077202
      14       -0.000003699348    -0.000008190747     0.000008383902
      15        0.000005624702    -0.000008083783    -0.000008285914

  **** Optimization is complete! (in 4 steps) ****
    Final optimized geometry and variables:
    Molecular point group: c1

    Geometry (in Angstrom), charge = 0, multiplicity = 1:

    H            2.428828593036    -1.053580063535    -0.407779776359
    O            1.709155436397    -0.490965924307    -0.625561808025
    C            1.177135510374     0.085648121368     0.539060950891
    C            0.003540182688     0.970269798682     0.160383425208
    H            1.930140370639     0.689049357447     1.039591867941
    H            0.864405934466    -0.687382910962     1.235849871847
    C           -1.169506224901     0.242869978832    -0.499765461573
    H            0.366234782727     1.744157024956    -0.507948685319
    H           -0.339927443146     1.474947370480     1.060250117361
    C           -1.961859476317    -0.656320681894     0.446497192889
    H           -0.798134587398    -0.347039159006    -1.328894989906
    H           -1.839827111759     0.986081411130    -0.919288398652
    H           -2.801506364509    -1.109776684763    -0.067724403551
    H           -1.353959460889    -1.461214852222     0.843268009405
    H           -2.355260050224    -0.093003077149     1.286888029135

  Mulliken Charges: (a.u.)
   Center  Symbol    Alpha    Beta     Spin     Total
       1     H     0.39560  0.39560  0.00000  0.20879
       2     O     4.19872  4.19872  0.00000 -0.39744
       3     C     2.97399  2.97399  0.00000  0.05202
       4     C     3.09376  3.09376  0.00000 -0.18752
       5     H     0.46414  0.46414  0.00000  0.07172
       6     H     0.47314  0.47314  0.00000  0.05372
       7     C     3.08803  3.08803  0.00000 -0.17607
       8     H     0.44798  0.44798  0.00000  0.10405
       9     H     0.45570  0.45570  0.00000  0.08860
      10     C     3.15288  3.15288  0.00000 -0.30576
      11     H     0.44605  0.44605  0.00000  0.10790
      12     H     0.45064  0.45064  0.00000  0.09873
      13     H     0.44707  0.44707  0.00000  0.10587
      14     H     0.45522  0.45522  0.00000  0.08955
      15     H     0.45708  0.45708  0.00000  0.08584

   Total alpha = 21.00000, Total beta = 21.00000, Total charge = -0.00000

*** Psi4 exiting successfully. Buy a developer a beer!
