  ==> Input File <==

--------------------------------------------------------------------------
set {
	reference rhf
	basis cc-pvtz
}

set_num_threads( 4 )
memory 2 gb

molecule MOL {
0 1

H	 1.357882	 -1.360836	 -0.000000
C	 0.788096	 -0.429819	 0.000000
N	 -0.537714	 -0.645117	 0.000000
O	 1.323889	 0.633028	 0.000000
C	 -1.522613	 0.412524	 0.000000
H	 -0.845894	 -1.585866	 0.000000
H	 -2.150256	 0.356137	 -0.880771
H	 -1.005621	 1.357208	 0.000000
H	 -2.150256	 0.356137	 0.880771

	symmetry c1
}
set optking {
	frozen_dihedral = ("
		1 2 3 6
	")
}

ee = optimize('scf')
oeprop('DIPOLE', 'QUADRUPOLE', 'MULLIKEN_CHARGES')
f=open( 'psi4out.xyz', 'w' )
f.write( "9  " )
f.write( str(ee) + "\n" )
f.write( MOL.save_string_xyz() )
f.close()
--------------------------------------------------------------------------

    Molecular point group: c1
  Charge       = 0
  Multiplicity = 1
  Basis Set: CC-PVTZ
  Basis Set:
  @DF-RHF Final Energy:  -208.04356668344408
    Total Energy =                       -208.0435666834439985
    Molecular point group: c1
  Basis Set: CC-PVTZ
  Basis Set:
  Charge       = 0
  Multiplicity = 1
  Basis Set: CC-PVTZ
  Basis Set:

    Orbital Energies (a.u.)
    -----------------------

    Doubly Occupied:

       1A    -20.515812     2A    -15.585161     3A    -11.337657
       4A    -11.259119     5A     -1.393441     6A     -1.239927
       7A     -0.970566     8A     -0.808237     9A     -0.748859
      10A     -0.646331    11A     -0.629217    12A     -0.596976
      13A     -0.554667    14A     -0.542890    15A     -0.428022
      16A     -0.395750

  @DF-RHF Final Energy:  -208.04356692984874

   => Energetics <=

    Nuclear Repulsion Energy =            122.6911392114617882
    One-Electron Energy =                -526.1641470354239800
    Two-Electron Energy =                 195.4294408941133838
    DFT Exchange-Correlation Energy =       0.0000000000000000
    Empirical Dispersion Energy =           0.0000000000000000
    PCM Polarization Energy =               0.0000000000000000
    EFP Energy =                            0.0000000000000000
    Total Energy =                       -208.0435669298487937
    Molecular point group: c1
  Basis Set: CC-PVTZ
  Basis Set:

  -Total Gradient:
     Atom            X                  Y                   Z
    ------   -----------------  -----------------  -----------------
       1       -0.000023576933    -0.000016564393     0.000000000006
       2       -0.000124764074     0.000033912784    -0.000000000022
       3        0.000057629689    -0.000108275729     0.000000000004
       4        0.000045074611     0.000073869452     0.000000000008
       5        0.000025603511     0.000034777611    -0.000000000038
       6       -0.000002839552    -0.000020929284    -0.000000000000
       7        0.000004718710     0.000002204828     0.000003258348
       8        0.000013435345    -0.000001200151    -0.000000000018
       9        0.000004718694     0.000002204882    -0.000003258288

  **** Optimization is complete! (in 2 steps) ****
    Final optimized geometry and variables:
    Molecular point group: c1

    Geometry (in Angstrom), charge = 0, multiplicity = 1:

    H           -1.361189264842    -1.358482276948    -0.000000000085
    C           -0.430092345238    -0.788460810440    -0.000000000039
    N           -0.645216279766     0.537464869696    -0.000000000106
    O            0.633296260003    -1.323047650958     0.000000000174
    C            0.412542608586     1.522288313719    -0.000000000029
    H           -1.586119851207     0.845483966473    -0.000000000193
    H            0.356423148284     2.150041213676    -0.880769755242
    H            1.357414298947     1.005358694595    -0.000000000331
    H            0.356423148461     2.150041213514     0.880769755376

  Mulliken Charges: (a.u.)
   Center  Symbol    Alpha    Beta     Spin     Total
       1     H     0.46270  0.46270  0.00000  0.07460
       2     C     2.88099  2.88099  0.00000  0.23801
       3     N     3.60831  3.60831  0.00000 -0.21662
       4     O     4.21535  4.21535  0.00000 -0.43070
       5     C     3.08128  3.08128  0.00000 -0.16256
       6     H     0.40932  0.40932  0.00000  0.18135
       7     H     0.45470  0.45470  0.00000  0.09060
       8     H     0.43264  0.43264  0.00000  0.13472
       9     H     0.45470  0.45470  0.00000  0.09060

   Total alpha = 16.00000, Total beta = 16.00000, Total charge = -0.00000
