  ==> Input File <==

--------------------------------------------------------------------------
set {
	reference rhf
	basis 6-31G*
}

set_num_threads( 1 )
memory 2 gb

molecule MOL {
0 1

O	 1.517926	 0.161294	 0.000176
C	 2.701189	 0.057885	 -0.047330
C	 3.660902	 1.130185	 -0.503301
O	 3.347903	 -1.046386	 0.304773
C	 2.963288	 2.427023	 -0.907854
H	 4.371540	 1.284595	 0.301896
H	 4.234326	 0.719908	 -1.330679
C	 3.913396	 3.488879	 -1.471990
H	 2.428994	 2.828838	 -0.052171
H	 2.207627	 2.195855	 -1.650794
C	 4.924043	 4.049695	 -0.467406
H	 3.311703	 4.310046	 -1.854577
H	 4.445643	 3.080197	 -2.329721
C	 5.774126	 5.181789	 -1.047684
H	 4.391813	 4.413370	 0.410255
H	 5.583915	 3.258623	 -0.118484
C	 6.791223	 5.746420	 -0.054288
H	 5.121305	 5.984085	 -1.387361
H	 6.298289	 4.821790	 -1.931626
C	 7.633439	 6.879064	 -0.640367
H	 6.269211	 6.105694	 0.830059
H	 7.447431	 4.946820	 0.283072
H	 8.344500	 7.258116	 0.087177
H	 7.008303	 7.709758	 -0.955562
H	 8.195072	 6.542018	 -1.507109
C	 4.728119	 -1.109107	 -0.004993
H	 4.882018	 -1.033965	 -1.071845
H	 5.068212	 -2.067527	 0.355250
H	 5.265056	 -0.311663	 0.488280

	symmetry c1
}
set optking {
	frozen_dihedral = ("
		21 17 14 11,
		17 14 11 15,
		15 11 8 5,
		6 3 5 9,
		11 8 5 9,
		2 4 26 27,
		6 3 2 1
	")
}

ee = energy('scf')
oeprop('DIPOLE', 'QUADRUPOLE', 'MULLIKEN_CHARGES')
f=open( 'psi4out.xyz', 'w' )
f.write( "29  " )
f.write( str(ee) + "\n" )
f.write( MOL.save_string_xyz() )
f.close()
--------------------------------------------------------------------------

    Molecular point group: c1

    Geometry (in Angstrom), charge = 0, multiplicity = 1:

       Center              X                  Y                   Z               Mass
    ------------   -----------------  -----------------  -----------------  -----------------
           O         -2.848858344437    -2.258205491054     0.432655856586    15.994914619560
           C         -1.665595344437    -2.361614491054     0.385149856586    12.000000000000
           C         -0.705882344437    -1.289314491054    -0.070821143414    12.000000000000
           O         -1.018881344437    -3.465885491054     0.737252856586    15.994914619560
           C         -1.403496344437     0.007523508946    -0.475374143414    12.000000000000
           H          0.004755655563    -1.134904491054     0.734375856586     1.007825032070
           H         -0.132458344437    -1.699591491054    -0.898199143414     1.007825032070
           C         -0.453388344437     1.069379508946    -1.039510143414    12.000000000000
           H         -1.937790344437     0.409338508946     0.380308856586     1.007825032070
           H         -2.159157344437    -0.223644491054    -1.218314143414     1.007825032070
           C          0.557258655563     1.630195508946    -0.034926143414    12.000000000000
           H         -1.055081344437     1.890546508946    -1.422097143414     1.007825032070
           H          0.078858655563     0.660697508946    -1.897241143414     1.007825032070
           C          1.407341655563     2.762289508946    -0.615204143414    12.000000000000
           H          0.025028655563     1.993870508946     0.842734856586     1.007825032070
           H          1.217130655563     0.839123508946     0.313995856586     1.007825032070
           C          2.424438655563     3.326920508946     0.378191856586    12.000000000000
           H          0.754520655563     3.564585508946    -0.954881143414     1.007825032070
           H          1.931504655563     2.402290508946    -1.499146143414     1.007825032070
           C          3.266654655563     4.459564508946    -0.207887143414    12.000000000000
           H          1.902426655563     3.686194508946     1.262538856586     1.007825032070
           H          3.080646655563     2.527320508946     0.715551856586     1.007825032070
           H          3.977715655563     4.838616508946     0.519656856586     1.007825032070
           H          2.641518655563     5.290258508946    -0.523082143414     1.007825032070
           H          3.828287655563     4.122518508946    -1.074629143414     1.007825032070
           C          0.361334655563    -3.528606491054     0.427486856586    12.000000000000
           H          0.515233655563    -3.453464491054    -0.639365143414     1.007825032070
           H          0.701427655563    -4.487026491054     0.787729856586     1.007825032070
           H          0.898271655563    -2.731162491054     0.920759856586     1.007825032070

  Charge       = 0
  Multiplicity = 1
  Basis Set: 6-31G*
  Basis Set:

    Orbital Energies (a.u.)
    -----------------------

    Doubly Occupied:

       1A    -20.607949     2A    -20.542695     3A    -11.374424
       4A    -11.297364     5A    -11.241533     6A    -11.222993
       7A    -11.221944     8A    -11.221051     9A    -11.219759
      10A    -11.218693    11A    -11.212327    12A     -1.468414
      13A     -1.368571    14A     -1.102694    15A     -1.070164
      16A     -1.016470    17A     -0.989057    18A     -0.950086
      19A     -0.873586    20A     -0.808874    21A     -0.795973
      22A     -0.758339    23A     -0.707946    24A     -0.701063
      25A     -0.677251    26A     -0.654692    27A     -0.628423
      28A     -0.607255    29A     -0.601570    30A     -0.589624
      31A     -0.569196    32A     -0.558772    33A     -0.549113
      34A     -0.541549    35A     -0.523601    36A     -0.514568
      37A     -0.502625    38A     -0.482245    39A     -0.474052
      40A     -0.466643    41A     -0.463373    42A     -0.449184
      43A     -0.444192    44A     -0.428228

  @DF-RHF Final Energy:  -501.01641989237226

   => Energetics <=

    Nuclear Repulsion Energy =            620.3546867012727262
    One-Electron Energy =               -1911.3058140451769304
    Two-Electron Energy =                 789.9347074515326312
    DFT Exchange-Correlation Energy =       0.0000000000000000
    Empirical Dispersion Energy =           0.0000000000000000
    PCM Polarization Energy =               0.0000000000000000
    EFP Energy =                            0.0000000000000000
    Total Energy =                       -501.0164198923716867

  Mulliken Charges: (a.u.)
   Center  Symbol    Alpha    Beta     Spin     Total
       1     O     4.27356  4.27356  0.00000 -0.54711
       2     C     2.58717  2.58717  0.00000  0.82567
       3     C     3.24894  3.24894  0.00000 -0.49789
       4     O     4.30102  4.30102  0.00000 -0.60204
       5     C     3.14866  3.14866  0.00000 -0.29731
       6     H     0.39863  0.39863  0.00000  0.20274
       7     H     0.40411  0.40411  0.00000  0.19178
       8     C     3.15661  3.15661  0.00000 -0.31323
       9     H     0.41103  0.41103  0.00000  0.17795
      10     H     0.40697  0.40697  0.00000  0.18606
      11     C     3.15425  3.15425  0.00000 -0.30851
      12     H     0.41692  0.41692  0.00000  0.16616
      13     H     0.42523  0.42523  0.00000  0.14955
      14     C     3.15029  3.15029  0.00000 -0.30058
      15     H     0.42137  0.42137  0.00000  0.15726
      16     H     0.42755  0.42755  0.00000  0.14490
      17     C     3.15148  3.15148  0.00000 -0.30296
      18     H     0.42228  0.42228  0.00000  0.15544
      19     H     0.42430  0.42430  0.00000  0.15141
      20     C     3.23946  3.23946  0.00000 -0.47892
      21     H     0.42218  0.42218  0.00000  0.15564
      22     H     0.42439  0.42439  0.00000  0.15123
      23     H     0.41878  0.41878  0.00000  0.16243
      24     H     0.42096  0.42096  0.00000  0.15808
      25     H     0.42188  0.42188  0.00000  0.15625
      26     C     3.10029  3.10029  0.00000 -0.20057
      27     H     0.41219  0.41219  0.00000  0.17563
      28     H     0.39466  0.39466  0.00000  0.21069
      29     H     0.41487  0.41487  0.00000  0.17026

   Total alpha = 44.00000, Total beta = 44.00000, Total charge = -0.00000
