                              Psi4 1.0.54 Driver

  ==> Input File <==

--------------------------------------------------------------------------
set {
	reference rhf
	basis cc-pvtz
}

set_num_threads( 4 )
memory 2 gb

molecule MOL {
0 1

O	 0.395927	 1.296676	 -0.000076
C	 0.503051	 0.114301	 -0.000074
C	 -0.701422	 -0.805636	 -0.000109
C	 1.858118	 -0.556123	 0.000212
C	 -0.729817	 -1.789856	 1.158591
H	 -1.590890	 -0.180911	 -0.000134
H	 -0.714699	 -1.328122	 -0.953142
H	 -0.740813	 -1.271239	 2.107876
H	 -1.612709	 -2.415046	 1.099469
H	 0.143138	 -2.428630	 1.146431
H	 1.961106	 -1.191101	 -0.872843
H	 2.636688	 0.191085	 -0.000109
H	 1.961070	 -1.190284	 0.873873

	symmetry c1
}
set optking {
	frozen_dihedral = ("
		6 3 2 1
	")
}

ee,wfn = optimize('scf', return_wfn=True)
oeprop( wfn, 'DIPOLE', 'QUADRUPOLE', 'MULLIKEN_CHARGES')
f=open( 'psi4out.xyz', 'w' )
f.write( "13  " )
f.write( str(ee) + "\n" )
f.write( MOL.save_string_xyz() )
f.close()
--------------------------------------------------------------------------

    Molecular point group: c1
  Charge       = 0
  Multiplicity = 1
  Basis Set: CC-PVTZ
  Basis Set:
  @DF-RHF Final Energy:  -231.08008722250943
    Total Energy =                       -231.0800872225093485
    Molecular point group: c1
  Basis Set: CC-PVTZ
  Basis Set:
  Basis Set: CC-PVTZ
  Basis Set:
  @DF-RHF Final Energy:  -230.75535092423405
    Total Energy =                       -230.7553509242340510
  Basis Set: CC-PVTZ
  Basis Set:
  Basis Set: CC-PVTZ
  Basis Set:
  @DF-RHF Final Energy:  -230.90252827415551
    Total Energy =                       -230.9025282741555429
  Basis Set: CC-PVTZ
  Basis Set:
  Basis Set: CC-PVTZ
  Basis Set:
  @DF-RHF Final Energy:  -231.05554156066003
    Total Energy =                       -231.0555415606598331
  Basis Set: CC-PVTZ
  Basis Set:
  @DF-RHF Final Energy:  -231.07909036526183
    Total Energy =                       -231.0790903652618908
  @DF-RHF Final Energy:  -231.07973082054258
    Total Energy =                       -231.0797308205425793
  @DF-RHF Final Energy:  -231.08080107016903
    Total Energy =                       -231.0808010701691728
  @DF-RHF Final Energy:  -231.08093546050466
    Total Energy =                       -231.0809354605045769
  @DF-RHF Final Energy:  -231.08096919359068
    Total Energy =                       -231.0809691935907892
  @DF-RHF Final Energy:  -231.08097432235172
    Total Energy =                       -231.0809743223516080
  Basis Set: CC-PVTZ
  Basis Set:
  @DF-RHF Final Energy:  -231.08098642821716
    Total Energy =                       -231.0809864282172157
  Basis Set: CC-PVTZ
  Basis Set:
  Basis Set: CC-PVTZ
  Basis Set:
  @DF-RHF Final Energy:  -231.08100754320347
    Total Energy =                       -231.0810075432033273
  Basis Set: CC-PVTZ
  Basis Set:
  Basis Set: CC-PVTZ
  Basis Set:
  @DF-RHF Final Energy:  -231.08101572918179
    Total Energy =                       -231.0810157291815585
  Basis Set: CC-PVTZ
  Basis Set:
  Charge       = 0
  Multiplicity = 1
  Basis Set: CC-PVTZ
  Basis Set:

    Orbital Energies (a.u.)
    -----------------------

    Doubly Occupied:

       1A    -20.538548     2A    -11.320490     3A    -11.232371
       4A    -11.228613     5A    -11.227240     6A     -1.398295
       7A     -1.068985     8A     -0.995296     9A     -0.889372
      10A     -0.734460    11A     -0.655446    12A     -0.649697
      13A     -0.616872    14A     -0.593107    15A     -0.561714
      16A     -0.544006    17A     -0.530017    18A     -0.504770
      19A     -0.487091    20A     -0.402413

  @DF-RHF Final Energy:  -231.08101781452154

   => Energetics <=

    Nuclear Repulsion Energy =            177.2524803369366282
    One-Electron Energy =                -664.3093866966604537
    Two-Electron Energy =                 255.9758885452021957
    DFT Exchange-Correlation Energy =       0.0000000000000000
    Empirical Dispersion Energy =           0.0000000000000000
    PCM Polarization Energy =               0.0000000000000000
    EFP Energy =                            0.0000000000000000
    Total Energy =                       -231.0810178145216298
    Molecular point group: c1
  Basis Set: CC-PVTZ
  Basis Set:

  -Total Gradient:
     Atom            X                  Y                   Z
    ------   -----------------  -----------------  -----------------
       1       -0.000060429544     0.000009656581    -0.000127602261
       2        0.000127727032     0.000024215359     0.000195665778
       3       -0.000170915343    -0.000008009247    -0.000244858590
       4       -0.000031450126    -0.000038952985    -0.000073020879
       5        0.000028244930    -0.000038055952    -0.000006136647
       6        0.000084076420     0.000004884314     0.000145501978
       7        0.000005888055    -0.000012395617    -0.000011828670
       8        0.000025457164     0.000028773640     0.000040809552
       9       -0.000010202705    -0.000006834870    -0.000000463668
      10       -0.000016906315     0.000000889574     0.000003875554
      11        0.000003790958     0.000028106916     0.000031362489
      12       -0.000002271485     0.000009987685     0.000021279908
      13        0.000016990960    -0.000002265401     0.000025415456

  **** Optimization is complete! (in 14 steps) ****
    Final optimized geometry and variables:
    Molecular point group: c1

    Geometry (in Angstrom), charge = 0, multiplicity = 1:

    O           -0.157711386172     1.645845248807    -0.180265190413
    C            0.006222578123     0.477089115580    -0.315014271994
    C           -0.886305219318    -0.527304210746     0.386801943357
    C            1.111624364171    -0.058510571557    -1.198014829136
    C           -0.130328317017    -1.506103867410     1.287877651088
    H           -1.608655063052     0.035557178159     0.960745933243
    H           -1.426251454094    -1.081889504847    -0.376027935853
    H            0.444083717700    -0.978667943358     2.040872527282
    H           -0.829688985833    -2.154681684617     1.799786335231
    H            0.548357362719    -2.134891580312     0.725092730913
    H            0.758162992237    -0.873099563838    -1.819199670510
    H            1.496714392783     0.739083794748    -1.814495644555
    H            1.915140499161    -0.444670538690    -0.580579619198

  Mulliken Charges: (a.u.)
   Center  Symbol    Alpha    Beta     Spin     Total
       1     O     4.17121  4.17121  0.00000 -0.34242
       2     C     2.85483  2.85483  0.00000  0.29033
       3     C     3.09770  3.09770  0.00000 -0.19540
       4     C     3.16114  3.16114  0.00000 -0.32228
       5     C     3.15645  3.15645  0.00000 -0.31290
       6     H     0.43743  0.43743  0.00000  0.12515
       7     H     0.44957  0.44957  0.00000  0.10087
       8     H     0.44690  0.44690  0.00000  0.10621
       9     H     0.44223  0.44223  0.00000  0.11555
      10     H     0.45269  0.45269  0.00000  0.09463
      11     H     0.44959  0.44959  0.00000  0.10081
      12     H     0.43268  0.43268  0.00000  0.13464
      13     H     0.44759  0.44759  0.00000  0.10482

   Total alpha = 20.00000, Total beta = 20.00000, Total charge =  0.00000

*** Psi4 exiting successfully. Buy a developer a beer!
