  ==> Input File <==

--------------------------------------------------------------------------
set {
	reference rhf
	basis cc-pvtz
}

set_num_threads( 4 )
memory 2 gb

molecule MOL {
0 1

H	 2.420000	 -0.075000	 -0.000000
O	 1.663000	 -0.653000	 -0.000000
C	 0.566000	 0.103000	 0.000000
C	 -0.688000	 -0.734000	 0.000000
O	 0.614000	 1.290000	 0.000000
C	 -1.962000	 0.102000	 -0.000000
H	 -0.641000	 -1.387000	 -0.866000
H	 -0.641000	 -1.386000	 0.867000
H	 -2.010000	 0.739000	 -0.875000
H	 -2.832000	 -0.546000	 0.000000
H	 -2.010000	 0.739000	 0.874000

	symmetry c1
}
ee = optimize('scf')
oeprop('DIPOLE', 'QUADRUPOLE', 'MULLIKEN_CHARGES')
f=open( 'psi4out.xyz', 'w' )
f.write( "11  " )
f.write( str(ee) + "\n" )
f.write( MOL.save_string_xyz() )
f.close()
--------------------------------------------------------------------------

    Molecular point group: c1
  Charge       = 0
  Multiplicity = 1
  Basis Set: CC-PVTZ
  Basis Set:
  @DF-RHF Final Energy:  -266.95316562513563
    Total Energy =                       -266.9531656251356253
    Molecular point group: c1
  Basis Set: CC-PVTZ
  Basis Set:
  Basis Set: CC-PVTZ
  Basis Set:
  @DF-RHF Final Energy:  -266.95331777858280
    Total Energy =                       -266.9533177785830276
  Basis Set: CC-PVTZ
  Basis Set:
  Charge       = 0
  Multiplicity = 1
  Basis Set: CC-PVTZ
  Basis Set:

    Orbital Energies (a.u.)
    -----------------------

    Doubly Occupied:

       1A    -20.605170     2A    -20.541676     3A    -11.374388
       4A    -11.242819     5A    -11.218724     6A     -1.478760
       7A     -1.370366     8A     -1.066521     9A     -0.918892
      10A     -0.803684    11A     -0.705847    12A     -0.693663
      13A     -0.665733    14A     -0.597632    15A     -0.596724
      16A     -0.534007    17A     -0.527115    18A     -0.505850
      19A     -0.485430    20A     -0.449001

  @DF-RHF Final Energy:  -266.95331710809660

   => Energetics <=

    Nuclear Repulsion Energy =            180.1822914000127582
    One-Electron Energy =                -721.5072155383305699
    Two-Electron Energy =                 274.3716070302212415
    DFT Exchange-Correlation Energy =       0.0000000000000000
    Empirical Dispersion Energy =           0.0000000000000000
    PCM Polarization Energy =               0.0000000000000000
    EFP Energy =                            0.0000000000000000
    Total Energy =                       -266.9533171080965417
    Molecular point group: c1
  Basis Set: CC-PVTZ
  Basis Set:

  -Total Gradient:
     Atom            X                  Y                   Z
    ------   -----------------  -----------------  -----------------
       1       -0.000196761505    -0.000062060852    -0.000006799654
       2        0.000028502956    -0.000013502650    -0.000396719335
       3        0.000164094144    -0.000173512097     0.001351302006
       4        0.000110797867     0.000004477657    -0.000420711480
       5       -0.000133669052     0.000172642993    -0.000487515510
       6       -0.000052574855     0.000076849131    -0.000018524496
       7       -0.000071897727    -0.000041299493     0.000006146118
       8        0.000073239317     0.000077928765    -0.000021558007
       9        0.000001116615    -0.000022879905     0.000020179671
      10        0.000059335442     0.000006369018    -0.000005160174
      11        0.000017816798    -0.000025012565    -0.000020639138

  **** Optimization is complete! (in 3 steps) ****
    Final optimized geometry and variables:
    Molecular point group: c1

    Geometry (in Angstrom), charge = 0, multiplicity = 1:

    H            2.339530695500    -0.109604493097    -0.003389456801
    O            1.583947599127    -0.677543767542    -0.001533197848
    C            0.489978719207     0.078084315166     0.002623076757
    C           -0.763662244996    -0.754014057827     0.000816607431
    O            0.539051355287     1.259394774651    -0.000088204486
    C           -2.038000863954     0.074705208271    -0.000832299364
    H           -0.712944817449    -1.405886165617    -0.864341789207
    H           -0.715136719352    -1.405770023180     0.866181982340
    H           -2.087267130303     0.710830694068    -0.874231772062
    H           -2.903419208979    -0.576199177750    -0.001921408890
    H           -2.089466848912     0.710908975305     0.872389591867

  Mulliken Charges: (a.u.)
   Center  Symbol    Alpha    Beta     Spin     Total
       1     H     0.38188  0.38188  0.00000  0.23623
       2     O     4.16032  4.16032  0.00000 -0.32065
       3     C     2.80303  2.80303  0.00000  0.39393
       4     C     3.10137  3.10137  0.00000 -0.20273
       5     O     4.19058  4.19058  0.00000 -0.38116
       6     C     3.13890  3.13890  0.00000 -0.27781
       7     H     0.43921  0.43921  0.00000  0.12159
       8     H     0.43937  0.43937  0.00000  0.12126
       9     H     0.44781  0.44781  0.00000  0.10438
      10     H     0.44967  0.44967  0.00000  0.10066
      11     H     0.44785  0.44785  0.00000  0.10429

   Total alpha = 20.00000, Total beta = 20.00000, Total charge = -0.00000
