  ==> Input File <==

--------------------------------------------------------------------------
set {
	reference rhf
	basis cc-pvtz
}

set_num_threads( 4 )
memory 2 gb

molecule MOL {
0 1

H	 2.798970	 0.465119	 2.223047
O	 1.879946	 0.303174	 2.335266
C	 1.217532	 0.409360	 1.166763
C	 1.858962	 0.720602	 -0.022513
C	 -0.145769	 0.196585	 1.179336
H	 2.921034	 0.886039	 -0.030492
C	 1.136941	 0.818246	 -1.194736
H	 -0.644069	 -0.043954	 2.096223
C	 -0.861704	 0.296439	 0.000000
H	 1.643900	 1.059624	 -2.108822
C	 -0.227142	 0.606875	 -1.190707
C	 -2.330689	 0.069587	 0.000000
H	 -0.791236	 0.682116	 -2.100666
O	 -2.848621	 -0.993976	 0.000000
H	 -2.934306	 0.982410	 0.000000

	symmetry c1
}
set optking {
	frozen_dihedral = ("
		11 9 12 14
	")
}

ee = optimize('scf')
oeprop('DIPOLE', 'QUADRUPOLE', 'MULLIKEN_CHARGES')
f=open( 'psi4out.xyz', 'w' )
f.write( "15  " )
f.write( str(ee) + "\n" )
f.write( MOL.save_string_xyz() )
f.close()
--------------------------------------------------------------------------

    Molecular point group: c1
  Charge       = 0
  Multiplicity = 1
  Basis Set: CC-PVTZ
  Basis Set:
  @DF-RHF Final Energy:  -418.42726809875688
    Total Energy =                       -418.4272680987569402
    Molecular point group: c1
  Basis Set: CC-PVTZ
  Basis Set:
  Basis Set: CC-PVTZ
  Basis Set:
  @DF-RHF Final Energy:  -418.42680438057374
    Total Energy =                       -418.4268043805737989
  Basis Set: CC-PVTZ
  Basis Set:
  Basis Set: CC-PVTZ
  Basis Set:
  @DF-RHF Final Energy:  -418.42744955169997
    Total Energy =                       -418.4274495517003061
  Basis Set: CC-PVTZ
  Basis Set:
  Basis Set: CC-PVTZ
  Basis Set:
  @DF-RHF Final Energy:  -418.42760486362516
    Total Energy =                       -418.4276048636248788
  Basis Set: CC-PVTZ
  Basis Set:
  Basis Set: CC-PVTZ
  Basis Set:
  @DF-RHF Final Energy:  -418.42760687268151
    Total Energy =                       -418.4276068726818494
  Basis Set: CC-PVTZ
  Basis Set:
  Charge       = 0
  Multiplicity = 1
  Basis Set: CC-PVTZ
  Basis Set:

    Orbital Energies (a.u.)
    -----------------------

    Doubly Occupied:

       1A    -20.596323     2A    -20.564002     3A    -11.333166
       4A    -11.312046     5A    -11.256203     6A    -11.249571
       7A    -11.238716     8A    -11.236975     9A    -11.236489
      10A     -1.428263    11A     -1.418520    12A     -1.171993
      13A     -1.050688    14A     -1.027162    15A     -0.901521
      16A     -0.845697    17A     -0.821048    18A     -0.742637
      19A     -0.703486    20A     -0.682130    21A     -0.665627
      22A     -0.644186    23A     -0.616208    24A     -0.607298
      25A     -0.586620    26A     -0.546892    27A     -0.534823
      28A     -0.515579    29A     -0.498145    30A     -0.426783
      31A     -0.357387    32A     -0.328436

  @DF-RHF Final Energy:  -418.42760782969964

   => Energetics <=

    Nuclear Repulsion Energy =            403.0351225680115590
    One-Electron Energy =               -1368.6362259412967433
    Two-Electron Energy =                 547.1734955435856591
    DFT Exchange-Correlation Energy =       0.0000000000000000
    Empirical Dispersion Energy =           0.0000000000000000
    PCM Polarization Energy =               0.0000000000000000
    EFP Energy =                            0.0000000000000000
    Total Energy =                       -418.4276078296995820
    Molecular point group: c1
  Basis Set: CC-PVTZ
  Basis Set:

  -Total Gradient:
     Atom            X                  Y                   Z
    ------   -----------------  -----------------  -----------------
       1       -0.000014668927     0.000009515382    -0.000012306893
       2        0.000005451512    -0.000003273103    -0.000022360479
       3       -0.000037786132    -0.000027134945     0.000039814318
       4       -0.000004874481     0.000048429299    -0.000046900289
       5        0.000041027800    -0.000037663377     0.000027045588
       6        0.000002964943    -0.000012202331     0.000009833005
       7        0.000108261972    -0.000009545084     0.000053706144
       8        0.000008609985     0.000019268774    -0.000009914630
       9       -0.000501067404     0.002896229698    -0.000733421462
      10       -0.000009306899    -0.000000086502     0.000000660741
      11        0.000191292908    -0.002009691669    -0.000254052617
      12        0.000125102814    -0.000894489889     0.003409550516
      13        0.000004337651     0.000008781298    -0.000001376779
      14        0.000039749189     0.000028902895    -0.002465078550
      15        0.000040905068    -0.000017040448     0.000004801388

  **** Optimization is complete! (in 6 steps) ****
    Final optimized geometry and variables:
    Molecular point group: c1

    Geometry (in Angstrom), charge = 0, multiplicity = 1:

    H            2.834150594526     0.195633091597     1.921906241537
    O            1.911367596919     0.053514852514     2.032479060394
    C            1.259334770594     0.163134702392     0.860068202697
    C            1.904304126373     0.469624005332    -0.323584265960
    C           -0.109322615559    -0.048973026944     0.870883936710
    H            2.966896987196     0.629777923542    -0.332729686349
    C            1.176012737386     0.565064256013    -1.494336779474
    H           -0.590195684239    -0.301870704672     1.795382884345
    C           -0.824265940398     0.057608276969    -0.303235177708
    H            1.682798835529     0.795730810995    -2.411681238901
    C           -0.188432399264     0.365966500095    -1.495393976949
    C           -2.305363011044    -0.181085828643    -0.294717501481
    H           -0.746968949029     0.440666242056    -2.408466620011
    O           -2.798429867314    -1.253444045607    -0.285968869285
    H           -2.930574665193     0.717375950797    -0.322151849650

  Mulliken Charges: (a.u.)
   Center  Symbol    Alpha    Beta     Spin     Total
       1     H     0.38635  0.38635  0.00000  0.22730
       2     O     4.17130  4.17130  0.00000 -0.34260
       3     C     2.83595  2.83595  0.00000  0.32810
       4     C     3.14114  3.14114  0.00000 -0.28229
       5     C     3.13416  3.13416  0.00000 -0.26832
       6     H     0.43266  0.43266  0.00000  0.13467
       7     C     3.05369  3.05369  0.00000 -0.10738
       8     H     0.41683  0.41683  0.00000  0.16634
       9     C     2.92173  2.92173  0.00000  0.15653
      10     H     0.41973  0.41973  0.00000  0.16053
      11     C     3.11874  3.11874  0.00000 -0.23748
      12     C     2.93110  2.93110  0.00000  0.13780
      13     H     0.42457  0.42457  0.00000  0.15086
      14     O     4.15483  4.15483  0.00000 -0.30966
      15     H     0.45720  0.45720  0.00000  0.08559

   Total alpha = 32.00000, Total beta = 32.00000, Total charge = -0.00000
