  ==> Input File <==

--------------------------------------------------------------------------
set {
	reference rhf
	basis 6-31G*
}

set_num_threads( 4 )
memory 2 gb

molecule MOL {
0 1

H	 -2.273092	 1.173159	 0.000295
O	 -1.438904	 1.618192	 0.000114
C	 -0.409536	 0.736003	 0.000030
C	 -0.554884	 -0.389061	 0.796462
C	 0.743089	 0.935351	 -0.756710
H	 -1.459817	 -0.503651	 1.363873
C	 0.453314	 -1.332718	 0.847042
C	 1.740470	 -0.029692	 -0.686609
C	 0.899818	 2.163611	 -1.624938
H	 0.334378	 -2.203410	 1.466917
C	 1.609569	 -1.157706	 0.103792
H	 2.637187	 0.109617	 -1.265260
H	 0.862376	 3.081443	 -1.041735
H	 1.853221	 2.150512	 -2.137605
H	 0.126536	 2.223628	 -2.388109
H	 2.397806	 -1.887564	 0.138297

	symmetry c1
}
set optking {
	frozen_dihedral = ("
		4 3 2 1
	")
}

ee = optimize('scf')
oeprop('DIPOLE', 'QUADRUPOLE', 'MULLIKEN_CHARGES')
f=open( 'psi4out.xyz', 'w' )
f.write( "16  " )
f.write( str(ee) + "\n" )
f.write( MOL.save_string_xyz() )
f.close()
--------------------------------------------------------------------------

    Molecular point group: c1
  Charge       = 0
  Multiplicity = 1
  Basis Set: 6-31G*
  Basis Set:
  @DF-RHF Final Energy:  -344.59090030413864
    Total Energy =                       -344.5909003041385859
    Molecular point group: c1
  Basis Set: 6-31G*
  Basis Set:
  Basis Set: 6-31G*
  Basis Set:
  @DF-RHF Final Energy:  -344.59299836850829
    Total Energy =                       -344.5929983685082334
  Basis Set: 6-31G*
  Basis Set:
  Basis Set: 6-31G*
  Basis Set:
  @DF-RHF Final Energy:  -344.59315650467795
    Total Energy =                       -344.5931565046779497
  Basis Set: 6-31G*
  Basis Set:
  Basis Set: 6-31G*
  Basis Set:
  @DF-RHF Final Energy:  -344.59317084891018
    Total Energy =                       -344.5931708489099492
  Basis Set: 6-31G*
  Basis Set:
  Basis Set: 6-31G*
  Basis Set:
  @DF-RHF Final Energy:  -344.59317405371303
    Total Energy =                       -344.5931740537128007
  Basis Set: 6-31G*
  Basis Set:
  Charge       = 0
  Multiplicity = 1
  Basis Set: 6-31G*
  Basis Set:

    Orbital Energies (a.u.)
    -----------------------

    Doubly Occupied:

       1A    -20.583760     2A    -11.288865     3A    -11.230959
       4A    -11.230789     5A    -11.227895     6A    -11.225883
       7A    -11.221599     8A    -11.213356     9A     -1.400258
      10A     -1.148043    11A     -1.043304    12A     -1.002613
      13A     -0.928950    14A     -0.839156    15A     -0.799437
      16A     -0.728802    17A     -0.668807    18A     -0.651017
      19A     -0.613849    20A     -0.592674    21A     -0.572635
      22A     -0.559071    23A     -0.540815    24A     -0.532003
      25A     -0.499210    26A     -0.481293    27A     -0.468925
      28A     -0.328870    29A     -0.308495

  @DF-RHF Final Energy:  -344.59317421196550

   => Energetics <=

    Nuclear Repulsion Energy =            349.9586028665627850
    One-Electron Energy =               -1161.2408890865585818
    Two-Electron Energy =                 466.6891120080301221
    DFT Exchange-Correlation Energy =       0.0000000000000000
    Empirical Dispersion Energy =           0.0000000000000000
    PCM Polarization Energy =               0.0000000000000000
    EFP Energy =                            0.0000000000000000
    Total Energy =                       -344.5931742119656178
    Molecular point group: c1
  Basis Set: 6-31G*
  Basis Set:

  -Total Gradient:
     Atom            X                  Y                   Z
    ------   -----------------  -----------------  -----------------
       1        0.000021623314    -0.000104517187    -0.002574535748
       2        0.000379013332     0.000654119749     0.003939524420
       3       -0.001242192531    -0.001477273223    -0.002780156631
       4        0.000840103238     0.000960327799     0.001463345246
       5       -0.000018244735    -0.000031786337    -0.000046575977
       6        0.000003013313    -0.000001927796    -0.000000674899
       7       -0.000008540393    -0.000029805060    -0.000020344524
       8       -0.000004541876     0.000014787461    -0.000003649943
       9        0.000014152052     0.000009867946     0.000018679595
      10        0.000006224213     0.000000488670    -0.000000170776
      11        0.000006437719     0.000012634119     0.000004417530
      12        0.000003011838     0.000003968283     0.000000326566
      13       -0.000002018705    -0.000003710430    -0.000003238246
      14        0.000003718781     0.000002940798    -0.000002696608
      15       -0.000000626128    -0.000008796270     0.000001673515
      16       -0.000001133432    -0.000001318527     0.000004076478

  **** Optimization is complete! (in 6 steps) ****
    Final optimized geometry and variables:
    Molecular point group: c1

    Geometry (in Angstrom), charge = 0, multiplicity = 1:

    H           -2.576909193172     0.893399747028     0.139631628334
    O           -1.716896172626     1.289530618410     0.129501462283
    C           -0.749384120493     0.329894671086     0.176984898976
    C           -0.885485848609    -0.785369381741     0.984043306206
    C            0.408246760820     0.543850096042    -0.568709890664
    H           -1.780579778122    -0.910070513377     1.569288445442
    C            0.127825793759    -1.729955620539     1.038253325056
    C            1.412245745897    -0.409075175590    -0.487557756540
    C            0.543985901337     1.778298231836    -1.425924621456
    H            0.013416673756    -2.598768014953     1.661451673179
    C            1.282081238035    -1.542823358230     0.302154888926
    H            2.313070383332    -0.263911644121    -1.058089055975
    H            0.501843049656     2.680338065267    -0.824807409967
    H            1.486329208535     1.771027726033    -1.961189621700
    H           -0.259830143391     1.841627738603    -2.151409487194
    H            2.076203803540    -2.266386122316     0.340704841324

  Mulliken Charges: (a.u.)
   Center  Symbol    Alpha    Beta     Spin     Total
       1     H     0.27223  0.27223  0.00000  0.45553
       2     O     4.38338  4.38338  0.00000 -0.76675
       3     C     2.81702  2.81702  0.00000  0.36596
       4     C     3.12977  3.12977  0.00000 -0.25954
       5     C     3.00572  3.00572  0.00000 -0.01144
       6     H     0.40209  0.40209  0.00000  0.19582
       7     C     3.09797  3.09797  0.00000 -0.19595
       8     C     3.10945  3.10945  0.00000 -0.21889
       9     C     3.24082  3.24082  0.00000 -0.48164
      10     H     0.39926  0.39926  0.00000  0.20148
      11     C     3.10509  3.10509  0.00000 -0.21018
      12     H     0.40094  0.40094  0.00000  0.19812
      13     H     0.40699  0.40699  0.00000  0.18602
      14     H     0.41804  0.41804  0.00000  0.16392
      15     H     0.41043  0.41043  0.00000  0.17913
      16     H     0.40080  0.40080  0.00000  0.19839

   Total alpha = 29.00000, Total beta = 29.00000, Total charge =  0.00000
