  ==> Input File <==

--------------------------------------------------------------------------
set {
	reference rhf
	basis 6-31G*
}

set_num_threads( 1 )
memory 2 gb

molecule MOL {
0 1

H	 -2.698709	 -0.000305	 0.034435
C	 -1.693833	 0.000034	 0.434417
O	 -0.828952	 -0.000968	 -0.659236
H	 -1.574200	 0.882896	 1.055746
H	 -1.574147	 -0.881698	 1.057355
C	 0.429455	 -0.619328	 -0.523049
C	 1.313869	 0.074934	 0.510745
C	 0.319464	 -2.122765	 -0.277006
H	 0.881589	 -0.474779	 -1.497067
H	 1.328167	 1.145275	 0.335489
H	 2.331430	 -0.295776	 0.437398
H	 0.974952	 -0.101842	 1.526643
H	 -0.355049	 -2.573432	 -0.996999
H	 1.293924	 -2.588770	 -0.385321
H	 -0.041682	 -2.350616	 0.720740

	symmetry c1
}
set optking {
	frozen_dihedral = ("
		9 6 3 2
	")
}

ee = energy('scf')
oeprop('DIPOLE', 'QUADRUPOLE', 'MULLIKEN_CHARGES')
f=open( 'psi4out.xyz', 'w' )
f.write( "15  " )
f.write( str(ee) + "\n" )
f.write( MOL.save_string_xyz() )
f.close()
--------------------------------------------------------------------------

    Molecular point group: c1

    Geometry (in Angstrom), charge = 0, multiplicity = 1:

       Center              X                  Y                   Z               Mass
    ------------   -----------------  -----------------  -----------------  -----------------
           H         -2.587186151606     0.530476638452     0.122143059826     1.007825032070
           C         -1.582310151606     0.530815638452     0.522125059826    12.000000000000
           O         -0.717429151606     0.529813638452    -0.571527940174    15.994914619560
           H         -1.462677151606     1.413677638452     1.143454059826     1.007825032070
           H         -1.462624151606    -0.350916361548     1.145063059826     1.007825032070
           C          0.540977848394    -0.088546361548    -0.435340940174    12.000000000000
           C          1.425391848394     0.605715638452     0.598453059826    12.000000000000
           C          0.430986848394    -1.591983361548    -0.189297940174    12.000000000000
           H          0.993111848394     0.056002638452    -1.409358940174     1.007825032070
           H          1.439689848394     1.676056638452     0.423197059826     1.007825032070
           H          2.442952848394     0.235005638452     0.525106059826     1.007825032070
           H          1.086474848394     0.428939638452     1.614351059826     1.007825032070
           H         -0.243526151606    -2.042650361548    -0.909290940174     1.007825032070
           H          1.405446848394    -2.057988361548    -0.297612940174     1.007825032070
           H          0.069840848394    -1.819834361548     0.808448059826     1.007825032070

  Charge       = 0
  Multiplicity = 1
  Basis Set: 6-31G*
  Basis Set:

    Orbital Energies (a.u.)
    -----------------------

    Doubly Occupied:

       1A    -20.547384     2A    -11.274643     3A    -11.260749
       4A    -11.210845     5A    -11.210476     6A     -1.370062
       7A     -1.050605     8A     -0.939726     9A     -0.931200
      10A     -0.781394    11A     -0.675732    12A     -0.639560
      13A     -0.632724    14A     -0.571499    15A     -0.564492
      16A     -0.552893    17A     -0.535904    18A     -0.498788
      19A     -0.497115    20A     -0.442897    21A     -0.404921

  @DF-RHF Final Energy:  -232.13632892782934

   => Energetics <=

    Nuclear Repulsion Energy =            198.7840851508788944
    One-Electron Energy =                -708.6535214169143728
    Two-Electron Energy =                 277.7331073382065370
    DFT Exchange-Correlation Energy =       0.0000000000000000
    Empirical Dispersion Energy =           0.0000000000000000
    PCM Polarization Energy =               0.0000000000000000
    EFP Energy =                            0.0000000000000000
    Total Energy =                       -232.1363289278289130

  Mulliken Charges: (a.u.)
   Center  Symbol    Alpha    Beta     Spin     Total
       1     H     0.41495  0.41495  0.00000  0.17009
       2     C     3.07998  3.07998  0.00000 -0.15997
       3     O     4.31278  4.31278  0.00000 -0.62556
       4     H     0.42638  0.42638  0.00000  0.14723
       5     H     0.43070  0.43070  0.00000  0.13861
       6     C     2.90999  2.90999  0.00000  0.18003
       7     C     3.25213  3.25213  0.00000 -0.50426
       8     C     3.25285  3.25285  0.00000 -0.50570
       9     H     0.41531  0.41531  0.00000  0.16937
      10     H     0.41139  0.41139  0.00000  0.17723
      11     H     0.41972  0.41972  0.00000  0.16055
      12     H     0.42193  0.42193  0.00000  0.15613
      13     H     0.41128  0.41128  0.00000  0.17744
      14     H     0.41918  0.41918  0.00000  0.16164
      15     H     0.42141  0.42141  0.00000  0.15718

   Total alpha = 21.00000, Total beta = 21.00000, Total charge =  0.00000
