                              Psi4 1.0.54 Driver

  ==> Input File <==

--------------------------------------------------------------------------
set {
	reference rhf
	basis cc-pvtz
}

set_num_threads( 4 )
memory 2 gb

molecule MOL {
0 1

H	 -3.908024	 0.828460	 -1.304136
O	 -3.321486	 0.155256	 -1.012647
C	 -2.092231	 0.716154	 -0.634834
C	 -1.175688	 -0.398187	 -0.171891
H	 -1.640735	 1.243274	 -1.472730
H	 -2.233379	 1.437083	 0.167767
C	 0.196029	 0.106276	 0.266738
H	 -1.068126	 -1.113323	 -0.981355
H	 -1.659023	 -0.923545	 0.645607
C	 1.330220	 -0.826136	 -0.155230
H	 0.359542	 1.097229	 -0.145561
H	 0.212134	 0.218135	 1.348778
C	 2.719700	 -0.407669	 0.328325
H	 1.339388	 -0.911200	 -1.239363
H	 1.119001	 -1.821953	 0.224128
C	 3.241564	 0.893452	 -0.276737
H	 3.418299	 -1.204729	 0.093035
H	 2.711776	 -0.323368	 1.411960
H	 3.254204	 0.841071	 -1.360784
H	 2.634460	 1.745075	 0.005842
H	 4.254264	 1.092401	 0.054971

	symmetry c1
}
set optking {
	frozen_dihedral = ("
		8 4 7 10
	")
}

ee,wfn = optimize('scf', return_wfn=True)
oeprop( wfn, 'DIPOLE', 'QUADRUPOLE', 'MULLIKEN_CHARGES')
f=open( 'psi4out.xyz', 'w' )
f.write( "21  " )
f.write( str(ee) + "\n" )
f.write( MOL.save_string_xyz() )
f.close()
--------------------------------------------------------------------------

    Molecular point group: c1
  Charge       = 0
  Multiplicity = 1
  Basis Set: CC-PVTZ
  Basis Set:
  @DF-RHF Final Energy:  -310.32943931899752
    Total Energy =                       -310.3294393189974016
    Molecular point group: c1
  Basis Set: CC-PVTZ
  Basis Set:
  Basis Set: CC-PVTZ
  Basis Set:
  @DF-RHF Final Energy:  -310.32964852339586
    Total Energy =                       -310.3296485233956901
  Basis Set: CC-PVTZ
  Basis Set:
  Basis Set: CC-PVTZ
  Basis Set:
  @DF-RHF Final Energy:  -310.32969737528862
    Total Energy =                       -310.3296973752887311
  Basis Set: CC-PVTZ
  Basis Set:
  Basis Set: CC-PVTZ
  Basis Set:
  @DF-RHF Final Energy:  -310.32969467651071
    Total Energy =                       -310.3296946765105986
  Basis Set: CC-PVTZ
  Basis Set:
  Basis Set: CC-PVTZ
  Basis Set:
  @DF-RHF Final Energy:  -310.32971007100059
    Total Energy =                       -310.3297100710008181
  Basis Set: CC-PVTZ
  Basis Set:
  Charge       = 0
  Multiplicity = 1
  Basis Set: CC-PVTZ
  Basis Set:

    Orbital Energies (a.u.)
    -----------------------

    Doubly Occupied:

       1A    -20.545642     2A    -11.265597     3A    -11.213188
       4A    -11.213035     5A    -11.211690     6A    -11.208632
       7A    -11.206377     8A     -1.363745     9A     -1.086547
      10A     -1.033675    11A     -0.955636    12A     -0.876662
      13A     -0.809457    14A     -0.779317    15A     -0.697505
      16A     -0.655101    17A     -0.629058    18A     -0.607742
      19A     -0.583133    20A     -0.578435    21A     -0.530411
      22A     -0.526633    23A     -0.512155    24A     -0.486937
      25A     -0.479916    26A     -0.460419    27A     -0.454802
      28A     -0.444865    29A     -0.435923

  @DF-RHF Final Energy:  -310.32971015096905

   => Energetics <=

    Nuclear Repulsion Energy =            313.4008421401377973
    One-Electron Energy =               -1041.7566310793470166
    Two-Electron Energy =                 418.0260787882403974
    DFT Exchange-Correlation Energy =       0.0000000000000000
    Empirical Dispersion Energy =           0.0000000000000000
    PCM Polarization Energy =               0.0000000000000000
    EFP Energy =                            0.0000000000000000
    Total Energy =                       -310.3297101509688218
    Molecular point group: c1
  Basis Set: CC-PVTZ
  Basis Set:

  -Total Gradient:
     Atom            X                  Y                   Z
    ------   -----------------  -----------------  -----------------
       1        0.000006138279     0.000004001785     0.000006399324
       2       -0.000014752672    -0.000019806639    -0.000005883777
       3        0.000030905092     0.000019949314     0.000004649010
       4       -0.000180873550     0.003802865512    -0.004005654612
       5       -0.000002143950    -0.000001690928    -0.000005834548
       6       -0.000007278892    -0.000001528048     0.000000884728
       7       -0.000286215876    -0.002413572620     0.003817242016
       8        0.000207878340    -0.002662471931     0.002479964579
       9       -0.000000050976    -0.000001399773     0.000003575944
      10        0.000241536218     0.001270783642    -0.002303472691
      11        0.000005626250    -0.000001264705    -0.000001138372
      12        0.000005211015     0.000001447958     0.000006346345
      13       -0.000002689601     0.000002808038     0.000007178963
      14       -0.000003175723     0.000000104258    -0.000002536222
      15        0.000001826136     0.000003735286     0.000002598944
      16       -0.000001742880    -0.000000715755    -0.000003797810
      17       -0.000000841973    -0.000001447980     0.000000211413
      18       -0.000002300418    -0.000000201157     0.000000984605
      19       -0.000000169640     0.000001373553    -0.000003063943
      20        0.000001708512    -0.000001689786     0.000001377507
      21        0.000001406314    -0.000001280022    -0.000000031405

  **** Optimization is complete! (in 6 steps) ****
    Final optimized geometry and variables:
    Molecular point group: c1

    Geometry (in Angstrom), charge = 0, multiplicity = 1:

    H           -4.010188396200     0.770367457711    -0.980592808075
    O           -3.417766760267     0.099737270583    -0.695202758323
    C           -2.167584032912     0.656900154412    -0.390839778795
    C           -1.238045931606    -0.450919147271     0.057934216970
    H           -1.749835088781     1.157085869295    -1.262220089897
    H           -2.262367565384     1.400406819467     0.398391594004
    C            0.145135934169     0.061537942902     0.486265169425
    H           -1.143367431343    -1.185164256106    -0.734773667625
    H           -1.710891280720    -0.976103612320     0.881128929821
    C            1.280465464912    -0.880246568139     0.087392869608
    H            0.321480776837     1.033473630699     0.034723763762
    H            0.162630423616     0.222994361161     1.559757932379
    C            2.664364421532    -0.472210905242     0.594076757093
    H            1.303984585013    -0.964120382765    -0.996446414502
    H            1.056460621723    -1.875568422662     0.462146623839
    C            3.199403269691     0.833096483094     0.009782380432
    H            3.363215964270    -1.269554815295     0.360489302414
    H            2.641530395379    -0.398663249994     1.678211346422
    H            3.222863832572     0.793627100212    -1.074687841043
    H            2.594162230198     1.684604558765     0.296602810135
    H            4.209743207571     1.022352108658     0.353994988275

  Mulliken Charges: (a.u.)
   Center  Symbol    Alpha    Beta     Spin     Total
       1     H     0.39746  0.39746  0.00000  0.20507
       2     O     4.19458  4.19458  0.00000 -0.38915
       3     C     2.96262  2.96262  0.00000  0.07476
       4     C     3.08503  3.08503  0.00000 -0.17006
       5     H     0.47545  0.47545  0.00000  0.04910
       6     H     0.47395  0.47395  0.00000  0.05210
       7     C     3.10662  3.10662  0.00000 -0.21325
       8     H     0.45129  0.45129  0.00000  0.09742
       9     H     0.44913  0.44913  0.00000  0.10174
      10     C     3.09434  3.09434  0.00000 -0.18868
      11     H     0.45610  0.45610  0.00000  0.08781
      12     H     0.45061  0.45061  0.00000  0.09877
      13     C     3.09007  3.09007  0.00000 -0.18014
      14     H     0.45342  0.45342  0.00000  0.09316
      15     H     0.44800  0.44800  0.00000  0.10401
      16     C     3.15314  3.15314  0.00000 -0.30627
      17     H     0.44853  0.44853  0.00000  0.10293
      18     H     0.45469  0.45469  0.00000  0.09063
      19     H     0.45484  0.45484  0.00000  0.09031
      20     H     0.45400  0.45400  0.00000  0.09201
      21     H     0.44613  0.44613  0.00000  0.10774

   Total alpha = 29.00000, Total beta = 29.00000, Total charge = -0.00000

*** Psi4 exiting successfully. Buy a developer a beer!
