                              Psi4 1.0.54 Driver

  ==> Input File <==

--------------------------------------------------------------------------
set {
	reference rhf
	basis cc-pvtz
}

set_num_threads( 4 )
memory 2 gb

molecule MOL {
0 1

H	 -2.266619	 1.169943	 0.000098
O	 -1.438073	 1.611259	 0.000041
C	 -0.408657	 0.734701	 0.000005
C	 0.679376	 1.049178	 -0.792900
C	 -0.428782	 -0.431495	 0.756110
H	 0.656660	 1.958182	 -1.361342
C	 1.764759	 0.200301	 -0.841049
C	 0.675283	 -1.265756	 0.688459
C	 -1.616874	 -0.773237	 1.620895
H	 2.605871	 0.450969	 -1.458848
C	 1.768755	 -0.964802	 -0.098789
H	 0.675156	 -2.170949	 1.266900
H	 -2.525964	 -0.875304	 1.034843
H	 -1.458427	 -1.710910	 2.133832
H	 -1.794331	 -0.016079	 2.379542
H	 2.609558	 -1.629906	 -0.131295

	symmetry c1
}
set optking {
	frozen_dihedral = ("
		4 3 2 1
	")
}

ee,wfn = optimize('scf', return_wfn=True)
oeprop( wfn, 'DIPOLE', 'QUADRUPOLE', 'MULLIKEN_CHARGES')
f=open( 'psi4out.xyz', 'w' )
f.write( "16  " )
f.write( str(ee) + "\n" )
f.write( MOL.save_string_xyz() )
f.close()
--------------------------------------------------------------------------

    Molecular point group: c1
  Charge       = 0
  Multiplicity = 1
  Basis Set: CC-PVTZ
  Basis Set:
  @DF-RHF Final Energy:  -344.71776353020823
    Total Energy =                       -344.7177635302083445
    Molecular point group: c1
  Basis Set: CC-PVTZ
  Basis Set:
  Basis Set: CC-PVTZ
  Basis Set:
  @DF-RHF Final Energy:  -344.71796780968594
    Total Energy =                       -344.7179678096860584
  Basis Set: CC-PVTZ
  Basis Set:
  Basis Set: CC-PVTZ
  Basis Set:
  @DF-RHF Final Energy:  -344.71800269429855
    Total Energy =                       -344.7180026942986046
  Basis Set: CC-PVTZ
  Basis Set:
  Basis Set: CC-PVTZ
  Basis Set:
  @DF-RHF Final Energy:  -344.71800806119307
    Total Energy =                       -344.7180080611931885
  Basis Set: CC-PVTZ
  Basis Set:
  Charge       = 0
  Multiplicity = 1
  Basis Set: CC-PVTZ
  Basis Set:

    Orbital Energies (a.u.)
    -----------------------

    Doubly Occupied:

       1A    -20.576814     2A    -11.287475     3A    -11.233939
       4A    -11.228262     5A    -11.227880     6A    -11.227107
       7A    -11.219502     8A    -11.219341     9A     -1.405348
      10A     -1.153658    11A     -1.050794    12A     -1.007724
      13A     -0.941400    14A     -0.828552    15A     -0.819851
      16A     -0.732770    17A     -0.678183    18A     -0.649985
      19A     -0.621753    20A     -0.598535    21A     -0.576236
      22A     -0.572717    23A     -0.553218    24A     -0.539756
      25A     -0.504632    26A     -0.487459    27A     -0.474133
      28A     -0.333437    29A     -0.314896

  @DF-RHF Final Energy:  -344.71800884930383

   => Energetics <=

    Nuclear Repulsion Energy =            350.8451507383184662
    One-Electron Energy =               -1162.9956025657447753
    Two-Electron Energy =                 467.4324429781224239
    DFT Exchange-Correlation Energy =       0.0000000000000000
    Empirical Dispersion Energy =           0.0000000000000000
    PCM Polarization Energy =               0.0000000000000000
    EFP Energy =                            0.0000000000000000
    Total Energy =                       -344.7180088493038852
    Molecular point group: c1
  Basis Set: CC-PVTZ
  Basis Set:

  -Total Gradient:
     Atom            X                  Y                   Z
    ------   -----------------  -----------------  -----------------
       1       -0.000065537226     0.000031561058    -0.001909290790
       2       -0.000309745482    -0.000257092820     0.001895239684
       3        0.001042000735     0.000802389785     0.001080195289
       4       -0.000652373120    -0.000636348790    -0.001057775055
       5       -0.000056482732     0.000041706371    -0.000020198716
       6        0.000006827188    -0.000000225705     0.000013219411
       7        0.000011047210     0.000000133680    -0.000011694349
       8        0.000020949021    -0.000017472816    -0.000035691637
       9        0.000041950943     0.000012463579     0.000044739706
      10        0.000005689772    -0.000013665985     0.000007978232
      11       -0.000008167722     0.000018697711     0.000032448995
      12       -0.000000373230     0.000014936142    -0.000003658531
      13       -0.000027374510    -0.000007936049    -0.000009218123
      14       -0.000007600423     0.000009096028    -0.000020084948
      15       -0.000013682692     0.000000340843     0.000007786263
      16        0.000012872264     0.000001416969    -0.000013995430

  **** Optimization is complete! (in 5 steps) ****
    Final optimized geometry and variables:
    Molecular point group: c1

    Geometry (in Angstrom), charge = 0, multiplicity = 1:

    H           -2.301956196813     1.142539126832    -0.110563006108
    O           -1.469739744701     1.579205710619    -0.132581322987
    C           -0.447094896766     0.684097919031    -0.183687719913
    C            0.622401439511     0.982312794216    -1.003380656420
    C           -0.464533978467    -0.477705068053     0.579329831852
    H            0.594409723773     1.887356998600    -1.577865914716
    C            1.703367497296     0.125333284359    -1.066337180196
    C            0.625520232439    -1.326719229086     0.489145090843
    C           -1.634318438703    -0.789872797760     1.477586303783
    H            2.534823604330     0.364076004185    -1.701529841441
    C            1.706670741103    -1.036396409449    -0.321445717429
    H            0.630095527482    -2.229311346377     1.071439194406
    H           -2.545402931309    -0.962523632787     0.910050592256
    H           -1.444967677719    -1.682963525535     2.056147384699
    H           -1.828867898455     0.023765265162     2.166673421773
    H            2.540329997666    -1.710022784195    -0.367391860026

  Mulliken Charges: (a.u.)
   Center  Symbol    Alpha    Beta     Spin     Total
       1     H     0.38530  0.38530  0.00000  0.22940
       2     O     4.18209  4.18209  0.00000 -0.36419
       3     C     2.87970  2.87970  0.00000  0.24061
       4     C     3.11062  3.11062  0.00000 -0.22123
       5     C     3.00408  3.00408  0.00000 -0.00816
       6     H     0.41840  0.41840  0.00000  0.16320
       7     C     3.06957  3.06957  0.00000 -0.13914
       8     C     3.08829  3.08829  0.00000 -0.17657
       9     C     3.15659  3.15659  0.00000 -0.31317
      10     H     0.42237  0.42237  0.00000  0.15525
      11     C     3.08600  3.08600  0.00000 -0.17200
      12     H     0.42526  0.42526  0.00000  0.14948
      13     H     0.45785  0.45785  0.00000  0.08430
      14     H     0.44826  0.44826  0.00000  0.10348
      15     H     0.44103  0.44103  0.00000  0.11794
      16     H     0.42460  0.42460  0.00000  0.15080

   Total alpha = 29.00000, Total beta = 29.00000, Total charge = -0.00000

*** Psi4 exiting successfully. Buy a developer a beer!
