                              Psi4 1.0.54 Driver

  ==> Input File <==

--------------------------------------------------------------------------
set {
	reference rhf
	basis cc-pvtz
}

set_num_threads( 4 )
memory 2 gb

molecule MOL {
0 1

H	 -3.436473	 1.252944	 -1.023892
O	 -3.458596	 0.315260	 -0.960865
C	 -3.176635	 -0.080824	 0.355601
C	 -1.763371	 0.265266	 0.799691
H	 -3.321825	 -1.153438	 0.379502
H	 -3.895468	 0.357385	 1.043382
C	 -0.673390	 -0.426948	 -0.013392
H	 -1.631049	 1.344913	 0.747560
H	 -1.664587	 -0.001624	 1.849167
C	 0.737842	 -0.043159	 0.423759
H	 -0.806103	 -0.190518	 -1.063345
H	 -0.797221	 -1.503753	 0.074146
C	 1.824000	 -0.743224	 -0.390623
H	 0.850588	 1.033777	 0.343840
H	 0.868587	 -0.286314	 1.476203
C	 1.349707	 -1.963552	 -1.181632
H	 2.633893	 -1.039473	 0.272068
H	 2.250947	 -0.026821	 -1.087116
C	 0.898168	 -3.143720	 -0.324626
H	 2.160739	 -2.291783	 -1.824491
H	 0.539783	 -1.668797	 -1.843873
H	 1.686456	 -3.456871	 0.352585
H	 0.641135	 -3.993971	 -0.946114
H	 0.026615	 -2.902330	 0.271808

	symmetry c1
}
set optking {
	frozen_dihedral = ("
		17 13 10 7
	")
}

ee,wfn = optimize('scf', return_wfn=True)
oeprop( wfn, 'DIPOLE', 'QUADRUPOLE', 'MULLIKEN_CHARGES')
f=open( 'psi4out.xyz', 'w' )
f.write( "24  " )
f.write( str(ee) + "\n" )
f.write( MOL.save_string_xyz() )
f.close()
--------------------------------------------------------------------------

    Molecular point group: c1
  Charge       = 0
  Multiplicity = 1
  Basis Set: CC-PVTZ
  Basis Set:
  @DF-RHF Final Energy:  -349.36212900661803
    Total Energy =                       -349.3621290066182610
    Molecular point group: c1
  Basis Set: CC-PVTZ
  Basis Set:
  Basis Set: CC-PVTZ
  Basis Set:
  @DF-RHF Final Energy:  -349.36957048090665
    Total Energy =                       -349.3695704809072140
  Basis Set: CC-PVTZ
  Basis Set:
  Basis Set: CC-PVTZ
  Basis Set:
  @DF-RHF Final Energy:  -349.37084871406188
    Total Energy =                       -349.3708487140618786
  Basis Set: CC-PVTZ
  Basis Set:
  Basis Set: CC-PVTZ
  Basis Set:
  @DF-RHF Final Energy:  -349.37111914072847
    Total Energy =                       -349.3711191407286378
  Basis Set: CC-PVTZ
  Basis Set:
  @DF-RHF Final Energy:  -349.37119220697446
    Total Energy =                       -349.3711922069745697
  Basis Set: CC-PVTZ
  Basis Set:
  @DF-RHF Final Energy:  -349.37120414370128
    Total Energy =                       -349.3712041437013340
  Basis Set: CC-PVTZ
  Basis Set:
  Basis Set: CC-PVTZ
  Basis Set:
  @DF-RHF Final Energy:  -349.37120591391067
    Total Energy =                       -349.3712059139107851
  Basis Set: CC-PVTZ
  Basis Set:
  Basis Set: CC-PVTZ
  Basis Set:
  @DF-RHF Final Energy:  -349.37120737724206
    Total Energy =                       -349.3712073772421718
  Basis Set: CC-PVTZ
  Basis Set:
  Charge       = 0
  Multiplicity = 1
  Basis Set: CC-PVTZ
  Basis Set:

    Orbital Energies (a.u.)
    -----------------------

    Doubly Occupied:

       1A    -20.546446     2A    -11.265658     3A    -11.215210
       4A    -11.211344     5A    -11.210444     6A    -11.209798
       7A    -11.208817     8A    -11.204457     9A     -1.364293
      10A     -1.087602    11A     -1.046580    12A     -0.983683
      13A     -0.918852    14A     -0.852086    15A     -0.811956
      16A     -0.760841    17A     -0.683013    18A     -0.654357
      19A     -0.621070    20A     -0.620237    21A     -0.611495
      22A     -0.578824    23A     -0.553655    24A     -0.543845
      25A     -0.519287    26A     -0.512223    27A     -0.495269
      28A     -0.481063    29A     -0.469080    30A     -0.460542
      31A     -0.446567    32A     -0.442093    33A     -0.423042

  @DF-RHF Final Energy:  -349.37120741859889

   => Energetics <=

    Nuclear Repulsion Energy =            393.7271123819164700
    One-Electron Energy =               -1254.1692050009041850
    Two-Electron Energy =                 511.0708852003891138
    DFT Exchange-Correlation Energy =       0.0000000000000000
    Empirical Dispersion Energy =           0.0000000000000000
    PCM Polarization Energy =               0.0000000000000000
    EFP Energy =                            0.0000000000000000
    Total Energy =                       -349.3712074185986580
    Molecular point group: c1
  Basis Set: CC-PVTZ
  Basis Set:

  -Total Gradient:
     Atom            X                  Y                   Z
    ------   -----------------  -----------------  -----------------
       1       -0.000000274131    -0.000002618024    -0.000000601433
       2        0.000002869571     0.000004569201     0.000011612169
       3       -0.000004474289    -0.000002457313    -0.000016746289
       4        0.000000270405    -0.000002079636    -0.000002980318
       5        0.000003151907     0.000001291242     0.000004208836
       6        0.000001781856     0.000001005145     0.000000264513
       7       -0.000258019657    -0.003671659033     0.004034649459
       8       -0.000000544617    -0.000003687165    -0.000000839138
       9        0.000000010941    -0.000001653561    -0.000002209557
      10       -0.000417119064     0.004046296444    -0.005482383201
      11       -0.000002153178     0.000001624158     0.000001439283
      12       -0.000002186195    -0.000005972092     0.000003228312
      13        0.004206708275     0.005646151313    -0.000308391082
      14        0.000007027109    -0.000006300954     0.000000910155
      15        0.000005235269     0.000004332557    -0.000003042848
      16       -0.000004122699     0.000003506386     0.000001435153
      17       -0.003540563344    -0.006009198644     0.001763432142
      18       -0.000003907154    -0.000004684408    -0.000001534363
      19        0.000011484041    -0.000002922515    -0.000006634126
      20        0.000000701041    -0.000003067266     0.000000925369
      21       -0.000000937226     0.000001304217    -0.000001653111
      22        0.000003530729    -0.000000337331     0.000001087770
      23        0.000001782746    -0.000002387583    -0.000000765779
      24       -0.000010252334     0.000008944862     0.000004588085

  **** Optimization is complete! (in 9 steps) ****
    Final optimized geometry and variables:
    Molecular point group: c1

    Geometry (in Angstrom), charge = 0, multiplicity = 1:

    H           -2.783802451259     2.157155935050    -1.041916961007
    O           -2.908752083475     1.246436864308    -0.845284420466
    C           -2.604127161075     1.003930528318     0.502929276959
    C           -1.139561593722     1.237443843510     0.841970805971
    H           -2.868085527061    -0.030337341339     0.684159802227
    H           -3.231985550041     1.614409827040     1.147084978237
    C           -0.178673187199     0.315892784192     0.094709242273
    H           -0.890088324952     2.276742199462     0.634194476527
    H           -1.016593154031     1.105402192272     1.914347378460
    C            1.281238593715     0.601969467844     0.447424710387
    H           -0.340292148369     0.431839955594    -0.971137258607
    H           -0.429861711584    -0.711176393551     0.331285110018
    C            2.369472277542    -0.246391120226    -0.257878405784
    H            1.487872964173     1.650217663927     0.256874713109
    H            1.385920337273     0.478182687721     1.521939808360
    C            1.940395934897    -1.591391147531    -0.861586350581
    H            3.137981354461    -0.485432002299     0.470528398456
    H            2.831772620287     0.345867125928    -1.038796095621
    C            1.703033082695    -2.689902704945     0.173114054011
    H            2.730474343788    -1.922148711265    -1.528879637292
    H            1.059807443255    -1.470704666924    -1.481581713214
    H            2.611958900680    -2.894693262364     0.729586670618
    H            1.394315116328    -3.613512137294    -0.303499053733
    H            0.937429808546    -2.419790573378     0.890531249599

  Mulliken Charges: (a.u.)
   Center  Symbol    Alpha    Beta     Spin     Total
       1     H     0.39519  0.39519  0.00000  0.20963
       2     O     4.20389  4.20389  0.00000 -0.40777
       3     C     2.97736  2.97736  0.00000  0.04529
       4     C     3.10515  3.10515  0.00000 -0.21029
       5     H     0.45900  0.45900  0.00000  0.08201
       6     H     0.45997  0.45997  0.00000  0.08006
       7     C     3.09222  3.09222  0.00000 -0.18444
       8     H     0.45808  0.45808  0.00000  0.08385
       9     H     0.45324  0.45324  0.00000  0.09352
      10     C     3.10216  3.10216  0.00000 -0.20432
      11     H     0.44493  0.44493  0.00000  0.11015
      12     H     0.45001  0.45001  0.00000  0.09997
      13     C     3.09689  3.09689  0.00000 -0.19377
      14     H     0.44818  0.44818  0.00000  0.10364
      15     H     0.45274  0.45274  0.00000  0.09451
      16     C     3.10055  3.10055  0.00000 -0.20109
      17     H     0.45325  0.45325  0.00000  0.09351
      18     H     0.44649  0.44649  0.00000  0.10702
      19     C     3.14864  3.14864  0.00000 -0.29728
      20     H     0.44437  0.44437  0.00000  0.11126
      21     H     0.44904  0.44904  0.00000  0.10192
      22     H     0.45426  0.45426  0.00000  0.09147
      23     H     0.44784  0.44784  0.00000  0.10432
      24     H     0.45657  0.45657  0.00000  0.08685

   Total alpha = 33.00000, Total beta = 33.00000, Total charge =  0.00000

*** Psi4 exiting successfully. Buy a developer a beer!
