  ==> Input File <==

--------------------------------------------------------------------------
set {
	reference rhf
	basis cc-pvtz
}

set_num_threads( 4 )
memory 2 gb

molecule MOL {
0 1

H	 -2.698799	 -0.000846	 0.036018
C	 -1.694291	 -0.000483	 0.434279
O	 -0.828718	 -0.000608	 -0.655022
H	 -1.576855	 0.881100	 1.056504
H	 -1.576401	 -0.881658	 1.057001
C	 -0.238725	 -1.213633	 -1.052963
C	 0.688537	 -1.790585	 0.010796
C	 -1.263821	 -2.231135	 -1.540935
H	 0.370336	 -0.926113	 -1.900899
H	 1.377592	 -1.032221	 0.361718
H	 1.265470	 -2.606872	 -0.408214
H	 0.143102	 -2.180094	 0.862482
H	 -1.928666	 -1.778326	 -2.266187
H	 -0.757870	 -3.063510	 -2.016265
H	 -1.861118	 -2.632239	 -0.730446

	symmetry c1
}
set optking {
	frozen_dihedral = ("
		6 3 2 1
	")
}

ee = optimize('scf')
oeprop('DIPOLE', 'QUADRUPOLE', 'MULLIKEN_CHARGES')
f=open( 'psi4out.xyz', 'w' )
f.write( "15  " )
f.write( str(ee) + "\n" )
f.write( MOL.save_string_xyz() )
f.close()
--------------------------------------------------------------------------

    Molecular point group: c1
  Charge       = 0
  Multiplicity = 1
  Basis Set: CC-PVTZ
  Basis Set:
  @DF-RHF Final Energy:  -232.22302375467791
    Total Energy =                       -232.2230237546779676
    Molecular point group: c1
  Basis Set: CC-PVTZ
  Basis Set:
  Basis Set: CC-PVTZ
  Basis Set:
  @DF-RHF Final Energy:  -232.22420305407346
    Total Energy =                       -232.2242030540735982
  Basis Set: CC-PVTZ
  Basis Set:
  Basis Set: CC-PVTZ
  Basis Set:
  @DF-RHF Final Energy:  -232.22450934875792
    Total Energy =                       -232.2245093487579766
  Basis Set: CC-PVTZ
  Basis Set:
  Basis Set: CC-PVTZ
  Basis Set:
  @DF-RHF Final Energy:  -232.22456839142384
    Total Energy =                       -232.2245683914238725
  Basis Set: CC-PVTZ
  Basis Set:
  Basis Set: CC-PVTZ
  Basis Set:
  @DF-RHF Final Energy:  -232.22458867397128
    Total Energy =                       -232.2245886739715388
  Basis Set: CC-PVTZ
  Basis Set:
  Basis Set: CC-PVTZ
  Basis Set:
  @DF-RHF Final Energy:  -232.22459292551795
    Total Energy =                       -232.2245929255179817
  Basis Set: CC-PVTZ
  Basis Set:
  Charge       = 0
  Multiplicity = 1
  Basis Set: CC-PVTZ
  Basis Set:

    Orbital Energies (a.u.)
    -----------------------

    Doubly Occupied:

       1A    -20.540106     2A    -11.273051     3A    -11.258889
       4A    -11.209068     5A    -11.208197     6A     -1.371855
       7A     -1.051100     8A     -0.940504     9A     -0.931546
      10A     -0.781690    11A     -0.677116    12A     -0.640758
      13A     -0.633868    14A     -0.571099    15A     -0.563666
      16A     -0.552773    17A     -0.537174    18A     -0.501054
      19A     -0.498165    20A     -0.443990    21A     -0.406652

  @DF-RHF Final Energy:  -232.22459314932479

   => Energetics <=

    Nuclear Repulsion Energy =            198.9538669459588505
    One-Electron Energy =                -709.1722745718268470
    Two-Electron Energy =                 277.9938144765432639
    DFT Exchange-Correlation Energy =       0.0000000000000000
    Empirical Dispersion Energy =           0.0000000000000000
    PCM Polarization Energy =               0.0000000000000000
    EFP Energy =                            0.0000000000000000
    Total Energy =                       -232.2245931493247326
    Molecular point group: c1
  Basis Set: CC-PVTZ
  Basis Set:

  -Total Gradient:
     Atom            X                  Y                   Z
    ------   -----------------  -----------------  -----------------
       1        0.000055471547     0.001903851328     0.000093960684
       2        0.000491445512    -0.002326894022     0.000371316388
       3       -0.001716244655     0.000220569305    -0.001509520330
       4        0.000000753520     0.000000267443     0.000006536325
       5        0.000013711304    -0.000013739701    -0.000005057657
       6        0.001174536562     0.000201589808     0.001021529023
       7       -0.000009304842    -0.000001223545    -0.000004707694
       8        0.000003840333     0.000009211842     0.000014341922
       9        0.000002697635    -0.000000064844    -0.000002553794
      10       -0.000000492185     0.000003881117    -0.000001008941
      11       -0.000005998382     0.000007814150     0.000000357709
      12       -0.000006760865    -0.000003491353     0.000004248170
      13        0.000002271499    -0.000000933625     0.000002048840
      14        0.000003552566    -0.000005950478     0.000002505987
      15       -0.000009479547     0.000005112575     0.000006003367

  **** Optimization is complete! (in 7 steps) ****
    Final optimized geometry and variables:
    Molecular point group: c1

    Geometry (in Angstrom), charge = 0, multiplicity = 1:

    H           -2.070944672554     1.069675059940     0.564699798835
    C           -1.058581544266     1.020357486574     0.953587168269
    O           -0.125734068423     1.041437139091    -0.082879546699
    H           -0.895416472449     1.896263873632     1.568337471850
    H           -0.971985532052     0.146626811004     1.587217532646
    C            0.453789187503    -0.167317656217    -0.506837270974
    C            1.397792938675    -0.752840967156     0.537356716181
    C           -0.584597791693    -1.172941608597    -0.990307729912
    H            1.051682361062     0.127340589164    -1.360313029064
    H            2.106495257056    -0.001278608888     0.862133317038
    H            1.950839115419    -1.582777244567     0.112337923391
    H            0.870425355399    -1.124400351267     1.408191370741
    H           -1.229984627308    -0.719640827081    -1.732755476808
    H           -0.094066421808    -2.027490284967    -1.441859290210
    H           -1.202969774267    -1.539718075544    -0.178795437041

  Mulliken Charges: (a.u.)
   Center  Symbol    Alpha    Beta     Spin     Total
       1     H     0.46029  0.46029  0.00000  0.07941
       2     C     3.03987  3.03987  0.00000 -0.07975
       3     O     4.18643  4.18643  0.00000 -0.37287
       4     H     0.44722  0.44722  0.00000  0.10556
       5     H     0.46935  0.46935  0.00000  0.06129
       6     C     2.93896  2.93896  0.00000  0.12208
       7     C     3.15424  3.15424  0.00000 -0.30848
       8     C     3.15619  3.15619  0.00000 -0.31237
       9     H     0.44633  0.44633  0.00000  0.10735
      10     H     0.44474  0.44474  0.00000  0.11051
      11     H     0.45106  0.45106  0.00000  0.09789
      12     H     0.45563  0.45563  0.00000  0.08874
      13     H     0.44478  0.44478  0.00000  0.11045
      14     H     0.44935  0.44935  0.00000  0.10129
      15     H     0.45555  0.45555  0.00000  0.08889

   Total alpha = 21.00000, Total beta = 21.00000, Total charge = -0.00000
