  ==> Input File <==

--------------------------------------------------------------------------
set {
	reference rhf
	basis 6-31G*
}

set_num_threads( 4 )
memory 2 gb

molecule MOL {
0 1

O	 -1.276010	 1.052711	 -0.768302
C	 -1.204840	 0.067374	 -0.106123
C	 -2.388195	 -0.672128	 0.458071
O	 -0.067104	 -0.527208	 0.221609
H	 -2.388023	 -1.694060	 0.097175
H	 -3.300579	 -0.174919	 0.164318
H	 -2.315377	 -0.706351	 1.539059
C	 1.148561	 -0.101258	 -0.409781
C	 2.088603	 -1.292224	 -0.350554
C	 1.695552	 1.125328	 0.303615
H	 0.920655	 0.144556	 -1.436495
H	 1.654944	 -2.147811	 -0.855684
H	 3.029720	 -1.049914	 -0.833169
H	 2.291936	 -1.569453	 0.678258
H	 2.627833	 1.439014	 -0.155155
H	 0.995523	 1.948881	 0.242828
H	 1.886747	 0.902419	 1.348490

	symmetry c1
}
set optking {
	frozen_dihedral = ("
		8 4 2 1
	")
}

ee = optimize('scf')
oeprop('DIPOLE', 'QUADRUPOLE', 'MULLIKEN_CHARGES')
f=open( 'psi4out.xyz', 'w' )
f.write( "17  " )
f.write( str(ee) + "\n" )
f.write( MOL.save_string_xyz() )
f.close()
--------------------------------------------------------------------------

    Molecular point group: c1
  Charge       = 0
  Multiplicity = 1
  Basis Set: 6-31G*
  Basis Set:
  @DF-RHF Final Energy:  -344.91402496067661
    Total Energy =                       -344.9140249606763291
    Molecular point group: c1
  Basis Set: 6-31G*
  Basis Set:
  Basis Set: 6-31G*
  Basis Set:
  @DF-RHF Final Energy:  -344.91237377276195
    Total Energy =                       -344.9123737727618959
  Basis Set: 6-31G*
  Basis Set:
  Basis Set: 6-31G*
  Basis Set:
  @DF-RHF Final Energy:  -344.91415017962947
    Total Energy =                       -344.9141501796294733
  Basis Set: 6-31G*
  Basis Set:
  Basis Set: 6-31G*
  Basis Set:
  @DF-RHF Final Energy:  -344.91417341890610
    Total Energy =                       -344.9141734189058752
  Basis Set: 6-31G*
  Basis Set:
  Basis Set: 6-31G*
  Basis Set:
  @DF-RHF Final Energy:  -344.91417941238046
    Total Energy =                       -344.9141794123807472
  Basis Set: 6-31G*
  Basis Set:
  Basis Set: 6-31G*
  Basis Set:
  @DF-RHF Final Energy:  -344.91418074543776
    Total Energy =                       -344.9141807454377613
  Basis Set: 6-31G*
  Basis Set:
  Charge       = 0
  Multiplicity = 1
  Basis Set: 6-31G*
  Basis Set:

    Orbital Energies (a.u.)
    -----------------------

    Doubly Occupied:

       1A    -20.598509     2A    -20.543419     3A    -11.374871
       4A    -11.290487     5A    -11.232535     6A    -11.219727
       7A    -11.214395     8A     -1.465289     9A     -1.361633
      10A     -1.078308    11A     -1.005018    12A     -0.947356
      13A     -0.847996    14A     -0.766547    15A     -0.691669
      16A     -0.670494    17A     -0.657429    18A     -0.611697
      19A     -0.586175    20A     -0.578659    21A     -0.562964
      22A     -0.550334    23A     -0.539096    24A     -0.518294
      25A     -0.501014    26A     -0.483041    27A     -0.445990
      28A     -0.436306

  @DF-RHF Final Energy:  -344.91418117734509

   => Energetics <=

    Nuclear Repulsion Energy =            322.9247189141310628
    One-Electron Energy =               -1110.1193025420698177
    Two-Electron Energy =                 442.2804024505934990
    DFT Exchange-Correlation Energy =       0.0000000000000000
    Empirical Dispersion Energy =           0.0000000000000000
    PCM Polarization Energy =               0.0000000000000000
    EFP Energy =                            0.0000000000000000
    Total Energy =                       -344.9141811773452559
    Molecular point group: c1
  Basis Set: 6-31G*
  Basis Set:

  -Total Gradient:
     Atom            X                  Y                   Z
    ------   -----------------  -----------------  -----------------
       1        0.000042175853     0.001848808895     0.002439778120
       2       -0.000248576998    -0.003620851638    -0.004531892421
       3       -0.000005838286    -0.000042672595    -0.000056649375
       4        0.000492183231     0.003501437804     0.003775240233
       5        0.000006170215    -0.000000059132     0.000020332393
       6        0.000000606095     0.000005895729     0.000007076414
       7       -0.000001099277     0.000023604084     0.000006405551
       8       -0.000264470833    -0.001705969480    -0.001692445304
       9       -0.000013423132    -0.000007286986     0.000010503062
      10        0.000016976129    -0.000005938882     0.000017441779
      11       -0.000009928880     0.000000158567     0.000006010678
      12        0.000002264885    -0.000005434408    -0.000000350829
      13       -0.000007634315     0.000003746904     0.000000243560
      14        0.000002057327    -0.000001425178     0.000000369543
      15       -0.000004440654     0.000000890516    -0.000001683538
      16       -0.000004329848     0.000002881845     0.000000911927
      17       -0.000002691513     0.000002213956    -0.000001291794

  **** Optimization is complete! (in 7 steps) ****
    Final optimized geometry and variables:
    Molecular point group: c1

    Geometry (in Angstrom), charge = 0, multiplicity = 1:

    O           -1.289601751599     1.047839526177    -0.753419679000
    C           -1.210278596523     0.097141545596    -0.043542167468
    C           -2.386702085978    -0.615267868292     0.568234367238
    O           -0.065647083064    -0.455019066501     0.332424167136
    H           -2.397150000892    -1.649549332879     0.244060191991
    H           -3.302094229389    -0.124933941433     0.272319238750
    H           -2.294834753548    -0.611174933013     1.648190913133
    C            1.152021489601    -0.031765526768    -0.297313126293
    C            2.083534489131    -1.230356345454    -0.255538020225
    C            1.710578829407     1.182627318871     0.427674964706
    H            0.922213814942     0.228888396806    -1.320257251772
    H            1.642940552935    -2.076524579485    -0.770461372986
    H            3.025528217500    -0.988644825156    -0.736740606949
    H            2.286588227931    -1.522085487781     0.769273504210
    H            2.643507765934     1.495420997985    -0.030597678862
    H            1.014157221381     2.009800483293     0.379568215096
    H            1.903778627278     0.946081716281     1.469180347393

  Mulliken Charges: (a.u.)
   Center  Symbol    Alpha    Beta     Spin     Total
       1     O     4.28476  4.28476  0.00000 -0.56952
       2     C     2.61860  2.61860  0.00000  0.76281
       3     C     3.28135  3.28135  0.00000 -0.56269
       4     O     4.31326  4.31326  0.00000 -0.62652
       5     H     0.40150  0.40150  0.00000  0.19700
       6     H     0.39736  0.39736  0.00000  0.20529
       7     H     0.40020  0.40020  0.00000  0.19959
       8     C     2.92838  2.92838  0.00000  0.14323
       9     C     3.24096  3.24096  0.00000 -0.48193
      10     C     3.24937  3.24937  0.00000 -0.49873
      11     H     0.40287  0.40287  0.00000  0.19426
      12     H     0.41293  0.41293  0.00000  0.17415
      13     H     0.41759  0.41759  0.00000  0.16482
      14     H     0.41374  0.41374  0.00000  0.17252
      15     H     0.41912  0.41912  0.00000  0.16176
      16     H     0.40085  0.40085  0.00000  0.19830
      17     H     0.41717  0.41717  0.00000  0.16566

   Total alpha = 28.00000, Total beta = 28.00000, Total charge = -0.00000
