  ==> Input File <==

--------------------------------------------------------------------------
set {
	reference rhf
	basis 6-31G*
}

set_num_threads( 1 )
memory 2 gb

molecule MOL {
0 1

H	 -1.202162	 0.905679	 2.997042
C	 -1.836058	 0.183085	 2.468217
C	 -2.345296	 0.644289	 1.126361
O	 -2.075737	 -0.872291	 2.958610
C	 -1.220012	 1.144545	 0.209990
H	 -2.897291	 -0.170089	 0.671610
H	 -3.044432	 1.458719	 1.312287
C	 -0.252658	 0.041456	 -0.226725
H	 -1.668355	 1.599643	 -0.668167
H	 -0.669371	 1.937427	 0.713865
C	 1.180775	 0.282413	 0.250794
H	 -0.266029	 -0.034465	 -1.312038
H	 -0.597733	 -0.921000	 0.146291
C	 2.148627	 -0.814315	 -0.201312
H	 1.516199	 1.249228	 -0.115937
H	 1.192670	 0.346017	 1.338083
C	 3.580890	 -0.659131	 0.322722
H	 2.166869	 -0.852443	 -1.289387
H	 1.762857	 -1.776509	 0.128956
C	 4.324889	 0.564933	 -0.213704
H	 4.142010	 -1.551473	 0.056605
H	 3.564836	 -0.624694	 1.410140
H	 4.342616	 0.565491	 -1.300421
H	 3.866655	 1.493402	 0.110242
H	 5.353900	 0.572371	 0.132816

	symmetry c1
}
set optking {
	frozen_dihedral = ("
		6 3 5 8,
		6 3 2 4,
		12 8 11 14,
		8 11 14 18,
		20 17 14 18
	")
}

ee = energy('scf')
oeprop('DIPOLE', 'QUADRUPOLE', 'MULLIKEN_CHARGES')
f=open( 'psi4out.xyz', 'w' )
f.write( "25  " )
f.write( str(ee) + "\n" )
f.write( MOL.save_string_xyz() )
f.close()
--------------------------------------------------------------------------

    Molecular point group: c1

    Geometry (in Angstrom), charge = 0, multiplicity = 1:

       Center              X                  Y                   Z               Mass
    ------------   -----------------  -----------------  -----------------  -----------------
           H         -1.603920301321     0.851626379435     2.243649644867     1.007825032070
           C         -2.237816301321     0.129032379435     1.714824644867    12.000000000000
           C         -2.747054301321     0.590236379435     0.372968644867    12.000000000000
           O         -2.477495301321    -0.926343620565     2.205217644867    15.994914619560
           C         -1.621770301321     1.090492379435    -0.543402355133    12.000000000000
           H         -3.299049301321    -0.224141620565    -0.081782355133     1.007825032070
           H         -3.446190301321     1.404666379435     0.558894644867     1.007825032070
           C         -0.654416301321    -0.012596620565    -0.980117355133    12.000000000000
           H         -2.070113301321     1.545590379435    -1.421559355133     1.007825032070
           H         -1.071129301321     1.883374379435    -0.039527355133     1.007825032070
           C          0.779016698679     0.228360379435    -0.502598355133    12.000000000000
           H         -0.667787301321    -0.088517620565    -2.065430355133     1.007825032070
           H         -0.999491301321    -0.975052620565    -0.607101355133     1.007825032070
           C          1.746868698679    -0.868367620565    -0.954704355133    12.000000000000
           H          1.114440698679     1.195175379435    -0.869329355133     1.007825032070
           H          0.790911698679     0.291964379435     0.584690644867     1.007825032070
           C          3.179131698679    -0.713183620565    -0.430670355133    12.000000000000
           H          1.765110698679    -0.906495620565    -2.042779355133     1.007825032070
           H          1.361098698679    -1.830561620565    -0.624436355133     1.007825032070
           C          3.923130698679     0.510880379435    -0.967096355133    12.000000000000
           H          3.740251698679    -1.605525620565    -0.696787355133     1.007825032070
           H          3.163077698679    -0.678746620565     0.656747644867     1.007825032070
           H          3.940857698679     0.511438379435    -2.053813355133     1.007825032070
           H          3.464896698679     1.439349379435    -0.643150355133     1.007825032070
           H          4.952141698679     0.518318379435    -0.620576355133     1.007825032070

  Charge       = 0
  Multiplicity = 1
  Basis Set: 6-31G*
  Basis Set:

    Orbital Energies (a.u.)
    -----------------------

    Doubly Occupied:

       1A    -20.563039     2A    -11.326539     3A    -11.234882
       4A    -11.233280     5A    -11.221601     6A    -11.219868
       7A    -11.216846     8A    -11.215703     9A    -11.210012
      10A     -1.402870    11A     -1.104122    12A     -1.068656
      13A     -1.011981    14A     -0.942547    15A     -0.876666
      16A     -0.817430    17A     -0.790199    18A     -0.780050
      19A     -0.664408    20A     -0.656229    21A     -0.641509
      22A     -0.619512    23A     -0.613318    24A     -0.580821
      25A     -0.572559    26A     -0.560751    27A     -0.531604
      28A     -0.521992    29A     -0.510402    30A     -0.501540
      31A     -0.486623    32A     -0.474610    33A     -0.461897
      34A     -0.458267    35A     -0.440910    36A     -0.409583

  @DF-RHF Final Energy:  -387.11639769432020

   => Energetics <=

    Nuclear Repulsion Energy =            447.0092595510521960
    One-Electron Energy =               -1410.3656718965869459
    Two-Electron Energy =                 576.2400146512120500
    DFT Exchange-Correlation Energy =       0.0000000000000000
    Empirical Dispersion Energy =           0.0000000000000000
    PCM Polarization Energy =               0.0000000000000000
    EFP Energy =                            0.0000000000000000
    Total Energy =                       -387.1163976943226999

  Mulliken Charges: (a.u.)
   Center  Symbol    Alpha    Beta     Spin     Total
       1     H     0.43232  0.43232  0.00000  0.13535
       2     C     2.83043  2.83043  0.00000  0.33914
       3     C     3.20933  3.20933  0.00000 -0.41865
       4     O     4.23803  4.23803  0.00000 -0.47605
       5     C     3.16814  3.16814  0.00000 -0.33629
       6     H     0.39948  0.39948  0.00000  0.20103
       7     H     0.40798  0.40798  0.00000  0.18404
       8     C     3.16139  3.16139  0.00000 -0.32278
       9     H     0.41045  0.41045  0.00000  0.17909
      10     H     0.41678  0.41678  0.00000  0.16643
      11     C     3.15692  3.15692  0.00000 -0.31384
      12     H     0.41673  0.41673  0.00000  0.16655
      13     H     0.41223  0.41223  0.00000  0.17554
      14     C     3.15374  3.15374  0.00000 -0.30748
      15     H     0.42040  0.42040  0.00000  0.15920
      16     H     0.42415  0.42415  0.00000  0.15169
      17     C     3.15285  3.15285  0.00000 -0.30569
      18     H     0.42394  0.42394  0.00000  0.15212
      19     H     0.41911  0.41911  0.00000  0.16178
      20     C     3.24121  3.24121  0.00000 -0.48242
      21     H     0.42006  0.42006  0.00000  0.15987
      22     H     0.42233  0.42233  0.00000  0.15535
      23     H     0.42229  0.42229  0.00000  0.15541
      24     H     0.42108  0.42108  0.00000  0.15783
      25     H     0.41862  0.41862  0.00000  0.16276

   Total alpha = 36.00000, Total beta = 36.00000, Total charge =  0.00000
