                              Psi4 1.0.54 Driver

  ==> Input File <==

--------------------------------------------------------------------------
set {
	reference rhf
	basis cc-pvtz
}

set_num_threads( 4 )
memory 2 gb

molecule MOL {
0 1

H	 -0.873467	 -1.327128	 -1.329947
C	 0.000113	 -1.285376	 -0.688492
C	 -0.000000	 -0.000000	 0.105215
H	 0.000747	 -2.130943	 -0.018351
H	 0.873014	 -1.326507	 -1.330910
C	 -0.000113	 1.285376	 -0.688492
O	 0.000000	 -0.000000	 1.292202
H	 -0.873014	 1.326507	 -1.330910
H	 -0.000747	 2.130943	 -0.018351
H	 0.873467	 1.327128	 -1.329947

	symmetry c1
}
ee,wfn = energy('scf', return_wfn=True)
oeprop( wfn, 'DIPOLE', 'QUADRUPOLE', 'MULLIKEN_CHARGES')
oeprop( wfn, 'GRID_ESP')
f=open( 'psi4out.xyz', 'w' )
f.write( "10  " )
f.write( str(ee) + "\n" )
f.write( MOL.save_string_xyz() )
f.close()
--------------------------------------------------------------------------

    Molecular point group: c1

    Geometry (in Angstrom), charge = 0, multiplicity = 1:

       Center              X                  Y                   Z               Mass
    ------------   -----------------  -----------------  -----------------  -----------------
           H         -0.873467000000    -1.327128000000    -1.330069099526     1.007825032070
           C          0.000113000000    -1.285376000000    -0.688614099526    12.000000000000
           C          0.000000000000    -0.000000000000     0.105092900474    12.000000000000
           H          0.000747000000    -2.130943000000    -0.018473099526     1.007825032070
           H          0.873014000000    -1.326507000000    -1.331032099526     1.007825032070
           C         -0.000113000000     1.285376000000    -0.688614099526    12.000000000000
           O          0.000000000000    -0.000000000000     1.292079900474    15.994914619560
           H         -0.873014000000     1.326507000000    -1.331032099526     1.007825032070
           H         -0.000747000000     2.130943000000    -0.018473099526     1.007825032070
           H          0.873467000000     1.327128000000    -1.330069099526     1.007825032070

  Charge       = 0
  Multiplicity = 1
  Basis Set: CC-PVTZ
  Basis Set:

    Orbital Energies (a.u.)
    -----------------------

    Doubly Occupied:

       1A    -20.540683     2A    -11.324733     3A    -11.229045
       4A    -11.229022     5A     -1.400672     6A     -1.041332
       7A     -0.969298     8A     -0.740708     9A     -0.650054
      10A     -0.639105    11A     -0.626552    12A     -0.564391
      13A     -0.561066    14A     -0.538687    15A     -0.495314
      16A     -0.409369

  @DF-RHF Final Energy:  -192.03514713155295

   => Energetics <=

    Nuclear Repulsion Energy =            120.4847205984454490
    One-Electron Energy =                -499.1196029609316724
    Two-Electron Energy =                 186.5997352309334190
    DFT Exchange-Correlation Energy =       0.0000000000000000
    Empirical Dispersion Energy =           0.0000000000000000
    PCM Polarization Energy =               0.0000000000000000
    EFP Energy =                            0.0000000000000000
    Total Energy =                       -192.0351471315528045

  Mulliken Charges: (a.u.)
   Center  Symbol    Alpha    Beta     Spin     Total
       1     H     0.45147  0.45147  0.00000  0.09705
       2     C     3.14913  3.14913  0.00000 -0.29825
       3     C     2.85552  2.85552  0.00000  0.28896
       4     H     0.43613  0.43613  0.00000  0.12774
       5     H     0.45149  0.45149  0.00000  0.09702
       6     C     3.14913  3.14913  0.00000 -0.29825
       7     O     4.16805  4.16805  0.00000 -0.33609
       8     H     0.45149  0.45149  0.00000  0.09703
       9     H     0.43613  0.43613  0.00000  0.12774
      10     H     0.45147  0.45147  0.00000  0.09705

   Total alpha = 16.00000, Total beta = 16.00000, Total charge = -0.00000

*** Psi4 exiting successfully. Buy a developer a beer!
