  ==> Input File <==

--------------------------------------------------------------------------
set {
	reference rhf
	basis cc-pvtz
}

set_num_threads( 4 )
memory 2 gb

molecule MOL {
0 1

O	 1.507815	 -0.177831	 0.656359
C	 0.576499	 0.134701	 -0.003900
C	 -0.765656	 -0.550508	 -0.002152
O	 0.598425	 1.146127	 -0.856255
C	 -1.945526	 0.411052	 0.000603
H	 -0.794329	 -1.203792	 -0.868145
H	 -0.791555	 -1.205429	 0.862701
C	 -3.282915	 -0.321280	 0.002596
H	 -1.880300	 1.059126	 -0.864925
H	 -1.877207	 1.057892	 0.866807
H	 -3.388495	 -0.952755	 -0.873419
H	 -4.107811	 0.380864	 0.004116
H	 -3.385717	 -0.953283	 0.878571
C	 1.802896	 1.878013	 -0.963976
H	 2.064808	 2.322474	 -0.015340
H	 1.618958	 2.646371	 -1.697107
H	 2.609950	 1.238187	 -1.288519

	symmetry c1
}
set optking {
	frozen_dihedral = ("
		1 2 3 6
	")
}

ee = optimize('scf')
oeprop('DIPOLE', 'QUADRUPOLE', 'MULLIKEN_CHARGES')
f=open( 'psi4out.xyz', 'w' )
f.write( "17  " )
f.write( str(ee) + "\n" )
f.write( MOL.save_string_xyz() )
f.close()
--------------------------------------------------------------------------

    Molecular point group: c1
  Charge       = 0
  Multiplicity = 1
  Basis Set: CC-PVTZ
  Basis Set:
  @DF-RHF Final Energy:  -345.03326138060038
    Total Energy =                       -345.0332613806004929
    Molecular point group: c1
  Basis Set: CC-PVTZ
  Basis Set:
  Basis Set: CC-PVTZ
  Basis Set:
  @DF-RHF Final Energy:  -345.03254844720539
    Total Energy =                       -345.0325484472054995
  Basis Set: CC-PVTZ
  Basis Set:
  Basis Set: CC-PVTZ
  Basis Set:
  @DF-RHF Final Energy:  -345.03339855486036
    Total Energy =                       -345.0333985548605824
  Basis Set: CC-PVTZ
  Basis Set:
  Basis Set: CC-PVTZ
  Basis Set:
  @DF-RHF Final Energy:  -345.03370809655121
    Total Energy =                       -345.0337080965510950
  Basis Set: CC-PVTZ
  Basis Set:
  Basis Set: CC-PVTZ
  Basis Set:
  @DF-RHF Final Energy:  -345.03371162320155
    Total Energy =                       -345.0337116232013841
  Basis Set: CC-PVTZ
  Basis Set:
  Charge       = 0
  Multiplicity = 1
  Basis Set: CC-PVTZ
  Basis Set:

    Orbital Energies (a.u.)
    -----------------------

    Doubly Occupied:

       1A    -20.597971     2A    -20.532385     3A    -11.364399
       4A    -11.279211     5A    -11.233871     6A    -11.227253
       7A    -11.215971     8A     -1.472823     9A     -1.364909
      10A     -1.084997    11A     -0.999341    12A     -0.943177
      13A     -0.832375    14A     -0.776694    15A     -0.699067
      16A     -0.684679    17A     -0.676051    18A     -0.639048
      19A     -0.597602    20A     -0.576457    21A     -0.554509
      22A     -0.541239    23A     -0.526257    24A     -0.513720
      25A     -0.490548    26A     -0.482454    27A     -0.459509
      28A     -0.434569

  @DF-RHF Final Energy:  -345.03371212315062

   => Energetics <=

    Nuclear Repulsion Energy =            314.7472612008905344
    One-Electron Energy =               -1093.9597756844163996
    Two-Electron Energy =                 434.1788023603755846
    DFT Exchange-Correlation Energy =       0.0000000000000000
    Empirical Dispersion Energy =           0.0000000000000000
    PCM Polarization Energy =               0.0000000000000000
    EFP Energy =                            0.0000000000000000
    Total Energy =                       -345.0337121231502806
    Molecular point group: c1
  Basis Set: CC-PVTZ
  Basis Set:

  -Total Gradient:
     Atom            X                  Y                   Z
    ------   -----------------  -----------------  -----------------
       1        0.000194670787    -0.000461584841    -0.000612260243
       2       -0.000226881285     0.000461308430     0.001012883619
       3       -0.000235930351     0.000488881484    -0.000723577097
       4       -0.000000400819     0.000081818516    -0.000064196355
       5        0.000004660319    -0.000006426095    -0.000032246827
       6        0.000288572121    -0.000560208501     0.000396325482
       7        0.000002166033     0.000007149944    -0.000004551512
       8       -0.000006986876     0.000002230855     0.000020482580
       9        0.000006195380     0.000002658808    -0.000001314545
      10       -0.000005363261    -0.000003803055     0.000001910530
      11        0.000003721900     0.000005984315    -0.000002308139
      12       -0.000001843805    -0.000000545960     0.000003218825
      13       -0.000002690936    -0.000006204834    -0.000002949580
      14       -0.000031280211    -0.000018342649     0.000017302463
      15        0.000008152709     0.000005772998    -0.000002814627
      16       -0.000001621597     0.000000227839    -0.000002951043
      17        0.000004859894     0.000001082747    -0.000002953532

  **** Optimization is complete! (in 6 steps) ****
    Final optimized geometry and variables:
    Molecular point group: c1

    Geometry (in Angstrom), charge = 0, multiplicity = 1:

    O            1.682796941072    -0.566682444599     0.821971920791
    C            0.761701431741    -0.219898937068     0.163444583369
    C           -0.581924682927    -0.904733453405     0.156618064168
    O            0.819653708438     0.797526819635    -0.678924692080
    C           -1.790082584264     0.030671640759     0.160930736998
    H           -0.604202068111    -1.535974312641    -0.727566150058
    H           -0.596393146681    -1.561937162131     1.014753574607
    C           -3.105255822595    -0.739304803349     0.207081003386
    H           -1.763735976032     0.661214883907    -0.717971516439
    H           -1.728206063012     0.692343320796     1.019412545986
    H           -3.209022265446    -1.388551551958    -0.655911908375
    H           -3.950302255891    -0.061383672109     0.214235703778
    H           -3.169018358736    -1.357899826427     1.095673519517
    C            2.049235910607     1.487576531878    -0.778411474233
    H            2.326639237642     1.910682556973     0.175482128115
    H            1.893063851577     2.270860954497    -1.502302720485
    H            2.832953142951     0.823037010722    -1.110440292609

  Mulliken Charges: (a.u.)
   Center  Symbol    Alpha    Beta     Spin     Total
       1     O     4.19972  4.19972  0.00000 -0.39945
       2     C     2.81195  2.81195  0.00000  0.37610
       3     C     3.08030  3.08030  0.00000 -0.16060
       4     O     4.14716  4.14716  0.00000 -0.29433
       5     C     3.08776  3.08776  0.00000 -0.17552
       6     H     0.44747  0.44747  0.00000  0.10507
       7     H     0.43660  0.43660  0.00000  0.12680
       8     C     3.15170  3.15170  0.00000 -0.30341
       9     H     0.44361  0.44361  0.00000  0.11277
      10     H     0.45050  0.45050  0.00000  0.09899
      11     H     0.45459  0.45459  0.00000  0.09082
      12     H     0.44611  0.44611  0.00000  0.10777
      13     H     0.45338  0.45338  0.00000  0.09324
      14     C     3.03596  3.03596  0.00000 -0.07192
      15     H     0.45386  0.45386  0.00000  0.09228
      16     H     0.44602  0.44602  0.00000  0.10796
      17     H     0.45330  0.45330  0.00000  0.09341

   Total alpha = 28.00000, Total beta = 28.00000, Total charge =  0.00000
