  ==> Input File <==

--------------------------------------------------------------------------
set {
	reference rhf
	basis 6-31G*
}

set_num_threads( 4 )
memory 2 gb

molecule MOL {
0 1

H	 -1.094629	 0.880353	 0.189658
N	 -0.712432	 0.000013	 -0.096310
C	 0.734192	 -0.000004	 0.040609
H	 -0.977086	 -0.134765	 -1.052684
H	 1.139899	 -0.873598	 -0.456463
H	 1.139939	 0.873831	 -0.456100
H	 1.096456	 -0.000300	 1.069655

	symmetry c1
}
set optking {
	frozen_dihedral = ("
		1 2 3 7
	")
}

ee = optimize('scf')
oeprop('DIPOLE', 'QUADRUPOLE', 'MULLIKEN_CHARGES')
f=open( 'psi4out.xyz', 'w' )
f.write( "7  " )
f.write( str(ee) + "\n" )
f.write( MOL.save_string_xyz() )
f.close()
--------------------------------------------------------------------------

    Molecular point group: c1
  Charge       = 0
  Multiplicity = 1
  Basis Set: 6-31G*
  Basis Set:
  @DF-RHF Final Energy:   -95.20750111797423
    Total Energy =                        -95.2075011179742177
    Molecular point group: c1
  Basis Set: 6-31G*
  Basis Set:
  Basis Set: 6-31G*
  Basis Set:
  @DF-RHF Final Energy:   -95.20942083547877
    Total Energy =                        -95.2094208354786531
  Basis Set: 6-31G*
  Basis Set:
  Basis Set: 6-31G*
  Basis Set:
  @DF-RHF Final Energy:   -95.20965261557163
    Total Energy =                        -95.2096526155715850
  Basis Set: 6-31G*
  Basis Set:
  Charge       = 0
  Multiplicity = 1
  Basis Set: 6-31G*
  Basis Set:

    Orbital Energies (a.u.)
    -----------------------

    Doubly Occupied:

       1A    -15.535169     2A    -11.237485     3A     -1.171263
       4A     -0.896707     5A     -0.663950     6A     -0.603467
       7A     -0.557224     8A     -0.516726     9A     -0.384726

  @DF-RHF Final Energy:   -95.20965385868269

   => Energetics <=

    Nuclear Repulsion Energy =             42.3321634542837444
    One-Electron Energy =                -211.9502009073844988
    Two-Electron Energy =                  74.4083835944181828
    DFT Exchange-Correlation Energy =       0.0000000000000000
    Empirical Dispersion Energy =           0.0000000000000000
    PCM Polarization Energy =               0.0000000000000000
    EFP Energy =                            0.0000000000000000
    Total Energy =                        -95.2096538586825716
    Molecular point group: c1
  Basis Set: 6-31G*
  Basis Set:

  -Total Gradient:
     Atom            X                  Y                   Z
    ------   -----------------  -----------------  -----------------
       1        0.000069441034     0.000419026685    -0.001081719679
       2        0.000106559115    -0.000735719378     0.001436065079
       3       -0.000170141121     0.001368434916    -0.000366330701
       4        0.000097285675    -0.000010570150     0.000026735683
       5       -0.000006447553    -0.000008276293    -0.000004517313
       6       -0.000035325522     0.000039049098    -0.000015199446
       7       -0.000061371628    -0.001071944879     0.000004966378

  **** Optimization is complete! (in 4 steps) ****
    Final optimized geometry and variables:
    Molecular point group: c1

    Geometry (in Angstrom), charge = 0, multiplicity = 1:

    H           -1.111086781303     0.829518858814     0.279442401415
    N           -0.717745679995    -0.038223227828    -0.029902800593
    C            0.732308271189    -0.006446645277     0.067540583232
    H           -0.999952716315    -0.153412618628    -0.983984296413
    H            1.136871792327    -0.904880342175    -0.384328270299
    H            1.204477849489     0.851917325450    -0.411751150338
    H            1.022830608533    -0.015297206731     1.111907147342

  Mulliken Charges: (a.u.)
   Center  Symbol    Alpha    Beta     Spin     Total
       1     H     0.33399  0.33399  0.00000  0.33203
       2     N     3.91607  3.91607  0.00000 -0.83214
       3     C     3.14834  3.14834  0.00000 -0.29669
       4     H     0.33412  0.33412  0.00000  0.33176
       5     H     0.41775  0.41775  0.00000  0.16449
       6     H     0.43317  0.43317  0.00000  0.13366
       7     H     0.41655  0.41655  0.00000  0.16689

   Total alpha =  9.00000, Total beta =  9.00000, Total charge = -0.00000
