  ==> Input File <==

--------------------------------------------------------------------------
set {
	reference rhf
	basis cc-pvtz
}

set_num_threads( 4 )
memory 2 gb

molecule MOL {
0 1

H	 2.295242	 2.495517	 -0.308869
N	 1.512285	 1.882401	 -0.390631
C	 1.860978	 0.530248	 0.016256
H	 1.220497	 1.903095	 -1.345503
C	 0.644130	 -0.381765	 -0.031064
H	 2.234071	 0.576300	 1.033895
H	 2.657825	 0.097027	 -0.589805
C	 -0.678115	 0.376691	 0.025731
H	 0.693998	 -0.977147	 -0.936845
H	 0.693309	 -1.082142	 0.800523
C	 -1.900706	 -0.535531	 -0.022488
H	 -0.725296	 1.079516	 -0.802982
H	 -0.715474	 0.974884	 0.933278
C	 -3.220513	 0.226854	 0.028039
H	 -1.865036	 -1.134397	 -0.928236
H	 -1.857948	 -1.236381	 0.806820
H	 -3.309098	 0.911849	 -0.808725
H	 -4.066838	 -0.449485	 -0.008086
H	 -3.301685	 0.809374	 0.939860

	symmetry c1
}
set optking {
	frozen_dihedral = ("
		6 3 5 9
	")
}

ee = optimize('scf')
oeprop('DIPOLE', 'QUADRUPOLE', 'MULLIKEN_CHARGES')
f=open( 'psi4out.xyz', 'w' )
f.write( "19  " )
f.write( str(ee) + "\n" )
f.write( MOL.save_string_xyz() )
f.close()
--------------------------------------------------------------------------

    Molecular point group: c1
  Charge       = 0
  Multiplicity = 1
  Basis Set: CC-PVTZ
  Basis Set:
  @DF-RHF Final Energy:  -251.43862973222144
    Total Energy =                       -251.4386297322214432
    Molecular point group: c1
  Basis Set: CC-PVTZ
  Basis Set:
  Basis Set: CC-PVTZ
  Basis Set:
  @DF-RHF Final Energy:  -251.43994967488655
    Total Energy =                       -251.4399496748866341
  Basis Set: CC-PVTZ
  Basis Set:
  Basis Set: CC-PVTZ
  Basis Set:
  @DF-RHF Final Energy:  -251.44147879023467
    Total Energy =                       -251.4414787902345552
  Basis Set: CC-PVTZ
  Basis Set:
  Basis Set: CC-PVTZ
  Basis Set:
  @DF-RHF Final Energy:  -251.44159369209981
    Total Energy =                       -251.4415936920996728
  Basis Set: CC-PVTZ
  Basis Set:
  Basis Set: CC-PVTZ
  Basis Set:
  @DF-RHF Final Energy:  -251.44160289840070
    Total Energy =                       -251.4416028984007312
  Basis Set: CC-PVTZ
  Basis Set:
  Charge       = 0
  Multiplicity = 1
  Basis Set: CC-PVTZ
  Basis Set:

    Orbital Energies (a.u.)
    -----------------------

    Doubly Occupied:

       1A    -15.527555     2A    -11.239210     3A    -11.208431
       4A    -11.207340     5A    -11.202531     6A    -11.201457
       7A     -1.178597     8A     -1.067768     9A     -0.994865
      10A     -0.905065    11A     -0.812562    12A     -0.777885
      13A     -0.668388    14A     -0.634504    15A     -0.619389
      16A     -0.583764    17A     -0.566569    18A     -0.548590
      19A     -0.528304    20A     -0.497175    21A     -0.475779
      22A     -0.463944    23A     -0.452428    24A     -0.447263
      25A     -0.381212

  @DF-RHF Final Energy:  -251.44160368471492

   => Energetics <=

    Nuclear Repulsion Energy =            249.6599842007298378
    One-Electron Energy =                -833.8220168210405063
    Two-Electron Energy =                 332.7204289355959190
    DFT Exchange-Correlation Energy =       0.0000000000000000
    Empirical Dispersion Energy =           0.0000000000000000
    PCM Polarization Energy =               0.0000000000000000
    EFP Energy =                            0.0000000000000000
    Total Energy =                       -251.4416036847147780
    Molecular point group: c1
  Basis Set: CC-PVTZ
  Basis Set:

  -Total Gradient:
     Atom            X                  Y                   Z
    ------   -----------------  -----------------  -----------------
       1       -0.000006114246    -0.000032023289     0.000003791966
       2       -0.000034850500     0.000036062362    -0.000018826579
       3       -0.003883102320     0.005299041769     0.002070616567
       4        0.000001197797     0.000006966492     0.000000060589
       5       -0.002795663421     0.004667993934    -0.004414125050
       6        0.003737585084    -0.005248120113    -0.001024611945
       7       -0.000015750396    -0.000014231338     0.000004327800
       8       -0.000004615031     0.000019561376     0.000019085290
       9        0.002999585563    -0.004760022096     0.003313620262
      10        0.000009131392     0.000032501432     0.000007851683
      11       -0.000006326282    -0.000014390732     0.000059562142
      12       -0.000000108664     0.000007895194     0.000008391111
      13       -0.000013932739    -0.000008574777     0.000007891925
      14        0.000010813886     0.000007638503    -0.000044279400
      15        0.000002442464     0.000002441296     0.000009044884
      16       -0.000004461402    -0.000001112856     0.000011097860
      17       -0.000009044567     0.000015870033     0.000001522023
      18        0.000005005772    -0.000001623946    -0.000014606864
      19        0.000008207610    -0.000015873241    -0.000000414262

  **** Optimization is complete! (in 6 steps) ****
    Final optimized geometry and variables:
    Molecular point group: c1

    Geometry (in Angstrom), charge = 0, multiplicity = 1:

    H            2.777285163481     2.074377878666    -0.188073028728
    N            1.954903098986     1.534247084242    -0.353846845508
    C            2.138024223692     0.170664072641     0.115249711640
    H            1.786019179389     1.555079832870    -1.338070859060
    C            0.879317759736    -0.705514961919    -0.005187441898
    H            2.459718153409     0.196183040361     1.149964868733
    H            2.945399078618    -0.340479722283    -0.410594732520
    C           -0.459519141693     0.018514382244     0.085686299934
    H            0.935838818573    -1.305403434114    -0.909910179778
    H            0.927107545532    -1.438661467769     0.796446172418
    C           -1.645934973842    -0.941848959500     0.074788844557
    H           -0.560477094338     0.721446915571    -0.733626042261
    H           -0.483656820421     0.616459547290     0.991725543862
    C           -2.992014501655    -0.228534744663     0.147399708786
    H           -1.610066514340    -1.549480830815    -0.825895634606
    H           -1.560144589872    -1.632345391665     0.909675941899
    H           -3.124304576818     0.443986850798    -0.693672969052
    H           -3.813695683965    -0.935803828527     0.137516105081
    H           -3.073419588608     0.360762815031     1.054681102493

  Mulliken Charges: (a.u.)
   Center  Symbol    Alpha    Beta     Spin     Total
       1     H     0.42914  0.42914  0.00000  0.14173
       2     N     3.68549  3.68549  0.00000 -0.37098
       3     C     3.03653  3.03653  0.00000 -0.07305
       4     H     0.43196  0.43196  0.00000  0.13607
       5     C     3.10522  3.10522  0.00000 -0.21043
       6     H     0.45531  0.45531  0.00000  0.08937
       7     H     0.46206  0.46206  0.00000  0.07589
       8     C     3.07266  3.07266  0.00000 -0.14531
       9     H     0.45227  0.45227  0.00000  0.09545
      10     H     0.45414  0.45414  0.00000  0.09172
      11     C     3.08474  3.08474  0.00000 -0.16947
      12     H     0.45595  0.45595  0.00000  0.08809
      13     H     0.45186  0.45186  0.00000  0.09628
      14     C     3.14983  3.14983  0.00000 -0.29966
      15     H     0.45674  0.45674  0.00000  0.08651
      16     H     0.45577  0.45577  0.00000  0.08846
      17     H     0.45568  0.45568  0.00000  0.08864
      18     H     0.44974  0.44974  0.00000  0.10053
      19     H     0.45492  0.45492  0.00000  0.09016

   Total alpha = 25.00000, Total beta = 25.00000, Total charge = -0.00000
