                              Psi4 1.0.54 Driver

  ==> Input File <==

--------------------------------------------------------------------------
set {
	reference rhf
	basis cc-pvtz
}

set_num_threads( 4 )
memory 2 gb

molecule MOL {
0 1

O	 -2.494773	 0.863003	 1.455202
C	 -2.493104	 -0.104532	 0.772342
C	 -3.648193	 -1.064626	 0.681388
O	 -1.481217	 -0.452708	 0.001092
H	 -4.524189	 -0.519285	 0.356868
H	 -3.445514	 -1.875653	 0.000362
H	 -3.850462	 -1.453799	 1.670178
C	 -0.332055	 0.384012	 -0.000250
C	 0.892252	 -0.506059	 -0.000295
H	 -0.360822	 1.020205	 -0.874146
H	 -0.359817	 1.021310	 0.872861
C	 2.188199	 0.299473	 -0.001416
H	 0.857046	 -1.152781	 -0.871031
H	 0.857910	 -1.151798	 0.871202
C	 3.437151	 -0.577593	 -0.000991
H	 2.209565	 0.950707	 -0.871712
H	 2.210062	 0.952234	 0.867721
C	 4.732399	 0.226982	 -0.000914
H	 3.417321	 -1.229122	 -0.869998
H	 3.416993	 -1.228707	 0.868337
H	 4.797903	 0.863451	 -0.876963
H	 5.598517	 -0.424436	 -0.000420
H	 4.797415	 0.864118	 0.874691

	symmetry c1
}
set optking {
	frozen_dihedral = ("
		2 4 8 10
	")
}

ee,wfn = optimize('scf', return_wfn=True)
oeprop( wfn, 'DIPOLE', 'QUADRUPOLE', 'MULLIKEN_CHARGES')
f=open( 'psi4out.xyz', 'w' )
f.write( "23  " )
f.write( str(ee) + "\n" )
f.write( MOL.save_string_xyz() )
f.close()
--------------------------------------------------------------------------

    Molecular point group: c1
  Charge       = 0
  Multiplicity = 1
  Basis Set: CC-PVTZ
  Basis Set:
  @DF-RHF Final Energy:  -423.13264140743013
    Total Energy =                       -423.1326414074299009
    Molecular point group: c1
  Basis Set: CC-PVTZ
  Basis Set:
  Basis Set: CC-PVTZ
  Basis Set:
  @DF-RHF Final Energy:  -423.13261675844808
    Total Energy =                       -423.1326167584483073
  Basis Set: CC-PVTZ
  Basis Set:
  Basis Set: CC-PVTZ
  Basis Set:
  @DF-RHF Final Energy:  -423.13241845524158
    Total Energy =                       -423.1324184552408951
  Basis Set: CC-PVTZ
  Basis Set:
  Basis Set: CC-PVTZ
  Basis Set:
  @DF-RHF Final Energy:  -423.13315075215593
    Total Energy =                       -423.1331507521554158
  Basis Set: CC-PVTZ
  Basis Set:
  Basis Set: CC-PVTZ
  Basis Set:
  @DF-RHF Final Energy:  -423.13318244657592
    Total Energy =                       -423.1331824465759155
  Basis Set: CC-PVTZ
  Basis Set:
  Charge       = 0
  Multiplicity = 1
  Basis Set: CC-PVTZ
  Basis Set:

    Orbital Energies (a.u.)
    -----------------------

    Doubly Occupied:

       1A    -20.595195     2A    -20.528923     3A    -11.367507
       4A    -11.278408     5A    -11.230146     6A    -11.222177
       7A    -11.221244     8A    -11.219390     9A    -11.210825
      10A     -1.469043    11A     -1.364449    12A     -1.095041
      13A     -1.043153    14A     -1.003845    15A     -0.932292
      16A     -0.844878    17A     -0.801798    18A     -0.775077
      19A     -0.698750    20A     -0.684170    21A     -0.666785
      22A     -0.649023    23A     -0.607025    24A     -0.588785
      25A     -0.585593    26A     -0.571019    27A     -0.555406
      28A     -0.538687    29A     -0.524302    30A     -0.507007
      31A     -0.491162    32A     -0.478671    33A     -0.472912
      34A     -0.470833    35A     -0.448297    36A     -0.437206

  @DF-RHF Final Energy:  -423.13318332435711

   => Energetics <=

    Nuclear Repulsion Energy =            451.0462418673671436
    One-Electron Energy =               -1470.0008045490094446
    Two-Electron Energy =                 595.8213793572851955
    DFT Exchange-Correlation Energy =       0.0000000000000000
    Empirical Dispersion Energy =           0.0000000000000000
    PCM Polarization Energy =               0.0000000000000000
    EFP Energy =                            0.0000000000000000
    Total Energy =                       -423.1331833243571054
    Molecular point group: c1
  Basis Set: CC-PVTZ
  Basis Set:

  -Total Gradient:
     Atom            X                  Y                   Z
    ------   -----------------  -----------------  -----------------
       1       -0.000055597298     0.000025598933     0.000036797470
       2        0.000480189603    -0.000623670594     0.000734555826
       3        0.000004689817     0.000056852255     0.000006211475
       4       -0.000547458801     0.000493618002    -0.001175563399
       5        0.000030228055    -0.000017944429     0.000014443745
       6       -0.000000923529     0.000006085070     0.000004278325
       7        0.000015832346     0.000020781143    -0.000033442869
       8       -0.000525328087     0.000825353777     0.000910045646
       9       -0.000038187691    -0.000001050761     0.000021784919
      10        0.000649456722    -0.000754313651    -0.000541872087
      11        0.000009165753    -0.000031557293    -0.000011055044
      12       -0.000018593205     0.000010758103     0.000017374489
      13       -0.000013866119     0.000010496303     0.000005568779
      14        0.000016461065    -0.000014857302     0.000008414437
      15       -0.000008074089    -0.000009478718     0.000002885470
      16       -0.000003208203    -0.000002123693     0.000009058794
      17        0.000003476458     0.000001825335    -0.000000793040
      18        0.000002658044     0.000003354619    -0.000007481797
      19       -0.000000273284    -0.000002952034     0.000003998887
      20        0.000000018468     0.000005502309    -0.000002787007
      21        0.000001471836     0.000000237584     0.000003071490
      22       -0.000000784102     0.000001327649    -0.000002535551
      23       -0.000001353764    -0.000003842607    -0.000002958956

  **** Optimization is complete! (in 6 steps) ****
    Final optimized geometry and variables:
    Molecular point group: c1

    Geometry (in Angstrom), charge = 0, multiplicity = 1:

    O           -2.672356897154     0.963892749595     1.068110439501
    C           -2.596205782085    -0.018605997600     0.411618193810
    C           -3.706193822580    -1.029143474943     0.300888840482
    O           -1.539917934723    -0.355126305821    -0.304707575072
    H           -4.588111271564    -0.530235458739    -0.077763820350
    H           -3.441156299782    -1.851014855572    -0.344691080251
    H           -3.936042716846    -1.396058546524     1.292209250027
    C           -0.387214172221     0.478867287258    -0.293783240032
    C            0.845990905714    -0.401667780028    -0.269940166772
    H           -0.409401618059     1.079882983867    -1.194333032715
    H           -0.425279797413     1.135046101546     0.559779643162
    C            2.134597040882     0.414090380288    -0.318523868787
    H            0.808283110726    -1.086134147324    -1.111211604711
    H            0.825651833127    -1.008743432973     0.629762091797
    C            3.391608626506    -0.450900801046    -0.291888650451
    H            2.142030823690     1.026467947288    -1.217059066887
    H            2.158124172431     1.104734776567     0.520796971912
    C            4.679122556377     0.364400498962    -0.343058745685
    H            3.368642750425    -1.141893248842    -1.129884050635
    H            3.386928881742    -1.061439229269     0.606622704359
    H            4.729400548626     0.960590230588    -1.248074178668
    H            5.551216977243    -0.278724462910    -0.322362391659
    H            4.747492557994     1.041569334973     0.501728961139

  Mulliken Charges: (a.u.)
   Center  Symbol    Alpha    Beta     Spin     Total
       1     O     4.20315  4.20315  0.00000 -0.40630
       2     C     2.80885  2.80885  0.00000  0.38230
       3     C     3.14274  3.14274  0.00000 -0.28549
       4     O     4.15000  4.15000  0.00000 -0.30001
       5     H     0.44210  0.44210  0.00000  0.11580
       6     H     0.44210  0.44210  0.00000  0.11579
       7     H     0.44240  0.44240  0.00000  0.11520
       8     C     2.98468  2.98468  0.00000  0.03063
       9     C     3.08280  3.08280  0.00000 -0.16561
      10     H     0.45427  0.45427  0.00000  0.09145
      11     H     0.44271  0.44271  0.00000  0.11459
      12     C     3.09862  3.09862  0.00000 -0.19725
      13     H     0.45024  0.45024  0.00000  0.09952
      14     H     0.45176  0.45176  0.00000  0.09648
      15     C     3.08478  3.08478  0.00000 -0.16957
      16     H     0.45380  0.45380  0.00000  0.09239
      17     H     0.45162  0.45162  0.00000  0.09675
      18     C     3.14971  3.14971  0.00000 -0.29941
      19     H     0.45361  0.45361  0.00000  0.09278
      20     H     0.45321  0.45321  0.00000  0.09357
      21     H     0.45485  0.45485  0.00000  0.09030
      22     H     0.44767  0.44767  0.00000  0.10466
      23     H     0.45430  0.45430  0.00000  0.09140

   Total alpha = 36.00000, Total beta = 36.00000, Total charge =  0.00000

*** Psi4 exiting successfully. Buy a developer a beer!
