  ==> Input File <==

--------------------------------------------------------------------------
set {
	reference rhf
	basis cc-pvtz
}

set_num_threads( 4 )
memory 2 gb

molecule MOL {
0 1

O	 3.219313	 0.959291	 -0.614106
C	 2.698710	 0.058177	 -0.050237
C	 1.246364	 -0.005813	 0.348416
O	 3.344101	 -1.038700	 0.312317
C	 0.453207	 1.232821	 -0.049003
H	 0.839270	 -0.907818	 -0.092281
H	 1.216683	 -0.160521	 1.422434
C	 -0.998367	 1.217982	 0.432195
H	 0.481498	 1.345443	 -1.127236
H	 0.951413	 2.105557	 0.354893
C	 -1.882951	 0.151251	 -0.211235
H	 -1.429490	 2.193659	 0.228843
H	 -1.019755	 1.099323	 1.513279
C	 -3.342450	 0.243269	 0.226009
H	 -1.826223	 0.246578	 -1.293162
H	 -1.508033	 -0.839650	 0.027695
C	 -4.234517	 -0.821434	 -0.405970
H	 -3.730149	 1.228245	 -0.022691
H	 -3.398860	 0.159952	 1.308941
C	 -4.278028	 -2.119281	 0.393703
H	 -5.242467	 -0.429098	 -0.510037
H	 -3.884667	 -1.031317	 -1.413150
H	 -4.918999	 -2.852762	 -0.081843
H	 -4.657493	 -1.948917	 1.395747
H	 -3.288824	 -2.555292	 0.486318
C	 4.720529	 -1.114346	 0.001449
H	 4.874321	 -1.055557	 -1.065852
H	 5.057824	 -2.067950	 0.373977
H	 5.264321	 -0.313596	 0.480350

	symmetry c1
}
set optking {
	frozen_dihedral = ("
		21 17 14 11
	")
}

ee = optimize('scf')
oeprop('DIPOLE', 'QUADRUPOLE', 'MULLIKEN_CHARGES')
f=open( 'psi4out.xyz', 'w' )
f.write( "29  " )
f.write( str(ee) + "\n" )
f.write( MOL.save_string_xyz() )
f.close()
--------------------------------------------------------------------------

    Molecular point group: c1
  Charge       = 0
  Multiplicity = 1
  Basis Set: CC-PVTZ
  Basis Set:
  @DF-RHF Final Energy:  -501.22172454265274
    Total Energy =                       -501.2217245426516001
    Molecular point group: c1
  Basis Set: CC-PVTZ
  Basis Set:
  Basis Set: CC-PVTZ
  Basis Set:
  @DF-RHF Final Energy:  -501.22194407883001
    Total Energy =                       -501.2219440788298925
  Basis Set: CC-PVTZ
  Basis Set:
  Basis Set: CC-PVTZ
  Basis Set:
  @DF-RHF Final Energy:  -501.22196703741758
    Total Energy =                       -501.2219670374174711
  Basis Set: CC-PVTZ
  Basis Set:
  Basis Set: CC-PVTZ
  Basis Set:
  @DF-RHF Final Energy:  -501.22184874782090
    Total Energy =                       -501.2218487478203315
  Basis Set: CC-PVTZ
  Basis Set:
  Basis Set: CC-PVTZ
  Basis Set:
  @DF-RHF Final Energy:  -501.22198202781180
    Total Energy =                       -501.2219820278116913
  Basis Set: CC-PVTZ
  Basis Set:
  Charge       = 0
  Multiplicity = 1
  Basis Set: CC-PVTZ
  Basis Set:

    Orbital Energies (a.u.)
    -----------------------

    Doubly Occupied:

       1A    -20.596028     2A    -20.533875     3A    -11.364290
       4A    -11.278270     5A    -11.233006     6A    -11.217070
       7A    -11.215445     8A    -11.213938     9A    -11.213749
      10A    -11.212329    11A    -11.207813    12A     -1.471921
      13A     -1.365509    14A     -1.099183    15A     -1.067253
      16A     -1.019608    17A     -0.977304    18A     -0.929018
      19A     -0.867544    20A     -0.802200    21A     -0.785495
      22A     -0.765897    23A     -0.702997    24A     -0.685519
      25A     -0.676020    26A     -0.644159    27A     -0.629286
      28A     -0.609422    29A     -0.597314    30A     -0.588468
      31A     -0.561368    32A     -0.555082    33A     -0.534517
      34A     -0.527666    35A     -0.521721    36A     -0.510259
      37A     -0.497939    38A     -0.476243    39A     -0.474622
      40A     -0.463762    41A     -0.459728    42A     -0.451633
      43A     -0.443905    44A     -0.437538

  @DF-RHF Final Energy:  -501.22198223751843

   => Energetics <=

    Nuclear Repulsion Energy =            616.4323871826729828
    One-Electron Energy =               -1904.3369065136344034
    Two-Electron Energy =                 786.6825370934427610
    DFT Exchange-Correlation Energy =       0.0000000000000000
    Empirical Dispersion Energy =           0.0000000000000000
    PCM Polarization Energy =               0.0000000000000000
    EFP Energy =                            0.0000000000000000
    Total Energy =                       -501.2219822375186595
    Molecular point group: c1
  Basis Set: CC-PVTZ
  Basis Set:

  -Total Gradient:
     Atom            X                  Y                   Z
    ------   -----------------  -----------------  -----------------
       1       -0.000001293376     0.000006772716     0.000005771355
       2       -0.000001553028    -0.000005828116    -0.000013872205
       3        0.000004373894    -0.000000014337     0.000003275357
       4       -0.000001640676    -0.000000606713     0.000006256218
       5        0.000001645158    -0.000008524301     0.000003680346
       6       -0.000001594315     0.000001941946    -0.000001617064
       7       -0.000001375585    -0.000001497833     0.000003185678
       8       -0.000001517939    -0.000000963875     0.000008954137
       9       -0.000005544891    -0.000004263706     0.000003711922
      10       -0.000000543446     0.000005810873     0.000000345231
      11       -0.000410391429     0.001293398274    -0.001750489106
      12        0.000011152163     0.000007460956    -0.000001132473
      13       -0.000000625162     0.000003983739    -0.000000261642
      14        0.000740377351    -0.001608593064     0.001780118833
      15       -0.000013889300     0.000001550208    -0.000007167519
      16        0.000007652859    -0.000000626368    -0.000002250147
      17       -0.001039144264    -0.000663331316     0.002725113359
      18       -0.000007880210    -0.000004984445    -0.000007151480
      19       -0.000003555208    -0.000003020532    -0.000000282308
      20        0.000005126639    -0.000005069006     0.000018818044
      21        0.000717033863     0.000964354566    -0.002757887499
      22        0.000007962521     0.000005097677    -0.000003119190
      23        0.000001213735     0.000007984205    -0.000009410611
      24       -0.000002005354     0.000002026161    -0.000001937312
      25       -0.000002057645     0.000005776159    -0.000002405819
      26       -0.000001550282     0.000000936563    -0.000000926408
      27        0.000000129928     0.000000038620     0.000000182962
      28       -0.000000575432    -0.000000002414     0.000000381803
      29        0.000000069427     0.000000193365     0.000000115536

  **** Optimization is complete! (in 6 steps) ****
    Final optimized geometry and variables:
    Molecular point group: c1

    Geometry (in Angstrom), charge = 0, multiplicity = 1:

    O            3.088050898345     1.101169999674    -0.636468918645
    C            2.567645588310     0.192770586531    -0.084226215082
    C            1.114826973710     0.122418907353     0.311747923842
    O            3.213738686582    -0.907840928470     0.265531425100
    C            0.320958178383     1.365254739932    -0.070904832517
    H            0.709120468018    -0.774227696333    -0.141078922149
    H            1.083803532380    -0.046139748581     1.383638709932
    C           -1.131035910676     1.343035589014     0.408745476347
    H            0.350108477765     1.491322425541    -1.147625842874
    H            0.817966526626     2.233387862645     0.344266684467
    C           -2.014153911385     0.283860631007    -0.248811471370
    H           -1.562936143166     2.320926666290     0.217342062859
    H           -1.153344226864     1.210835038141     1.488187995598
    C           -3.479573765484     0.387139338672     0.172140091850
    H           -1.951548876276     0.387181446258    -1.329302908071
    H           -1.640680092625    -0.708477007221    -0.014878741389
    C           -4.377993067582    -0.698197298030    -0.434767744633
    H           -3.848738840918     1.363656546561    -0.127286208273
    H           -3.553812362515     0.357159981592     1.256200574942
    C           -4.423209947443    -1.991217019517     0.373673852641
    H           -5.383239324779    -0.308786239488    -0.557475202418
    H           -4.032622547956    -0.918410585486    -1.441561231772
    H           -5.039796868056    -2.737046938093    -0.114916632468
    H           -4.835153168411    -1.816988868752     1.362004654806
    H           -3.433543251138    -2.416609578511     0.500155336511
    C            4.590604396736    -0.978269278478    -0.044682679018
    H            4.745527610641    -0.906141197105    -1.111004415609
    H            4.928521930623    -1.936046976428     0.316414951609
    H            5.133030885453    -0.182925507398     0.444670153732

  Mulliken Charges: (a.u.)
   Center  Symbol    Alpha    Beta     Spin     Total
       1     O     4.19697  4.19697  0.00000 -0.39394
       2     C     2.80479  2.80479  0.00000  0.39042
       3     C     3.10180  3.10180  0.00000 -0.20361
       4     O     4.14722  4.14722  0.00000 -0.29444
       5     C     3.09221  3.09221  0.00000 -0.18442
       6     H     0.43949  0.43949  0.00000  0.12102
       7     H     0.43981  0.43981  0.00000  0.12039
       8     C     3.10403  3.10403  0.00000 -0.20806
       9     H     0.44624  0.44624  0.00000  0.10751
      10     H     0.43955  0.43955  0.00000  0.12091
      11     C     3.09320  3.09320  0.00000 -0.18641
      12     H     0.44537  0.44537  0.00000  0.10927
      13     H     0.45330  0.45330  0.00000  0.09339
      14     C     3.09446  3.09446  0.00000 -0.18893
      15     H     0.45255  0.45255  0.00000  0.09490
      16     H     0.45292  0.45292  0.00000  0.09416
      17     C     3.09082  3.09082  0.00000 -0.18164
      18     H     0.44783  0.44783  0.00000  0.10434
      19     H     0.45524  0.45524  0.00000  0.08953
      20     C     3.14778  3.14778  0.00000 -0.29556
      21     H     0.44751  0.44751  0.00000  0.10497
      22     H     0.45597  0.45597  0.00000  0.08806
      23     H     0.44790  0.44790  0.00000  0.10421
      24     H     0.45492  0.45492  0.00000  0.09016
      25     H     0.45612  0.45612  0.00000  0.08776
      26     C     3.03818  3.03818  0.00000 -0.07636
      27     H     0.45436  0.45436  0.00000  0.09129
      28     H     0.44526  0.44526  0.00000  0.10948
      29     H     0.45421  0.45421  0.00000  0.09158

   Total alpha = 44.00000, Total beta = 44.00000, Total charge = -0.00000
