  ==> Input File <==

--------------------------------------------------------------------------
set {
	reference rhf
	basis 6-31G*
}

set_num_threads( 1 )
memory 2 gb

molecule MOL {
0 1

O	 -0.682937	 1.318834	 -0.186099
C	 -0.860635	 0.152188	 -0.042321
C	 -2.173363	 -0.477127	 0.338347
O	 0.083258	 -0.765189	 -0.202595
H	 -2.477673	 -1.180929	 -0.427595
H	 -2.923125	 0.290956	 0.455536
H	 -2.058825	 -1.029004	 1.264191
C	 1.395325	 -0.479096	 0.276393
C	 1.527638	 -0.789717	 1.755803
H	 1.631170	 0.553766	 0.069719
H	 2.042814	 -1.113262	 -0.311901
H	 2.554246	 -0.634549	 2.073182
H	 0.888497	 -0.143633	 2.344398
H	 1.262169	 -1.822519	 1.953947

	symmetry c1
}
set optking {
	frozen_dihedral = ("
		10 8 4 2
	")
}

ee = energy('scf')
oeprop('DIPOLE', 'QUADRUPOLE', 'MULLIKEN_CHARGES')
f=open( 'psi4out.xyz', 'w' )
f.write( "14  " )
f.write( str(ee) + "\n" )
f.write( MOL.save_string_xyz() )
f.close()
--------------------------------------------------------------------------

    Molecular point group: c1

    Geometry (in Angstrom), charge = 0, multiplicity = 1:

       Center              X                  Y                   Z               Mass
    ------------   -----------------  -----------------  -----------------  -----------------
           O         -0.569393647242     1.493598492962    -0.517731950046    15.994914619560
           C         -0.747091647242     0.326952492962    -0.373953950046    12.000000000000
           C         -2.059819647242    -0.302362507038     0.006714049954    12.000000000000
           O          0.196801352758    -0.590424507038    -0.534227950046    15.994914619560
           H         -2.364129647242    -1.006164507038    -0.759227950046     1.007825032070
           H         -2.809581647242     0.465720492962     0.123903049954     1.007825032070
           H         -1.945281647242    -0.854239507038     0.932558049954     1.007825032070
           C          1.508868352758    -0.304331507038    -0.055239950046    12.000000000000
           C          1.641181352758    -0.614952507038     1.424170049954    12.000000000000
           H          1.744713352758     0.728530492962    -0.261913950046     1.007825032070
           H          2.156357352758    -0.938497507038    -0.643533950046     1.007825032070
           H          2.667789352758    -0.459784507038     1.741549049954     1.007825032070
           H          1.002040352758     0.031131492962     2.012765049954     1.007825032070
           H          1.375712352758    -1.647754507038     1.622314049954     1.007825032070

  Charge       = 0
  Multiplicity = 1
  Basis Set: 6-31G*
  Basis Set:

    Orbital Energies (a.u.)
    -----------------------

    Doubly Occupied:

       1A    -20.594818     2A    -20.547512     3A    -11.375803
       4A    -11.288976     5A    -11.232997     6A    -11.226970
       7A     -1.465238     8A     -1.363418     9A     -1.055147
      10A     -1.003906    11A     -0.885227    12A     -0.765697
      13A     -0.696690    14A     -0.682954    15A     -0.664107
      16A     -0.612964    17A     -0.589879    18A     -0.570342
      19A     -0.558063    20A     -0.541712    21A     -0.513696
      22A     -0.495367    23A     -0.450319    24A     -0.437690

  @DF-RHF Final Energy:  -305.86738706085629

   => Energetics <=

    Nuclear Repulsion Energy =            248.5964355893466404
    One-Electron Energy =                -909.6886307165061680
    Two-Electron Energy =                 355.2248080663035239
    DFT Exchange-Correlation Energy =       0.0000000000000000
    Empirical Dispersion Energy =           0.0000000000000000
    PCM Polarization Energy =               0.0000000000000000
    EFP Energy =                            0.0000000000000000
    Total Energy =                       -305.8673870608560605

  Mulliken Charges: (a.u.)
   Center  Symbol    Alpha    Beta     Spin     Total
       1     O     4.27545  4.27545  0.00000 -0.55089
       2     C     2.62099  2.62099  0.00000  0.75801
       3     C     3.28245  3.28245  0.00000 -0.56491
       4     O     4.30926  4.30926  0.00000 -0.61852
       5     H     0.39928  0.39928  0.00000  0.20143
       6     H     0.39836  0.39836  0.00000  0.20327
       7     H     0.40352  0.40352  0.00000  0.19297
       8     C     3.01085  3.01085  0.00000 -0.02169
       9     C     3.25333  3.25333  0.00000 -0.50666
      10     H     0.39877  0.39877  0.00000  0.20246
      11     H     0.40874  0.40874  0.00000  0.18253
      12     H     0.41424  0.41424  0.00000  0.17151
      13     H     0.41303  0.41303  0.00000  0.17393
      14     H     0.41173  0.41173  0.00000  0.17654

   Total alpha = 24.00000, Total beta = 24.00000, Total charge = -0.00000
