  ==> Input File <==

--------------------------------------------------------------------------
set {
	reference rhf
	basis cc-pvtz
}

set_num_threads( 4 )
memory 2 gb

molecule MOL {
0 1

O	 -1.510770	 1.240811	 -0.054933
C	 -1.081510	 0.147522	 0.122720
C	 0.327029	 -0.064006	 0.641890
C	 -1.903028	 -1.084121	 -0.174656
C	 1.349460	 -0.017068	 -0.500215
H	 0.399029	 -1.014606	 1.159950
H	 0.538021	 0.726928	 1.350471
C	 2.023199	 1.344852	 -0.622660
H	 2.106562	 -0.780543	 -0.346135
H	 0.844478	 -0.262515	 -1.427079
H	 2.731264	 1.354293	 -1.442772
H	 2.561857	 1.600189	 0.283653
H	 1.293025	 2.125445	 -0.805390
H	 -1.341891	 -1.779207	 -0.789259
H	 -2.820449	 -0.808163	 -0.671328
H	 -2.133314	 -1.593056	 0.755831

	symmetry c1
}
set optking {
	frozen_dihedral = ("
		9 5 3 2
	")
}

ee = optimize('scf')
oeprop('DIPOLE', 'QUADRUPOLE', 'MULLIKEN_CHARGES')
f=open( 'psi4out.xyz', 'w' )
f.write( "16  " )
f.write( str(ee) + "\n" )
f.write( MOL.save_string_xyz() )
f.close()
--------------------------------------------------------------------------

    Molecular point group: c1
  Charge       = 0
  Multiplicity = 1
  Basis Set: CC-PVTZ
  Basis Set:
  @DF-RHF Final Energy:  -270.12523617484578
    Total Energy =                       -270.1252361748456678
    Molecular point group: c1
  Basis Set: CC-PVTZ
  Basis Set:
  Basis Set: CC-PVTZ
  Basis Set:
  @DF-RHF Final Energy:  -270.12549559978260
    Total Energy =                       -270.1254955997830507
  Basis Set: CC-PVTZ
  Basis Set:
  Basis Set: CC-PVTZ
  Basis Set:
  @DF-RHF Final Energy:  -270.12569666489270
    Total Energy =                       -270.1256966648926436
  Basis Set: CC-PVTZ
  Basis Set:
  Basis Set: CC-PVTZ
  Basis Set:
  @DF-RHF Final Energy:  -270.12576016805446
    Total Energy =                       -270.1257601680541711
  Basis Set: CC-PVTZ
  Basis Set:
  @DF-RHF Final Energy:  -270.12576886578756
    Total Energy =                       -270.1257688657876770
  @DF-RHF Final Energy:  -270.12577360501479
    Total Energy =                       -270.1257736050150697
  @DF-RHF Final Energy:  -270.12577673961664
    Total Energy =                       -270.1257767396164695
  Basis Set: CC-PVTZ
  Basis Set:
  @DF-RHF Final Energy:  -270.12577922598769
    Total Energy =                       -270.1257792259875146
  Basis Set: CC-PVTZ
  Basis Set:
  Basis Set: CC-PVTZ
  Basis Set:
  @DF-RHF Final Energy:  -270.12568367984363
    Total Energy =                       -270.1256836798435188
  Basis Set: CC-PVTZ
  Basis Set:
  Basis Set: CC-PVTZ
  Basis Set:
  @DF-RHF Final Energy:  -270.12577940886507
    Total Energy =                       -270.1257794088647870
  Basis Set: CC-PVTZ
  Basis Set:
  Charge       = 0
  Multiplicity = 1
  Basis Set: CC-PVTZ
  Basis Set:

    Orbital Energies (a.u.)
    -----------------------

    Doubly Occupied:

       1A    -20.537386     2A    -11.319974     3A    -11.232991
       4A    -11.228453     5A    -11.227323     6A    -11.212392
       7A     -1.397198     8A     -1.082033     9A     -1.013024
      10A     -0.948337    11A     -0.831657    12A     -0.736053
      13A     -0.659736    14A     -0.646152    15A     -0.619796
      16A     -0.594152    17A     -0.585334    18A     -0.560642
      19A     -0.543929    20A     -0.512204    21A     -0.495220
      22A     -0.488299    23A     -0.474526    24A     -0.399643

  @DF-RHF Final Energy:  -270.12577944225490

   => Energetics <=

    Nuclear Repulsion Energy =            240.2039667647289889
    One-Electron Energy =                -841.9665869606274100
    Two-Electron Energy =                 331.6368407536436393
    DFT Exchange-Correlation Energy =       0.0000000000000000
    Empirical Dispersion Energy =           0.0000000000000000
    PCM Polarization Energy =               0.0000000000000000
    EFP Energy =                            0.0000000000000000
    Total Energy =                       -270.1257794422547818
    Molecular point group: c1
  Basis Set: CC-PVTZ
  Basis Set:

  -Total Gradient:
     Atom            X                  Y                   Z
    ------   -----------------  -----------------  -----------------
       1       -0.000002189796    -0.000007257998    -0.000001340707
       2       -0.000276749071    -0.002481319273    -0.000266353326
       3       -0.000084838420     0.002822568694    -0.000064866738
       4       -0.000003922694    -0.000006784505     0.000003092782
       5        0.002362523708     0.002001417150     0.002107703542
       6        0.000012442082     0.000003163183     0.000012212442
       7       -0.000011821982     0.000006961778    -0.000004812190
       8       -0.000003425745     0.000000531696    -0.000008651887
       9       -0.001995813169    -0.002330352753    -0.001774264863
      10        0.000005193260    -0.000010389988    -0.000000530976
      11       -0.000000678933    -0.000000155389    -0.000000715509
      12       -0.000000901409    -0.000001908432    -0.000000606334
      13        0.000000230732     0.000002443124     0.000001072853
      14       -0.000000145832     0.000002684445     0.000000125153
      15        0.000000095941     0.000000714768    -0.000000577404
      16        0.000000001326    -0.000002316498    -0.000001486838

  **** Optimization is complete! (in 11 steps) ****
    Final optimized geometry and variables:
    Molecular point group: c1

    Geometry (in Angstrom), charge = 0, multiplicity = 1:

    O           -1.424616250730     0.977035073044     0.184100497448
    C           -0.947059083669    -0.108515371058     0.260678427252
    C            0.463645567905    -0.321264141665     0.768727409305
    C           -1.716385048067    -1.339700632950    -0.158876902285
    C            1.482955069272    -0.309269845086    -0.394223407376
    H            0.511396269269    -1.271258482017     1.288556309713
    H            0.690973734194     0.462199629775     1.478485860695
    C            2.142238437823     1.049299686420    -0.599197944961
    H            2.229351162376    -1.076183432841    -0.224821442192
    H            0.984805575617    -0.600486255938    -1.314629461973
    H            2.813402814331     1.029883703236    -1.449980862363
    H            2.717917963266     1.336210075125     0.273827516537
    H            1.398049453196     1.817028811289    -0.773484097942
    H           -1.109105348829    -1.987923576306    -0.779588180732
    H           -2.614003658616    -1.054242260019    -0.685526066872
    H           -1.985027643235    -1.903995426253     0.728610900614

  Mulliken Charges: (a.u.)
   Center  Symbol    Alpha    Beta     Spin     Total
       1     O     4.17739  4.17739  0.00000 -0.35478
       2     C     2.85849  2.85849  0.00000  0.28302
       3     C     3.10640  3.10640  0.00000 -0.21280
       4     C     3.15442  3.15442  0.00000 -0.30883
       5     C     3.09090  3.09090  0.00000 -0.18180
       6     H     0.44205  0.44205  0.00000  0.11591
       7     H     0.44037  0.44037  0.00000  0.11926
       8     C     3.14466  3.14466  0.00000 -0.28931
       9     H     0.44634  0.44634  0.00000  0.10732
      10     H     0.45515  0.45515  0.00000  0.08971
      11     H     0.45000  0.45000  0.00000  0.10001
      12     H     0.45485  0.45485  0.00000  0.09031
      13     H     0.44424  0.44424  0.00000  0.11153
      14     H     0.45065  0.45065  0.00000  0.09871
      15     H     0.43625  0.43625  0.00000  0.12750
      16     H     0.44786  0.44786  0.00000  0.10428

   Total alpha = 24.00000, Total beta = 24.00000, Total charge = -0.00000
