  ==> Input File <==

--------------------------------------------------------------------------
set {
	reference rhf
	basis 6-31G*
}

set_num_threads( 4 )
memory 2 gb

molecule MOL {
0 1

H	 2.845955	 -0.323208	 0.022310
C	 1.900140	 0.071967	 -0.330070
C	 0.778463	 -0.508087	 0.517968
H	 1.782469	 -0.206877	 -1.370777
H	 1.922247	 1.149867	 -0.254252
N	 -0.540928	 0.005139	 0.058438
H	 0.716718	 -1.581298	 0.454712
H	 0.859711	 -0.198647	 1.550086
O	 -1.512016	 -0.613646	 0.363996
O	 -0.534247	 1.008682	 -0.587594

	symmetry c1
}
set optking {
	frozen_dihedral = ("
		9 6 3 2
	")
}

ee = optimize('scf')
oeprop('DIPOLE', 'QUADRUPOLE', 'MULLIKEN_CHARGES')
f=open( 'psi4out.xyz', 'w' )
f.write( "10  " )
f.write( str(ee) + "\n" )
f.write( MOL.save_string_xyz() )
f.close()
--------------------------------------------------------------------------

    Molecular point group: c1
  Charge       = 0
  Multiplicity = 1
  Basis Set: 6-31G*
  Basis Set:
  @DF-RHF Final Energy:  -282.69952042825230
    Total Energy =                       -282.6995204282522423
    Molecular point group: c1
  Basis Set: 6-31G*
  Basis Set:
  Basis Set: 6-31G*
  Basis Set:
  @DF-RHF Final Energy:  -282.69589959807251
    Total Energy =                       -282.6958995980727991
  Basis Set: 6-31G*
  Basis Set:
  Basis Set: 6-31G*
  Basis Set:
  @DF-RHF Final Energy:  -282.69819377310245
    Total Energy =                       -282.6981937731026164
  Basis Set: 6-31G*
  Basis Set:
  Basis Set: 6-31G*
  Basis Set:
  @DF-RHF Final Energy:  -282.70031024051502
    Total Energy =                       -282.7003102405149093
  Basis Set: 6-31G*
  Basis Set:
  Basis Set: 6-31G*
  Basis Set:
  @DF-RHF Final Energy:  -282.70038541054475
    Total Energy =                       -282.7003854105446408
  Basis Set: 6-31G*
  Basis Set:
  Basis Set: 6-31G*
  Basis Set:
  @DF-RHF Final Energy:  -282.70039209127401
    Total Energy =                       -282.7003920912741251
  Basis Set: 6-31G*
  Basis Set:
  Charge       = 0
  Multiplicity = 1
  Basis Set: 6-31G*
  Basis Set:

    Orbital Energies (a.u.)
    -----------------------

    Doubly Occupied:

       1A    -20.604600     2A    -20.600686     3A    -15.850000
       4A    -11.305118     5A    -11.246813     6A     -1.633315
       7A     -1.418756     8A     -1.125760     9A     -0.967400
      10A     -0.833850    11A     -0.760953    12A     -0.747695
      13A     -0.726996    14A     -0.640648    15A     -0.593806
      16A     -0.564388    17A     -0.539634    18A     -0.486924
      19A     -0.478432    20A     -0.450558

  @DF-RHF Final Energy:  -282.70039262636584

   => Energetics <=

    Nuclear Repulsion Energy =            186.0847232021579316
    One-Electron Energy =                -754.4175643084520289
    Two-Electron Energy =                 285.6324484799281436
    DFT Exchange-Correlation Energy =       0.0000000000000000
    Empirical Dispersion Energy =           0.0000000000000000
    PCM Polarization Energy =               0.0000000000000000
    EFP Energy =                            0.0000000000000000
    Total Energy =                       -282.7003926263660105
    Molecular point group: c1
  Basis Set: 6-31G*
  Basis Set:

  -Total Gradient:
     Atom            X                  Y                   Z
    ------   -----------------  -----------------  -----------------
       1       -0.000015155718     0.000001741315     0.000001869853
       2       -0.000002501366     0.000041808052     0.000029609609
       3       -0.000007798501    -0.000079723573    -0.000003609745
       4        0.000006909302     0.000000782106    -0.000005630850
       5        0.000009037944     0.000016659924    -0.000006788857
       6        0.000056270588    -0.000072720504    -0.000053540715
       7        0.000009322944     0.000002495084     0.000007807409
       8        0.000000576092    -0.000003089982    -0.000005390926
       9       -0.000011473076     0.000085568081     0.000034732937
      10       -0.000045188207     0.000006479495     0.000000941286

  **** Optimization is complete! (in 7 steps) ****
    Final optimized geometry and variables:
    Molecular point group: c1

    Geometry (in Angstrom), charge = 0, multiplicity = 1:

    H            2.859262376475    -0.354395018048     0.032235809779
    C            1.931084926865     0.067653716063    -0.337186478472
    C            0.790219763354    -0.487461652874     0.491675608974
    H            1.825107356801    -0.201329755256    -1.380649664945
    H            1.985034750806     1.144247531337    -0.263566097862
    N           -0.545979232062     0.008368275419     0.050818201872
    H            0.716089071236    -1.562331361490     0.449066515648
    H            0.855659045274    -0.192305345514     1.530744222438
    O           -1.487129879635    -0.641416715540     0.388587118321
    O           -0.595776429489     1.022522375355    -0.572157318614

  Mulliken Charges: (a.u.)
   Center  Symbol    Alpha    Beta     Spin     Total
       1     H     0.40941  0.40941  0.00000  0.18119
       2     C     3.25113  3.25113  0.00000 -0.50226
       3     C     3.09546  3.09546  0.00000 -0.19092
       4     H     0.40289  0.40289  0.00000  0.19422
       5     H     0.39596  0.39596  0.00000  0.20809
       6     N     3.21993  3.21993  0.00000  0.56015
       7     H     0.38495  0.38495  0.00000  0.23010
       8     H     0.38418  0.38418  0.00000  0.23165
       9     O     4.22855  4.22855  0.00000 -0.45711
      10     O     4.22755  4.22755  0.00000 -0.45510

   Total alpha = 20.00000, Total beta = 20.00000, Total charge =  0.00000
