  ==> Input File <==

--------------------------------------------------------------------------
set {
	reference rhf
	basis cc-pvtz
}

set_num_threads( 4 )
memory 2 gb

molecule MOL {
0 1

O	 -1.510770	 1.240811	 -0.054933
C	 -1.081510	 0.147522	 0.122720
C	 0.327029	 -0.064006	 0.641890
C	 -1.903028	 -1.084121	 -0.174656
C	 1.349460	 -0.017068	 -0.500215
H	 0.399029	 -1.014606	 1.159950
H	 0.538021	 0.726928	 1.350471
C	 2.490169	 0.954720	 -0.220654
H	 1.755949	 -1.010027	 -0.669441
H	 0.837466	 0.268782	 -1.411521
H	 3.191077	 0.977060	 -1.046644
H	 3.038095	 0.671901	 0.671838
H	 2.116493	 1.962190	 -0.074918
H	 -1.341891	 -1.779207	 -0.789259
H	 -2.820449	 -0.808163	 -0.671328
H	 -2.133314	 -1.593056	 0.755831

	symmetry c1
}
set optking {
	frozen_dihedral = ("
		9 5 3 2
	")
}

ee = optimize('scf')
oeprop('DIPOLE', 'QUADRUPOLE', 'MULLIKEN_CHARGES')
f=open( 'psi4out.xyz', 'w' )
f.write( "16  " )
f.write( str(ee) + "\n" )
f.write( MOL.save_string_xyz() )
f.close()
--------------------------------------------------------------------------

    Molecular point group: c1
  Charge       = 0
  Multiplicity = 1
  Basis Set: CC-PVTZ
  Basis Set:
  @DF-RHF Final Energy:  -270.12384879570993
    Total Energy =                       -270.1238487957095913
    Molecular point group: c1
  Basis Set: CC-PVTZ
  Basis Set:
  Basis Set: CC-PVTZ
  Basis Set:
  @DF-RHF Final Energy:  -270.12404300333765
    Total Energy =                       -270.1240430033377038
  Basis Set: CC-PVTZ
  Basis Set:
  Basis Set: CC-PVTZ
  Basis Set:
  @DF-RHF Final Energy:  -270.12432638038274
    Total Energy =                       -270.1243263803829109
  Basis Set: CC-PVTZ
  Basis Set:
  Basis Set: CC-PVTZ
  Basis Set:
  @DF-RHF Final Energy:  -270.12443604400079
    Total Energy =                       -270.1244360440009018
  Basis Set: CC-PVTZ
  Basis Set:
  @DF-RHF Final Energy:  -270.12449889587504
    Total Energy =                       -270.1244988958748081
  Basis Set: CC-PVTZ
  Basis Set:
  @DF-RHF Final Energy:  -270.12454267384760
    Total Energy =                       -270.1245426738479409
  Basis Set: CC-PVTZ
  Basis Set:
  Basis Set: CC-PVTZ
  Basis Set:
  @DF-RHF Final Energy:  -270.12456669948631
    Total Energy =                       -270.1245666994864223
  Basis Set: CC-PVTZ
  Basis Set:
  Basis Set: CC-PVTZ
  Basis Set:
  @DF-RHF Final Energy:  -270.12457033126816
    Total Energy =                       -270.1245703312679325
  Basis Set: CC-PVTZ
  Basis Set:
  Charge       = 0
  Multiplicity = 1
  Basis Set: CC-PVTZ
  Basis Set:

    Orbital Energies (a.u.)
    -----------------------

    Doubly Occupied:

       1A    -20.537299     2A    -11.319584     3A    -11.233922
       4A    -11.228089     5A    -11.226822     6A    -11.216572
       7A     -1.397264     8A     -1.082423     9A     -1.012981
      10A     -0.949761    11A     -0.832234    12A     -0.736640
      13A     -0.660961    14A     -0.645385    15A     -0.622100
      16A     -0.601725    17A     -0.580404    18A     -0.556857
      19A     -0.544033    20A     -0.515779    21A     -0.499813
      22A     -0.484628    23A     -0.476200    24A     -0.400200

  @DF-RHF Final Energy:  -270.12457099923284

   => Energetics <=

    Nuclear Repulsion Energy =            238.1840890571504019
    One-Electron Energy =                -837.8939636427819551
    Two-Electron Energy =                 329.5853035863990499
    DFT Exchange-Correlation Energy =       0.0000000000000000
    Empirical Dispersion Energy =           0.0000000000000000
    PCM Polarization Energy =               0.0000000000000000
    EFP Energy =                            0.0000000000000000
    Total Energy =                       -270.1245709992324464
    Molecular point group: c1
  Basis Set: CC-PVTZ
  Basis Set:

  -Total Gradient:
     Atom            X                  Y                   Z
    ------   -----------------  -----------------  -----------------
       1        0.000009624588    -0.000024036393     0.000004846644
       2        0.000158763600     0.001520404546     0.000024153998
       3        0.000152975236    -0.001912680243     0.000191763841
       4       -0.000046135823    -0.000026147463     0.000080353211
       5       -0.001820545660    -0.000037836317    -0.001537213518
       6       -0.000018143798     0.000005141070     0.000014806947
       7        0.000000872911     0.000000186723     0.000006948036
       8       -0.000019146687    -0.000029381995    -0.000007065957
       9        0.001541757635     0.000487972464     0.001270517209
      10        0.000009311497    -0.000003515466    -0.000001594703
      11        0.000002839779     0.000003910089     0.000001981720
      12        0.000001028777     0.000001741404     0.000000322832
      13        0.000001813606     0.000005885955    -0.000001151190
      14        0.000002304821     0.000015743504    -0.000013717156
      15        0.000007835408     0.000007495290    -0.000010297132
      16        0.000014844109    -0.000014883167    -0.000024654782

  **** Optimization is complete! (in 9 steps) ****
    Final optimized geometry and variables:
    Molecular point group: c1

    Geometry (in Angstrom), charge = 0, multiplicity = 1:

    O           -1.575547127559     1.027496352532     0.238472337749
    C           -1.038144621413    -0.031616814344     0.215488839506
    C            0.387467858235    -0.204137659100     0.695806176315
    C           -1.741385299750    -1.263388488919    -0.306189818731
    C            1.389007289283    -0.268432152369    -0.485204431146
    H            0.462865282663    -1.101033113616     1.300028382369
    H            0.609636870245     0.643901084494     1.327902545026
    C            2.552400863613     0.704269355653    -0.316361058144
    H            1.785555317543    -1.273011268520    -0.573817174984
    H            0.882991476228    -0.048819114808    -1.418929131483
    H            3.245618745448     0.627221772653    -1.145939998076
    H            3.101478043107     0.499965117208     0.596464129117
    H            2.197611274953     1.727262341046    -0.269009746148
    H           -1.114740134641    -1.799118648926    -1.009838685384
    H           -2.673407999886    -0.988137906073    -0.775434733953
    H           -1.940331079929    -1.934743502144     0.523064400696

  Mulliken Charges: (a.u.)
   Center  Symbol    Alpha    Beta     Spin     Total
       1     O     4.17556  4.17556  0.00000 -0.35111
       2     C     2.85926  2.85926  0.00000  0.28147
       3     C     3.10186  3.10186  0.00000 -0.20372
       4     C     3.15523  3.15523  0.00000 -0.31047
       5     C     3.09075  3.09075  0.00000 -0.18150
       6     H     0.44586  0.44586  0.00000  0.10828
       7     H     0.44016  0.44016  0.00000  0.11967
       8     C     3.14634  3.14634  0.00000 -0.29268
       9     H     0.44956  0.44956  0.00000  0.10088
      10     H     0.45105  0.45105  0.00000  0.09790
      11     H     0.44854  0.44854  0.00000  0.10293
      12     H     0.45359  0.45359  0.00000  0.09283
      13     H     0.44846  0.44846  0.00000  0.10307
      14     H     0.44968  0.44968  0.00000  0.10065
      15     H     0.43584  0.43584  0.00000  0.12832
      16     H     0.44826  0.44826  0.00000  0.10348

   Total alpha = 24.00000, Total beta = 24.00000, Total charge =  0.00000
