  ==> Input File <==

--------------------------------------------------------------------------
set {
	reference rhf
	basis 6-31G*
}

set_num_threads( 4 )
memory 2 gb

molecule MOL {
0 1

H	 -4.236494	 0.538104	 0.039757
O	 -3.517110	 -0.026191	 -0.205115
C	 -2.306886	 0.532354	 0.237577
C	 -1.177863	 -0.397191	 -0.171080
H	 -2.156308	 1.517575	 -0.201710
H	 -2.315015	 0.655684	 1.319734
C	 0.198102	 0.111031	 0.262842
H	 -1.208843	 -0.518759	 -1.250427
H	 -1.368741	 -1.376554	 0.258909
C	 1.331804	 -0.827780	 -0.158768
H	 0.361943	 1.100838	 -0.156218
H	 0.217265	 0.229072	 1.345532
C	 2.723619	 -0.410569	 0.329459
H	 1.342964	 -0.912588	 -1.244120
H	 1.116806	 -1.824343	 0.220779
C	 3.738111	 -1.552746	 0.410514
H	 2.622168	 0.035648	 1.315708
H	 3.112159	 0.372616	 -0.318479
H	 3.370590	 -2.356827	 1.042513
H	 3.956542	 -1.972811	 -0.565708
H	 4.676487	 -1.205337	 0.831836

	symmetry c1
}
set optking {
	frozen_dihedral = ("
		16 13 10 14
	")
}

ee = optimize('scf')
oeprop('DIPOLE', 'QUADRUPOLE', 'MULLIKEN_CHARGES')
f=open( 'psi4out.xyz', 'w' )
f.write( "21  " )
f.write( str(ee) + "\n" )
f.write( MOL.save_string_xyz() )
f.close()
--------------------------------------------------------------------------

    Molecular point group: c1
  Charge       = 0
  Multiplicity = 1
  Basis Set: 6-31G*
  Basis Set:
  @DF-RHF Final Energy:  -310.21223419031509
    Total Energy =                       -310.2122341903150300
    Molecular point group: c1
  Basis Set: 6-31G*
  Basis Set:
  Basis Set: 6-31G*
  Basis Set:
  @DF-RHF Final Energy:  -310.21283976282319
    Total Energy =                       -310.2128397628231369
  Basis Set: 6-31G*
  Basis Set:
  Basis Set: 6-31G*
  Basis Set:
  @DF-RHF Final Energy:  -310.21287646465726
    Total Energy =                       -310.2128764646574268
  Basis Set: 6-31G*
  Basis Set:
  Basis Set: 6-31G*
  Basis Set:
  @DF-RHF Final Energy:  -310.21288684229069
    Total Energy =                       -310.2128868422905725
  Basis Set: 6-31G*
  Basis Set:
  Basis Set: 6-31G*
  Basis Set:
  @DF-RHF Final Energy:  -310.21289589652889
    Total Energy =                       -310.2128958965287211
  Basis Set: 6-31G*
  Basis Set:
  Charge       = 0
  Multiplicity = 1
  Basis Set: 6-31G*
  Basis Set:

    Orbital Energies (a.u.)
    -----------------------

    Doubly Occupied:

       1A    -20.551812     2A    -11.267041     3A    -11.215994
       4A    -11.214755     5A    -11.213324     6A    -11.210548
       7A    -11.208083     8A     -1.358630     9A     -1.085927
      10A     -1.034224    11A     -0.956770    12A     -0.866984
      13A     -0.802063    14A     -0.790492    15A     -0.691838
      16A     -0.663587    17A     -0.631593    18A     -0.596421
      19A     -0.581951    20A     -0.562311    21A     -0.546694
      22A     -0.521925    23A     -0.506905    24A     -0.484314
      25A     -0.477200    26A     -0.462800    27A     -0.460187
      28A     -0.442021    29A     -0.433967

  @DF-RHF Final Energy:  -310.21289601655576

   => Energetics <=

    Nuclear Repulsion Energy =            308.9283336301296004
    One-Electron Energy =               -1032.6017439929948978
    Two-Electron Energy =                 413.4605143463093100
    DFT Exchange-Correlation Energy =       0.0000000000000000
    Empirical Dispersion Energy =           0.0000000000000000
    PCM Polarization Energy =               0.0000000000000000
    EFP Energy =                            0.0000000000000000
    Total Energy =                       -310.2128960165559874
    Molecular point group: c1
  Basis Set: 6-31G*
  Basis Set:

  -Total Gradient:
     Atom            X                  Y                   Z
    ------   -----------------  -----------------  -----------------
       1       -0.000001773017    -0.000001082821     0.000001685726
       2        0.000002394527    -0.000003348794     0.000003610623
       3        0.000012018613     0.000003325882    -0.000000045778
       4        0.000014219538     0.000005892048    -0.000031722958
       5       -0.000001978916    -0.000005369521    -0.000001371927
       6       -0.000000582007     0.000005214408     0.000004358595
       7       -0.000020992923    -0.000001817834     0.000002724975
       8       -0.000013842916     0.000003699534    -0.000008682830
       9        0.000012784875     0.000002902214    -0.000004984028
      10        0.001123925304    -0.004473170474     0.001464087283
      11       -0.000015358282    -0.000012970887     0.000001851275
      12       -0.000002551130    -0.000014571225     0.000001352448
      13        0.000670590751     0.001437764509    -0.003689890793
      14       -0.001176534741     0.003528843506    -0.000309449449
      15        0.000009769300    -0.000005003131    -0.000001445303
      16       -0.000631743260    -0.000470737446     0.002571465379
      17       -0.000013002126    -0.000009354236    -0.000021366557
      18        0.000029627841    -0.000000976315    -0.000008272856
      19       -0.000000399893     0.000002550426     0.000018462128
      20        0.000016372142     0.000003421732     0.000017888351
      21       -0.000012943683     0.000004788426    -0.000010254304

  **** Optimization is complete! (in 6 steps) ****
    Final optimized geometry and variables:
    Molecular point group: c1

    Geometry (in Angstrom), charge = 0, multiplicity = 1:

    H           -4.293663222146     0.961390082291    -0.119956351150
    O           -3.580657240188     0.391498378981    -0.370485702659
    C           -2.371609820633     0.898114900612     0.133680907463
    C           -1.252825903057    -0.038963282477    -0.285785091818
    H           -2.184406976888     1.898826174397    -0.253420096002
    H           -2.409827100213     0.970547263698     1.219766913447
    C            0.120823805348     0.415139199344     0.209276594486
    H           -1.255885665147    -0.111055394351    -1.369924350666
    H           -1.478135728656    -1.031997262411     0.093571202720
    C            1.248957009804    -0.536279085446    -0.199225731668
    H            0.335835333065     1.410852390617    -0.176257973829
    H            0.105648529835     0.505243787330     1.294240033181
    C            2.634724710102    -0.042687725552     0.234762820894
    H            1.228092988401    -0.640237586444    -1.282127697360
    H            1.056829113574    -1.521080859458     0.220362229199
    C            3.680799650365    -1.155859754223     0.289633784189
    H            2.561072743882     0.409339826394     1.221895146494
    H            2.965873957250     0.746861112336    -0.435157456711
    H            3.400833463072    -1.913868409694     1.015263704287
    H            3.788768023780    -1.646402916310    -0.674050755338
    H            4.654516489938    -0.768261335141     0.573176432242

  Mulliken Charges: (a.u.)
   Center  Symbol    Alpha    Beta     Spin     Total
       1     H     0.28119  0.28119  0.00000  0.43763
       2     O     4.37181  4.37181  0.00000 -0.74362
       3     C     2.98971  2.98971  0.00000  0.02058
       4     C     3.15935  3.15935  0.00000 -0.31870
       5     H     0.43285  0.43285  0.00000  0.13429
       6     H     0.43285  0.43285  0.00000  0.13430
       7     C     3.16112  3.16112  0.00000 -0.32225
       8     H     0.41484  0.41484  0.00000  0.17031
       9     H     0.41488  0.41488  0.00000  0.17025
      10     C     3.15066  3.15066  0.00000 -0.30133
      11     H     0.42365  0.42365  0.00000  0.15269
      12     H     0.42362  0.42362  0.00000  0.15276
      13     C     3.15233  3.15233  0.00000 -0.30466
      14     H     0.42169  0.42169  0.00000  0.15661
      15     H     0.42183  0.42183  0.00000  0.15633
      16     C     3.23946  3.23946  0.00000 -0.47891
      17     H     0.42352  0.42352  0.00000  0.15297
      18     H     0.42163  0.42163  0.00000  0.15673
      19     H     0.42148  0.42148  0.00000  0.15704
      20     H     0.42157  0.42157  0.00000  0.15686
      21     H     0.41994  0.41994  0.00000  0.16011

   Total alpha = 29.00000, Total beta = 29.00000, Total charge = -0.00000
