                              Psi4 1.0.54 Driver

  ==> Input File <==

--------------------------------------------------------------------------
set {
	reference rhf
	basis cc-pvtz
}

set_num_threads( 4 )
memory 2 gb

molecule MOL {
0 1

H	 -3.572588	 0.037890	 -1.142065
O	 -3.515113	 -0.019339	 -0.206321
C	 -2.302264	 0.528872	 0.237390
C	 -1.175688	 -0.398187	 -0.171891
H	 -2.148018	 1.514076	 -0.197759
H	 -2.310727	 0.646384	 1.319032
C	 0.196029	 0.106276	 0.266738
H	 -1.201873	 -0.515469	 -1.250677
H	 -1.365975	 -1.378728	 0.252664
C	 1.330220	 -0.826136	 -0.155230
H	 0.359542	 1.097229	 -0.145561
H	 0.212134	 0.218135	 1.348778
C	 2.719700	 -0.407669	 0.328325
H	 1.339388	 -0.911200	 -1.239363
H	 1.119001	 -1.821953	 0.224128
C	 3.241564	 0.893452	 -0.276737
H	 3.418299	 -1.204729	 0.093035
H	 2.711776	 -0.323368	 1.411960
H	 3.254204	 0.841071	 -1.360784
H	 2.634460	 1.745075	 0.005842
H	 4.254264	 1.092401	 0.054971

	symmetry c1
}
set optking {
	frozen_dihedral = ("
		1 2 3 5
	")
}

ee,wfn = optimize('scf', return_wfn=True)
oeprop( wfn, 'DIPOLE', 'QUADRUPOLE', 'MULLIKEN_CHARGES')
f=open( 'psi4out.xyz', 'w' )
f.write( "21  " )
f.write( str(ee) + "\n" )
f.write( MOL.save_string_xyz() )
f.close()
--------------------------------------------------------------------------

    Molecular point group: c1
  Charge       = 0
  Multiplicity = 1
  Basis Set: CC-PVTZ
  Basis Set:
  @DF-RHF Final Energy:  -310.33108010923718
    Total Energy =                       -310.3310801092374049
    Molecular point group: c1
  Basis Set: CC-PVTZ
  Basis Set:
  Basis Set: CC-PVTZ
  Basis Set:
  @DF-RHF Final Energy:  -310.33116170421414
    Total Energy =                       -310.3311617042140824
  Basis Set: CC-PVTZ
  Basis Set:
  Basis Set: CC-PVTZ
  Basis Set:
  @DF-RHF Final Energy:  -310.33266791808671
    Total Energy =                       -310.3326679180869974
  Basis Set: CC-PVTZ
  Basis Set:
  Basis Set: CC-PVTZ
  Basis Set:
  @DF-RHF Final Energy:  -310.33269761417165
    Total Energy =                       -310.3326976141718205
  Basis Set: CC-PVTZ
  Basis Set:
  Charge       = 0
  Multiplicity = 1
  Basis Set: CC-PVTZ
  Basis Set:

    Orbital Energies (a.u.)
    -----------------------

    Doubly Occupied:

       1A    -20.545356     2A    -11.264963     3A    -11.215864
       4A    -11.215018     5A    -11.213905     6A    -11.212757
       7A    -11.207828     8A     -1.363269     9A     -1.089569
      10A     -1.035582    11A     -0.956219    12A     -0.879810
      13A     -0.817734    14A     -0.780951    15A     -0.698122
      16A     -0.644522    17A     -0.624775    18A     -0.612281
      19A     -0.593576    20A     -0.571051    21A     -0.550953
      22A     -0.522811    23A     -0.505936    24A     -0.500300
      25A     -0.475129    26A     -0.465097    27A     -0.462915
      28A     -0.458044    29A     -0.423528

  @DF-RHF Final Energy:  -310.33269694094537

   => Energetics <=

    Nuclear Repulsion Energy =            312.6427229826430789
    One-Electron Energy =               -1040.1351079276662404
    Two-Electron Energy =                 417.1596880040776796
    DFT Exchange-Correlation Energy =       0.0000000000000000
    Empirical Dispersion Energy =           0.0000000000000000
    PCM Polarization Energy =               0.0000000000000000
    EFP Energy =                            0.0000000000000000
    Total Energy =                       -310.3326969409454250
    Molecular point group: c1
  Basis Set: CC-PVTZ
  Basis Set:

  -Total Gradient:
     Atom            X                  Y                   Z
    ------   -----------------  -----------------  -----------------
       1       -0.000334497456     0.000711534765     0.000172323894
       2        0.000486980711    -0.000999115587    -0.000491869846
       3       -0.000279730990     0.000532817315     0.000954680847
       4       -0.000077463055    -0.000005523465     0.000006426143
       5        0.000225709503    -0.000205477252    -0.000655158248
       6        0.000038422734    -0.000015138055     0.000036212224
       7       -0.000114147421     0.000031047665     0.000017123502
       8       -0.000004417850    -0.000000743846    -0.000012590121
       9        0.000003203550    -0.000058582631    -0.000011857536
      10        0.000010729901     0.000027523045    -0.000077585010
      11       -0.000071966283    -0.000043444112    -0.000003617812
      12        0.000032235931     0.000032251702     0.000025623109
      13       -0.000020207363     0.000009523996     0.000107970123
      14       -0.000016920331     0.000030133699    -0.000022332311
      15        0.000025345941    -0.000028481135    -0.000035280569
      16        0.000006840758     0.000002344882    -0.000023800555
      17        0.000000221409    -0.000030023834     0.000022872744
      18        0.000008357955     0.000021275570     0.000034028218
      19       -0.000001697471     0.000020094683    -0.000035341855
      20        0.000073838875    -0.000009560792     0.000005515388
      21        0.000009160944    -0.000022456612    -0.000013342330

  **** Optimization is complete! (in 5 steps) ****
    Final optimized geometry and variables:
    Molecular point group: c1

    Geometry (in Angstrom), charge = 0, multiplicity = 1:

    H           -3.743862516953     0.316238826612    -0.804718480255
    O           -3.565538514866     0.135112867237     0.099817390306
    C           -2.269133811990     0.557793972226     0.427826600009
    C           -1.194829655755    -0.350249414126    -0.148811626986
    H           -2.106263780289     1.581435222303     0.097512803259
    H           -2.216575156625     0.555748607650     1.509056718946
    C            0.215936024738     0.071079983122     0.252644772470
    H           -1.278965915316    -0.353875101890    -1.233865412709
    H           -1.389826927699    -1.366112314777     0.179879232636
    C            1.295825100521    -0.840171909159    -0.328270989343
    H            0.385413320716     1.095385836589    -0.064919365600
    H            0.295667932475     0.070274739292     1.337474682209
    C            2.721295632975    -0.515774109605     0.121854172296
    H            1.247456164984    -0.806436326594    -1.414350587066
    H            1.071212601259    -1.865280169214    -0.047510398061
    C            3.259388535673     0.823553057466    -0.376056527856
    H            3.378495487606    -1.305708121080    -0.228482557908
    H            2.769222364725    -0.542475451805     1.207323022453
    H            3.213854112133     0.883241498195    -1.458903524954
    H            2.700691456647     1.660542273087     0.025094235141
    H            4.294721575322     0.954258332750    -0.082735964961

  Mulliken Charges: (a.u.)
   Center  Symbol    Alpha    Beta     Spin     Total
       1     H     0.39530  0.39530  0.00000  0.20939
       2     O     4.20112  4.20112  0.00000 -0.40225
       3     C     2.97072  2.97072  0.00000  0.05856
       4     C     3.09083  3.09083  0.00000 -0.18166
       5     H     0.47102  0.47102  0.00000  0.05796
       6     H     0.45410  0.45410  0.00000  0.09180
       7     C     3.10273  3.10273  0.00000 -0.20545
       8     H     0.46205  0.46205  0.00000  0.07590
       9     H     0.44884  0.44884  0.00000  0.10232
      10     C     3.09415  3.09415  0.00000 -0.18831
      11     H     0.45341  0.45341  0.00000  0.09318
      12     H     0.45321  0.45321  0.00000  0.09357
      13     C     3.09013  3.09013  0.00000 -0.18026
      14     H     0.45386  0.45386  0.00000  0.09229
      15     H     0.44839  0.44839  0.00000  0.10322
      16     C     3.15246  3.15246  0.00000 -0.30493
      17     H     0.44825  0.44825  0.00000  0.10349
      18     H     0.45437  0.45437  0.00000  0.09126
      19     H     0.45506  0.45506  0.00000  0.08987
      20     H     0.45393  0.45393  0.00000  0.09213
      21     H     0.44605  0.44605  0.00000  0.10789

   Total alpha = 29.00000, Total beta = 29.00000, Total charge =  0.00000

*** Psi4 exiting successfully. Buy a developer a beer!
