  ==> Input File <==

--------------------------------------------------------------------------
set {
	reference rhf
	basis 6-31G*
}

set_num_threads( 4 )
memory 2 gb

molecule MOL {
0 1

H	 3.729471	 -0.928294	 -0.070608
O	 2.826016	 -1.159218	 0.122261
C	 2.077727	 -0.067559	 -0.035091
C	 0.624473	 -0.343591	 0.253101
O	 2.542965	 0.974826	 -0.363729
C	 -0.265902	 0.883932	 0.072916
H	 0.324016	 -1.163849	 -0.390541
H	 0.565024	 -0.726111	 1.268924
C	 -1.728698	 0.646073	 0.462102
H	 -0.209144	 1.219470	 -0.958188
H	 0.135059	 1.692851	 0.673903
C	 -2.525149	 -0.220878	 -0.517193
H	 -2.217429	 1.614155	 0.544084
H	 -1.772837	 0.201292	 1.455268
C	 -3.999998	 -0.337226	 -0.132796
H	 -2.444919	 0.201914	 -1.516620
H	 -2.095671	 -1.217888	 -0.571057
H	 -4.542806	 -0.956905	 -0.839670
H	 -4.477716	 0.638064	 -0.112220
H	 -4.114349	 -0.781255	 0.852089

	symmetry c1
}
set optking {
	frozen_dihedral = ("
		12 9 6 10
	")
}

ee = optimize('scf')
oeprop('DIPOLE', 'QUADRUPOLE', 'MULLIKEN_CHARGES')
f=open( 'psi4out.xyz', 'w' )
f.write( "20  " )
f.write( str(ee) + "\n" )
f.write( MOL.save_string_xyz() )
f.close()
--------------------------------------------------------------------------

    Molecular point group: c1
  Charge       = 0
  Multiplicity = 1
  Basis Set: 6-31G*
  Basis Set:
  @DF-RHF Final Energy:  -383.94859262103955
    Total Energy =                       -383.9485926210396087
    Molecular point group: c1
  Basis Set: 6-31G*
  Basis Set:
  Basis Set: 6-31G*
  Basis Set:
  @DF-RHF Final Energy:  -383.94856712707252
    Total Energy =                       -383.9485671270721241
  Basis Set: 6-31G*
  Basis Set:
  Basis Set: 6-31G*
  Basis Set:
  @DF-RHF Final Energy:  -383.94862875486621
    Total Energy =                       -383.9486287548659220
  Basis Set: 6-31G*
  Basis Set:
  Basis Set: 6-31G*
  Basis Set:
  @DF-RHF Final Energy:  -383.94857098846109
    Total Energy =                       -383.9485709884613698
  Basis Set: 6-31G*
  Basis Set:
  Basis Set: 6-31G*
  Basis Set:
  @DF-RHF Final Energy:  -383.94864445038394
    Total Energy =                       -383.9486444503838811
  Basis Set: 6-31G*
  Basis Set:
  Charge       = 0
  Multiplicity = 1
  Basis Set: 6-31G*
  Basis Set:

    Orbital Energies (a.u.)
    -----------------------

    Doubly Occupied:

       1A    -20.612510     2A    -20.551599     3A    -11.381137
       4A    -11.240193     5A    -11.222978     6A    -11.220655
       7A    -11.220065     8A    -11.212332     9A     -1.474563
      10A     -1.365620    11A     -1.096105    12A     -1.041104
      13A     -0.960956    14A     -0.868784    15A     -0.814996
      16A     -0.778524    17A     -0.699522    18A     -0.690050
      19A     -0.663499    20A     -0.635480    21A     -0.604012
      22A     -0.593596    23A     -0.574727    24A     -0.555796
      25A     -0.540514    26A     -0.511799    27A     -0.495887
      28A     -0.479251    29A     -0.471218    30A     -0.467586
      31A     -0.457161    32A     -0.443540

  @DF-RHF Final Energy:  -383.94864462506956

   => Energetics <=

    Nuclear Repulsion Energy =            375.6928233532253785
    One-Electron Energy =               -1267.3914196813680064
    Two-Electron Energy =                 507.7499517030729521
    DFT Exchange-Correlation Energy =       0.0000000000000000
    Empirical Dispersion Energy =           0.0000000000000000
    PCM Polarization Energy =               0.0000000000000000
    EFP Energy =                            0.0000000000000000
    Total Energy =                       -383.9486446250697327
    Molecular point group: c1
  Basis Set: 6-31G*
  Basis Set:

  -Total Gradient:
     Atom            X                  Y                   Z
    ------   -----------------  -----------------  -----------------
       1       -0.000001123549     0.000001106609     0.000000653584
       2        0.000000306983    -0.000007533444     0.000002109053
       3        0.000002506677     0.000011829347    -0.000006010715
       4       -0.000009777266     0.000007932166    -0.000010203083
       5       -0.000003773851    -0.000002473142     0.000007047330
       6       -0.000176788594     0.001497393080     0.000212973529
       7       -0.000001005611    -0.000002679439     0.000002585516
       8        0.000001934171    -0.000002272626     0.000003280263
       9        0.000303091932    -0.001127042143     0.000483185345
      10        0.000078984333    -0.001003541253    -0.000313425920
      11        0.000000270065     0.000002635760     0.000003218397
      12       -0.000190992155     0.000618422642    -0.000384690223
      13        0.000001918229     0.000005258730     0.000001363426
      14       -0.000007481817    -0.000003602926    -0.000003646825
      15       -0.000004639703     0.000009573859    -0.000000369381
      16       -0.000004213243    -0.000001473466     0.000005078483
      17        0.000009106631    -0.000004395016    -0.000002845097
      18        0.000000600217     0.000003596385    -0.000001989169
      19       -0.000000480180     0.000000973018     0.000005068594
      20        0.000001556724    -0.000003708142    -0.000003383107

  **** Optimization is complete! (in 6 steps) ****
    Final optimized geometry and variables:
    Molecular point group: c1

    Geometry (in Angstrom), charge = 0, multiplicity = 1:

    H            3.720216634950    -0.988571228852    -0.069569000501
    O            2.817517868319    -1.205441838611     0.142219850061
    C            2.079176734389    -0.108122629433    -0.022517503995
    C            0.627922127710    -0.361334286109     0.294731445512
    O            2.550693077428     0.922827010175    -0.377323003163
    C           -0.251508764324     0.874056205290     0.110643933045
    H            0.305425129954    -1.187879577544    -0.330310146763
    H            0.581492685203    -0.727059769306     1.317245163635
    C           -1.718454661368     0.637761033949     0.487528251812
    H           -0.185332430160     1.204038831214    -0.921480064344
    H            0.152120323774     1.679176741335     0.714613874993
    C           -2.499469369738    -0.235331854375    -0.498759768410
    H           -2.212243609327     1.604494769882     0.553947174215
    H           -1.775162700388     0.202113749438     1.483940005265
    C           -3.970594271525    -0.387341742244    -0.112846324832
    H           -2.430187887795     0.201760214898    -1.492520796712
    H           -2.048648616677    -1.222314424435    -0.566801201358
    H           -4.503288947813    -1.004409856962    -0.829619111471
    H           -4.467013112303     0.578038283303    -0.073499279173
    H           -4.073786801983    -0.851223277303     0.864061510824

  Mulliken Charges: (a.u.)
   Center  Symbol    Alpha    Beta     Spin     Total
       1     H     0.26787  0.26787  0.00000  0.46427
       2     O     4.35156  4.35156  0.00000 -0.70313
       3     C     2.62232  2.62232  0.00000  0.75536
       4     C     3.21249  3.21249  0.00000 -0.42498
       5     O     4.27932  4.27932  0.00000 -0.55864
       6     C     3.15455  3.15455  0.00000 -0.30910
       7     H     0.39721  0.39721  0.00000  0.20559
       8     H     0.39897  0.39897  0.00000  0.20206
       9     C     3.15609  3.15609  0.00000 -0.31219
      10     H     0.41169  0.41169  0.00000  0.17662
      11     H     0.40827  0.40827  0.00000  0.18346
      12     C     3.15420  3.15420  0.00000 -0.30840
      13     H     0.41782  0.41782  0.00000  0.16435
      14     H     0.42373  0.42373  0.00000  0.15254
      15     C     3.23930  3.23930  0.00000 -0.47861
      16     H     0.42101  0.42101  0.00000  0.15798
      17     H     0.42325  0.42325  0.00000  0.15351
      18     H     0.41830  0.41830  0.00000  0.16339
      19     H     0.42068  0.42068  0.00000  0.15863
      20     H     0.42136  0.42136  0.00000  0.15728

   Total alpha = 32.00000, Total beta = 32.00000, Total charge =  0.00000
