  ==> Input File <==

--------------------------------------------------------------------------
set {
	reference rhf
	basis 6-31G*
}

set_num_threads( 4 )
memory 2 gb

molecule MOL {
0 1

O	 2.862325	 1.357334	 0.000267
C	 2.843464	 0.164689	 -0.000222
C	 1.546494	 -0.624492	 -0.000609
C	 4.124123	 -0.644674	 -0.000428
C	 0.291004	 0.242674	 0.000989
H	 1.557904	 -1.283758	 -0.867573
H	 1.558622	 -1.285963	 0.864672
C	 -0.994322	 -0.586602	 0.000262
H	 0.309117	 0.896430	 -0.865270
H	 0.309661	 0.894078	 0.869017
C	 -2.259874	 0.272531	 0.000494
H	 -1.004862	 -1.240012	 -0.870939
H	 -1.005220	 -1.241071	 0.870675
C	 -2.195177	 1.445935	 -0.978766
H	 -2.436126	 0.652573	 1.005244
H	 -3.117957	 -0.351501	 -0.242970
C	 -3.462846	 2.299551	 -0.972615
H	 -1.338504	 2.071103	 -0.735661
H	 -2.020531	 1.067196	 -1.983711
H	 -3.646772	 2.721055	 0.011588
H	 -3.386493	 3.123081	 -1.675943
H	 -4.333469	 1.710328	 -1.246432
H	 4.165367	 -1.288615	 -0.874074
H	 4.976217	 0.020734	 -0.001915
H	 4.166763	 -1.286207	 0.874930

	symmetry c1
}
set optking {
	frozen_dihedral = ("
		15 11 8 12
	")
}

ee = optimize('scf')
oeprop('DIPOLE', 'QUADRUPOLE', 'MULLIKEN_CHARGES')
f=open( 'psi4out.xyz', 'w' )
f.write( "25  " )
f.write( str(ee) + "\n" )
f.write( MOL.save_string_xyz() )
f.close()
--------------------------------------------------------------------------

    Molecular point group: c1
  Charge       = 0
  Multiplicity = 1
  Basis Set: 6-31G*
  Basis Set:
  @DF-RHF Final Energy:  -387.13146825308144
    Total Energy =                       -387.1314682530816071
    Molecular point group: c1
  Basis Set: 6-31G*
  Basis Set:
  Basis Set: 6-31G*
  Basis Set:
  @DF-RHF Final Energy:  -387.13244184802886
    Total Energy =                       -387.1324418480290888
  Basis Set: 6-31G*
  Basis Set:
  Basis Set: 6-31G*
  Basis Set:
  @DF-RHF Final Energy:  -387.13352686657720
    Total Energy =                       -387.1335268665768581
  Basis Set: 6-31G*
  Basis Set:
  Basis Set: 6-31G*
  Basis Set:
  @DF-RHF Final Energy:  -387.13363858638587
    Total Energy =                       -387.1336385863858141
  Basis Set: 6-31G*
  Basis Set:
  @DF-RHF Final Energy:  -387.13255835204160
    Total Energy =                       -387.1325583520417695
  Basis Set: 6-31G*
  Basis Set:
  @DF-RHF Final Energy:  -387.13366056190387
    Total Energy =                       -387.1336605619045486
  Basis Set: 6-31G*
  Basis Set:
  Basis Set: 6-31G*
  Basis Set:
  @DF-RHF Final Energy:  -387.13367256338830
    Total Energy =                       -387.1336725633880178
  Basis Set: 6-31G*
  Basis Set:
  Basis Set: 6-31G*
  Basis Set:
  @DF-RHF Final Energy:  -387.13367499089100
    Total Energy =                       -387.1336749908911088
  Basis Set: 6-31G*
  Basis Set:
  Charge       = 0
  Multiplicity = 1
  Basis Set: 6-31G*
  Basis Set:

    Orbital Energies (a.u.)
    -----------------------

    Doubly Occupied:

       1A    -20.550547     2A    -11.326363     3A    -11.231920
       4A    -11.228391     5A    -11.217261     6A    -11.216388
       7A    -11.213970     8A    -11.213069     9A    -11.207025
      10A     -1.395836    11A     -1.093141    12A     -1.054403
      13A     -1.013106    14A     -0.969049    15A     -0.888997
      16A     -0.832038    17A     -0.772599    18A     -0.731046
      19A     -0.656720    20A     -0.650168    21A     -0.633090
      22A     -0.621951    23A     -0.598581    24A     -0.580703
      25A     -0.570336    26A     -0.561619    27A     -0.549183
      28A     -0.518667    29A     -0.502792    30A     -0.499134
      31A     -0.488541    32A     -0.479179    33A     -0.458088
      34A     -0.455191    35A     -0.447905    36A     -0.399960

  @DF-RHF Final Energy:  -387.13367565008326

   => Energetics <=

    Nuclear Repulsion Energy =            445.2929722349840063
    One-Electron Energy =               -1407.1993806203367967
    Two-Electron Energy =                 574.7727327352697557
    DFT Exchange-Correlation Energy =       0.0000000000000000
    Empirical Dispersion Energy =           0.0000000000000000
    PCM Polarization Energy =               0.0000000000000000
    EFP Energy =                            0.0000000000000000
    Total Energy =                       -387.1336756500829779
    Molecular point group: c1
  Basis Set: 6-31G*
  Basis Set:

  -Total Gradient:
     Atom            X                  Y                   Z
    ------   -----------------  -----------------  -----------------
       1        0.000001337973     0.000001424960     0.000000478143
       2       -0.000004080769    -0.000001287855    -0.000001759835
       3       -0.000005214970    -0.000008416210     0.000002335506
       4       -0.000001648915     0.000000469753     0.000012517965
       5       -0.000000195356     0.000009292652    -0.000012395165
       6       -0.000001023423    -0.000000030720     0.000004362160
       7        0.000005462602    -0.000003789163     0.000005121483
       8        0.001632039470     0.002675992176    -0.002347594133
       9        0.000002397814     0.000001342224    -0.000003028380
      10       -0.000004895600    -0.000001865308    -0.000004035243
      11        0.002130919234     0.003247785092    -0.000518005952
      12       -0.001709905244    -0.002759398190     0.002056346496
      13       -0.000001786168    -0.000000033607    -0.000002547055
      14        0.000002717640     0.000003305197    -0.000014588089
      15       -0.002057122045    -0.003152989834     0.000825264405
      16        0.000012924248    -0.000008657878     0.000001242479
      17       -0.000000450719    -0.000002373538     0.000010012003
      18        0.000006471213     0.000000298003    -0.000005196396
      19       -0.000006400035    -0.000001760286    -0.000001454435
      20       -0.000003679794    -0.000001195357     0.000001551213
      21        0.000005541472    -0.000000246915     0.000003184783
      22       -0.000002098682     0.000001593294    -0.000003119357
      23       -0.000000899574     0.000002657109    -0.000003819357
      24       -0.000000959363     0.000000874023    -0.000000818544
      25        0.000000548990    -0.000002989621    -0.000004054695

  **** Optimization is complete! (in 9 steps) ****
    Final optimized geometry and variables:
    Molecular point group: c1

    Geometry (in Angstrom), charge = 0, multiplicity = 1:

    O            2.665404767780     0.844993226783     0.200926737266
    C            2.594908529445    -0.345086876811     0.241010143511
    C            1.265636500767    -1.078401547821     0.226312412043
    C            3.838716277253    -1.207212978426     0.310050201980
    C            0.049590902680    -0.158493441324     0.164249752499
    H            1.272635822754    -1.763549645881    -0.620544705581
    H            1.224993526781    -1.713230013627     1.110336008598
    C           -1.263481493742    -0.942545993094     0.136534435018
    H            0.135077205313     0.474630805554    -0.710952973410
    H            0.063561701364     0.507971914921     1.021654054107
    C           -2.539177137003    -0.092002612949     0.219607093701
    H           -1.308718762959    -1.574545162609    -0.749182930217
    H           -1.275160214177    -1.635373144912     0.976827147298
    C           -2.620100096035     1.081341291427    -0.758687037387
    H           -2.671361012847     0.261610326265     1.240714553521
    H           -3.386608831729    -0.751154790490     0.038175104231
    C           -3.974924488369     1.787720062803    -0.712682295063
    H           -1.837194652790     1.802108967595    -0.542809998118
    H           -2.435552589824     0.721083366374    -1.769224775030
    H           -4.179285938863     2.177316739396     0.280729745160
    H           -4.007119107463     2.621505624888    -1.407130988714
    H           -4.781925187726     1.108450549080    -0.972724095399
    H            3.877242856066    -1.885706203370    -0.537162412250
    H            4.718564612102    -0.578972082342     0.309790541104
    H            3.828119661389    -1.815566789587     1.209741085991

  Mulliken Charges: (a.u.)
   Center  Symbol    Alpha    Beta     Spin     Total
       1     O     4.26134  4.26134  0.00000 -0.52268
       2     C     2.73558  2.73558  0.00000  0.52884
       3     C     3.21061  3.21061  0.00000 -0.42121
       4     C     3.28672  3.28672  0.00000 -0.57344
       5     C     3.15076  3.15076  0.00000 -0.30151
       6     H     0.40985  0.40985  0.00000  0.18030
       7     H     0.41009  0.41009  0.00000  0.17983
       8     C     3.15529  3.15529  0.00000 -0.31059
       9     H     0.40906  0.40906  0.00000  0.18189
      10     H     0.41294  0.41294  0.00000  0.17411
      11     C     3.15116  3.15116  0.00000 -0.30232
      12     H     0.42438  0.42438  0.00000  0.15125
      13     H     0.42411  0.42411  0.00000  0.15179
      14     C     3.15547  3.15547  0.00000 -0.31094
      15     H     0.42299  0.42299  0.00000  0.15402
      16     H     0.42300  0.42300  0.00000  0.15400
      17     C     3.23935  3.23935  0.00000 -0.47870
      18     H     0.41664  0.41664  0.00000  0.16673
      19     H     0.42393  0.42393  0.00000  0.15213
      20     H     0.42154  0.42154  0.00000  0.15692
      21     H     0.41884  0.41884  0.00000  0.16232
      22     H     0.42250  0.42250  0.00000  0.15500
      23     H     0.40877  0.40877  0.00000  0.18247
      24     H     0.39647  0.39647  0.00000  0.20706
      25     H     0.40863  0.40863  0.00000  0.18275

   Total alpha = 36.00000, Total beta = 36.00000, Total charge =  0.00000
