                              Psi4 1.0.54 Driver

  ==> Input File <==

--------------------------------------------------------------------------
set {
	reference rhf
	basis cc-pvtz
}

set_num_threads( 4 )
memory 2 gb

molecule MOL {
0 1

H	 2.828711	 -0.346904	 0.001083
C	 1.876752	 0.015931	 -0.363450
C	 0.776285	 -0.474665	 0.563092
H	 1.728113	 -0.357244	 -1.367440
H	 1.906171	 1.096574	 -0.386153
N	 -0.540022	 0.017605	 0.071630
H	 0.707111	 -1.548969	 0.573035
H	 0.886169	 -0.084184	 1.560432
O	 -1.511333	 -0.429877	 0.582032
O	 -0.527636	 0.802410	 -0.816246

	symmetry c1
}
set optking {
	frozen_dihedral = ("
		9 6 3 2
	")
}

ee,wfn = optimize('scf', return_wfn=True)
oeprop( wfn, 'DIPOLE', 'QUADRUPOLE', 'MULLIKEN_CHARGES')
f=open( 'psi4out.xyz', 'w' )
f.write( "10  " )
f.write( str(ee) + "\n" )
f.write( MOL.save_string_xyz() )
f.close()
--------------------------------------------------------------------------

    Molecular point group: c1
  Charge       = 0
  Multiplicity = 1
  Basis Set: CC-PVTZ
  Basis Set:
  @DF-RHF Final Energy:  -282.81099727736944
    Total Energy =                       -282.8109972773694381
    Molecular point group: c1
  Basis Set: CC-PVTZ
  Basis Set:
  Basis Set: CC-PVTZ
  Basis Set:
  @DF-RHF Final Energy:  -282.50305705738538
    Total Energy =                       -282.5030570573855471
  Basis Set: CC-PVTZ
  Basis Set:
  Basis Set: CC-PVTZ
  Basis Set:
  @DF-RHF Final Energy:  -282.66553946946033
    Total Energy =                       -282.6655394694602137
  Basis Set: CC-PVTZ
  Basis Set:
  Basis Set: CC-PVTZ
  Basis Set:
  @DF-RHF Final Energy:  -282.78724610362201
    Total Energy =                       -282.7872461036221239
  Basis Set: CC-PVTZ
  Basis Set:
  @DF-RHF Final Energy:  -282.79748259314363
    Total Energy =                       -282.7974825931435134
  @DF-RHF Final Energy:  -282.81236825065389
    Total Energy =                       -282.8123682506538898
  @DF-RHF Final Energy:  -282.81214905416175
    Total Energy =                       -282.8121490541617504
  Basis Set: CC-PVTZ
  Basis Set:
  @DF-RHF Final Energy:  -282.81193166915563
    Total Energy =                       -282.8119316691554559
  Basis Set: CC-PVTZ
  Basis Set:
  Basis Set: CC-PVTZ
  Basis Set:
  @DF-RHF Final Energy:  -282.81284966218954
    Total Energy =                       -282.8128496621895920
  Basis Set: CC-PVTZ
  Basis Set:
  Basis Set: CC-PVTZ
  Basis Set:
  @DF-RHF Final Energy:  -282.81288763164412
    Total Energy =                       -282.8128876316441165
  Basis Set: CC-PVTZ
  Basis Set:
  Charge       = 0
  Multiplicity = 1
  Basis Set: CC-PVTZ
  Basis Set:

    Orbital Energies (a.u.)
    -----------------------

    Doubly Occupied:

       1A    -20.594883     2A    -20.588934     3A    -15.839666
       4A    -11.303274     5A    -11.243604     6A     -1.638654
       7A     -1.422959     8A     -1.123893     9A     -0.966905
      10A     -0.834901    11A     -0.762716    12A     -0.753579
      13A     -0.732237    14A     -0.638583    15A     -0.594965
      16A     -0.564099    17A     -0.538742    18A     -0.490385
      19A     -0.479934    20A     -0.455243

  @DF-RHF Final Energy:  -282.81288914137883

   => Energetics <=

    Nuclear Repulsion Energy =            186.5731911858750891
    One-Electron Energy =                -755.6358491706253062
    Two-Electron Energy =                 286.2497688433713279
    DFT Exchange-Correlation Energy =       0.0000000000000000
    Empirical Dispersion Energy =           0.0000000000000000
    PCM Polarization Energy =               0.0000000000000000
    EFP Energy =                            0.0000000000000000
    Total Energy =                       -282.8128891413788892
    Molecular point group: c1
  Basis Set: CC-PVTZ
  Basis Set:

  -Total Gradient:
     Atom            X                  Y                   Z
    ------   -----------------  -----------------  -----------------
       1        0.000003704200    -0.000005026306     0.000005952374
       2        0.000024515180     0.000043062992    -0.000004454491
       3       -0.000048601871    -0.000016468697     0.000017951450
       4        0.000014676673     0.000005983921     0.000038888106
       5       -0.000009431389     0.000023801475    -0.000020002680
       6       -0.000110135292    -0.000320213629     0.000128950226
       7        0.000031910082    -0.000037982925     0.000005769927
       8       -0.000000790419    -0.000028063921    -0.000020030183
       9        0.000156599312     0.000181858119    -0.000089045409
      10       -0.000062446477     0.000153048972    -0.000063979317

  **** Optimization is complete! (in 11 steps) ****
    Final optimized geometry and variables:
    Molecular point group: c1

    Geometry (in Angstrom), charge = 0, multiplicity = 1:

    H            2.418047796069     0.343864657635    -1.526474911498
    C            1.377463224652     0.536451384635    -1.295120843136
    C            1.005293717329    -0.284100436615    -0.082154353394
    H            0.778896260675     0.264356437887    -2.152782313147
    H            1.252826615022     1.592933232317    -1.112004037550
    N           -0.420980582547    -0.121822534203     0.335971212918
    H            1.125283466548    -1.344438639830    -0.235533023755
    H            1.571813069186    -0.007954181063     0.795104275267
    O           -0.807677493204    -0.878499814294     1.162216870381
    O           -1.061719964400     0.742348758843    -0.156429962244

  Mulliken Charges: (a.u.)
   Center  Symbol    Alpha    Beta     Spin     Total
       1     H     0.44934  0.44934  0.00000  0.10132
       2     C     3.13843  3.13843  0.00000 -0.27687
       3     C     3.04367  3.04367  0.00000 -0.08734
       4     H     0.44308  0.44308  0.00000  0.11384
       5     H     0.44013  0.44013  0.00000  0.11974
       6     N     3.27616  3.27616  0.00000  0.44767
       7     H     0.43219  0.43219  0.00000  0.13563
       8     H     0.43415  0.43415  0.00000  0.13169
       9     O     4.17333  4.17333  0.00000 -0.34666
      10     O     4.16951  4.16951  0.00000 -0.33903

   Total alpha = 20.00000, Total beta = 20.00000, Total charge = -0.00000

*** Psi4 exiting successfully. Buy a developer a beer!
