                              Psi4 1.0.54 Driver

  ==> Input File <==

--------------------------------------------------------------------------
set {
	reference rhf
	basis cc-pvtz
}

set_num_threads( 4 )
memory 2 gb

molecule MOL {
0 1

H	 -3.258660	 -0.290394	 1.471450
C	 -3.307964	 -0.275695	 0.374072
C	 -2.653809	 0.914422	 -0.273689
O	 -3.855140	 -1.148880	 -0.205112
C	 -3.332834	 2.237118	 0.093836
H	 -1.604489	 0.917375	 -0.008636
H	 -2.726749	 0.761847	 -1.348261
C	 -3.169813	 2.622222	 1.562612
H	 -2.919251	 3.020344	 -0.532139
H	 -4.390022	 2.179836	 -0.153685
C	 -3.842187	 3.947442	 1.911160
H	 -2.110547	 2.681072	 1.798410
H	 -3.574956	 1.837368	 2.196088
C	 -3.667202	 4.335918	 3.378033
H	 -3.439741	 4.725284	 1.269799
H	 -4.903804	 3.881920	 1.683183
C	 -4.393112	 5.616444	 3.794212
H	 -2.607053	 4.438539	 3.597892
H	 -4.026510	 3.519546	 3.998306
C	 -3.862154	 6.891710	 3.143931
H	 -4.315825	 5.718259	 4.872197
H	 -5.452964	 5.514813	 3.575830
H	 -2.801970	 7.016379	 3.340053
H	 -4.001511	 6.888430	 2.069569
H	 -4.373801	 7.763725	 3.534790

	symmetry c1
}
set optking {
	frozen_dihedral = ("
		6 3 2 4
	")
}

ee,wfn = optimize('scf', return_wfn=True)
oeprop( wfn, 'DIPOLE', 'QUADRUPOLE', 'MULLIKEN_CHARGES')
f=open( 'psi4out.xyz', 'w' )
f.write( "25  " )
f.write( str(ee) + "\n" )
f.write( MOL.save_string_xyz() )
f.close()
--------------------------------------------------------------------------

    Molecular point group: c1
  Charge       = 0
  Multiplicity = 1
  Basis Set: CC-PVTZ
  Basis Set:
  @DF-RHF Final Energy:  -387.25802294803611
    Total Energy =                       -387.2580229480358867
    Molecular point group: c1
  Basis Set: CC-PVTZ
  Basis Set:
  Basis Set: CC-PVTZ
  Basis Set:
  @DF-RHF Final Energy:  -387.25806646852413
    Total Energy =                       -387.2580664685237934
  Basis Set: CC-PVTZ
  Basis Set:
  Basis Set: CC-PVTZ
  Basis Set:
  @DF-RHF Final Energy:  -387.25748290121669
    Total Energy =                       -387.2574829012171449
  Basis Set: CC-PVTZ
  Basis Set:
  Basis Set: CC-PVTZ
  Basis Set:
  @DF-RHF Final Energy:  -387.25860743416149
    Total Energy =                       -387.2586074341617177
  Basis Set: CC-PVTZ
  Basis Set:
  Basis Set: CC-PVTZ
  Basis Set:
  @DF-RHF Final Energy:  -387.25855696449122
    Total Energy =                       -387.2585569644909356
  Basis Set: CC-PVTZ
  Basis Set:
  Basis Set: CC-PVTZ
  Basis Set:
  @DF-RHF Final Energy:  -387.25864184867635
    Total Energy =                       -387.2586418486760067
  Basis Set: CC-PVTZ
  Basis Set:
  Basis Set: CC-PVTZ
  Basis Set:
  @DF-RHF Final Energy:  -387.25864346347265
    Total Energy =                       -387.2586434634727084
  Basis Set: CC-PVTZ
  Basis Set:
  Charge       = 0
  Multiplicity = 1
  Basis Set: CC-PVTZ
  Basis Set:

    Orbital Energies (a.u.)
    -----------------------

    Doubly Occupied:

       1A    -20.550900     2A    -11.319625     3A    -11.233647
       4A    -11.233006     5A    -11.225491     6A    -11.219803
       7A    -11.218211     8A    -11.217558     9A    -11.210312
      10A     -1.405252    11A     -1.106227    12A     -1.071282
      13A     -1.015456    14A     -0.944668    15A     -0.877921
      16A     -0.828035    17A     -0.784760    18A     -0.780311
      19A     -0.679782    20A     -0.662059    21A     -0.635313
      22A     -0.621157    23A     -0.601347    24A     -0.598068
      25A     -0.573157    26A     -0.558441    27A     -0.542837
      28A     -0.522088    29A     -0.512777    30A     -0.502076
      31A     -0.489506    32A     -0.481137    33A     -0.467511
      34A     -0.461730    35A     -0.445731    36A     -0.409650

  @DF-RHF Final Energy:  -387.25864380061063

   => Energetics <=

    Nuclear Repulsion Energy =            437.1370507861999499
    One-Electron Energy =               -1390.7777341908099515
    Two-Electron Energy =                 566.3820396039989191
    DFT Exchange-Correlation Energy =       0.0000000000000000
    Empirical Dispersion Energy =           0.0000000000000000
    PCM Polarization Energy =               0.0000000000000000
    EFP Energy =                            0.0000000000000000
    Total Energy =                       -387.2586438006110257
    Molecular point group: c1
  Basis Set: CC-PVTZ
  Basis Set:

  -Total Gradient:
     Atom            X                  Y                   Z
    ------   -----------------  -----------------  -----------------
       1        0.000002229548     0.000006263891     0.000027266085
       2       -0.000232841068     0.000121790105    -0.000036569351
       3        0.000038660287     0.000062440789     0.000172125214
       4        0.000160816326    -0.000097794546    -0.000021486271
       5        0.000001434977     0.000008861010    -0.000002979856
       6        0.000040100836    -0.000093534955    -0.000145479659
       7       -0.000004296535     0.000002225686     0.000011903492
       8       -0.000001182953    -0.000006778142    -0.000005850401
       9       -0.000004256394     0.000006167141     0.000000959832
      10        0.000004824593    -0.000001357452     0.000005506279
      11       -0.000008747380    -0.000001721166    -0.000004974684
      12       -0.000000330762    -0.000003624299    -0.000002620859
      13       -0.000001694695    -0.000004339643     0.000000249891
      14        0.000006894277     0.000005176127     0.000003254339
      15       -0.000002122454    -0.000003221409     0.000001367054
      16       -0.000001703770    -0.000000832222    -0.000000715454
      17        0.000000627873    -0.000000972371    -0.000004176300
      18        0.000001265506    -0.000000677859     0.000001510399
      19       -0.000000213624     0.000002843224    -0.000000597768
      20        0.000000496051     0.000001207339     0.000000966513
      21       -0.000000408141    -0.000001615465    -0.000000487687
      22        0.000000395960    -0.000000500032    -0.000001528054
      23        0.000000625476    -0.000000374749    -0.000000789269
      24       -0.000001116444     0.000000619295     0.000002340954
      25        0.000000542512    -0.000000250299     0.000000805558

  **** Optimization is complete! (in 8 steps) ****
    Final optimized geometry and variables:
    Molecular point group: c1

    Geometry (in Angstrom), charge = 0, multiplicity = 1:

    H            0.256780808502    -3.173389712276    -0.047479565326
    C            0.221238175115    -3.133721912827    -1.141776624618
    C            0.838533794790    -1.919351527353    -1.782069322843
    O           -0.280229717542    -4.019844716126    -1.744616371528
    C            0.158998029615    -0.600852879450    -1.383828649245
    H            1.886586542376    -1.888562155689    -1.492476094118
    H            0.791244232825    -2.058773229408    -2.853630332020
    C            0.357992750248    -0.182810989672     0.072607703851
    H            0.552830030052     0.178034367587    -2.028045204616
    H           -0.902460870331    -0.667069100096    -1.604609195605
    C           -0.268992135730     1.173060430941     0.388411704635
    H            1.422639137302    -0.145493760484     0.290766040934
    H           -0.063804585542    -0.928614748633     0.739593425112
    C           -0.067158644908     1.598897787130     1.841360558349
    H            0.151259888300     1.918056248887    -0.279640178813
    H           -1.334028637600     1.133759019212     0.171991518144
    C           -0.747331634863     2.914212008175     2.225071894859
    H            0.997907592691     1.673830482226     2.049040370307
    H           -0.447143356131     0.813770831965     2.489312556045
    C           -0.181503566380     4.151422977795     1.532143916060
    H           -0.656616085577     3.045437702150     3.298830948828
    H           -1.811780110895     2.840456918736     2.018696937682
    H            0.884184845732     4.246729938410     1.714546210124
    H           -0.332188302090     4.121306980471     0.459780231028
    H           -0.660234717316     5.050867264497     1.901824815272

  Mulliken Charges: (a.u.)
   Center  Symbol    Alpha    Beta     Spin     Total
       1     H     0.46246  0.46246  0.00000  0.07508
       2     C     2.90301  2.90301  0.00000  0.19398
       3     C     3.08932  3.08932  0.00000 -0.17865
       4     O     4.16656  4.16656  0.00000 -0.33312
       5     C     3.10899  3.10899  0.00000 -0.21799
       6     H     0.45014  0.45014  0.00000  0.09972
       7     H     0.43703  0.43703  0.00000  0.12594
       8     C     3.09619  3.09619  0.00000 -0.19238
       9     H     0.44466  0.44466  0.00000  0.11068
      10     H     0.44488  0.44488  0.00000  0.11024
      11     C     3.09174  3.09174  0.00000 -0.18347
      12     H     0.45243  0.45243  0.00000  0.09514
      13     H     0.45156  0.45156  0.00000  0.09689
      14     C     3.09540  3.09540  0.00000 -0.19080
      15     H     0.45098  0.45098  0.00000  0.09804
      16     H     0.45242  0.45242  0.00000  0.09515
      17     C     3.09074  3.09074  0.00000 -0.18148
      18     H     0.45369  0.45369  0.00000  0.09263
      19     H     0.44904  0.44904  0.00000  0.10192
      20     C     3.15273  3.15273  0.00000 -0.30547
      21     H     0.44775  0.44775  0.00000  0.10450
      22     H     0.45401  0.45401  0.00000  0.09198
      23     H     0.45479  0.45479  0.00000  0.09042
      24     H     0.45392  0.45392  0.00000  0.09216
      25     H     0.44555  0.44555  0.00000  0.10889

   Total alpha = 36.00000, Total beta = 36.00000, Total charge =  0.00000

*** Psi4 exiting successfully. Buy a developer a beer!
