                              Psi4 1.0.54 Driver

  ==> Input File <==

--------------------------------------------------------------------------
set {
	reference rhf
	basis cc-pvtz
}

set_num_threads( 4 )
memory 2 gb

molecule MOL {
0 1

O	 2.868453	 1.353349	 -0.000734
C	 2.841259	 0.166180	 -0.000295
C	 1.542794	 -0.614730	 -0.000853
C	 4.113372	 -0.651103	 0.000743
C	 0.288398	 0.247429	 0.000314
H	 1.557171	 -1.273139	 -0.866508
H	 1.557484	 -1.274998	 0.863344
C	 -0.993089	 -0.581367	 -0.000217
H	 0.305153	 0.900562	 -0.864701
H	 0.305567	 0.898805	 0.866656
C	 -2.258482	 0.271340	 0.000669
H	 -1.002280	 -1.233920	 -0.870484
H	 -1.002061	 -1.235367	 0.868958
C	 -2.057128	 1.656225	 0.609179
H	 -3.041197	 -0.249526	 0.546718
H	 -2.619948	 0.377281	 -1.019256
C	 -3.325955	 2.502311	 0.606584
H	 -1.696949	 1.551299	 1.629081
H	 -1.275802	 2.178085	 0.063184
H	 -4.116709	 2.023334	 1.174325
H	 -3.148904	 3.477820	 1.044828
H	 -3.692298	 2.654970	 -0.403135
H	 4.145311	 -1.294584	 -0.871587
H	 4.970080	 0.004978	 -0.000091
H	 4.145223	 -1.291980	 0.874988

	symmetry c1
}
set optking {
	frozen_dihedral = ("
		15 11 8 12
	")
}

ee,wfn = optimize('scf', return_wfn=True)
oeprop( wfn, 'DIPOLE', 'QUADRUPOLE', 'MULLIKEN_CHARGES')
f=open( 'psi4out.xyz', 'w' )
f.write( "25  " )
f.write( str(ee) + "\n" )
f.write( MOL.save_string_xyz() )
f.close()
--------------------------------------------------------------------------

    Molecular point group: c1
  Charge       = 0
  Multiplicity = 1
  Basis Set: CC-PVTZ
  Basis Set:
  @DF-RHF Final Energy:  -387.26496848213378
    Total Energy =                       -387.2649684821340088
    Molecular point group: c1
  Basis Set: CC-PVTZ
  Basis Set:
  Basis Set: CC-PVTZ
  Basis Set:
  @DF-RHF Final Energy:  -387.25077113732635
    Total Energy =                       -387.2507711373266375
  Basis Set: CC-PVTZ
  Basis Set:
  Basis Set: CC-PVTZ
  Basis Set:
  @DF-RHF Final Energy:  -387.26709153022745
    Total Energy =                       -387.2670915302272761
  Basis Set: CC-PVTZ
  Basis Set:
  Basis Set: CC-PVTZ
  Basis Set:
  @DF-RHF Final Energy:  -387.26784518572777
    Total Energy =                       -387.2678451857277651
  Basis Set: CC-PVTZ
  Basis Set:
  @DF-RHF Final Energy:  -387.26787207533260
    Total Energy =                       -387.2678720753325479
  Basis Set: CC-PVTZ
  Basis Set:
  @DF-RHF Final Energy:  -387.26782862360187
    Total Energy =                       -387.2678286236020995
  Basis Set: CC-PVTZ
  Basis Set:
  Basis Set: CC-PVTZ
  Basis Set:
  @DF-RHF Final Energy:  -387.26792609448353
    Total Energy =                       -387.2679260944840962
  Basis Set: CC-PVTZ
  Basis Set:
  Basis Set: CC-PVTZ
  Basis Set:
  @DF-RHF Final Energy:  -387.26792522201970
    Total Energy =                       -387.2679252220196986
  Basis Set: CC-PVTZ
  Basis Set:
  Charge       = 0
  Multiplicity = 1
  Basis Set: CC-PVTZ
  Basis Set:

    Orbital Energies (a.u.)
    -----------------------

    Doubly Occupied:

       1A    -20.538836     2A    -11.320457     3A    -11.229862
       4A    -11.226545     5A    -11.215835     6A    -11.214035
       7A    -11.212346     8A    -11.210480     9A    -11.204617
      10A     -1.398814    11A     -1.093705    12A     -1.055027
      13A     -1.013635    14A     -0.968574    15A     -0.889392
      16A     -0.834178    17A     -0.769175    18A     -0.731957
      19A     -0.661175    20A     -0.653012    21A     -0.633878
      22A     -0.625827    23A     -0.597843    24A     -0.581205
      25A     -0.569017    26A     -0.562124    27A     -0.551860
      28A     -0.517356    29A     -0.504164    30A     -0.497776
      31A     -0.492355    32A     -0.483336    33A     -0.460008
      34A     -0.452585    35A     -0.445926    36A     -0.401756

  @DF-RHF Final Energy:  -387.26792716103677

   => Energetics <=

    Nuclear Repulsion Energy =            446.9858447421979122
    One-Electron Energy =               -1410.8701937429818827
    Two-Electron Energy =                 576.6164218397469767
    DFT Exchange-Correlation Energy =       0.0000000000000000
    Empirical Dispersion Energy =           0.0000000000000000
    PCM Polarization Energy =               0.0000000000000000
    EFP Energy =                            0.0000000000000000
    Total Energy =                       -387.2679271610369369
    Molecular point group: c1
  Basis Set: CC-PVTZ
  Basis Set:

  -Total Gradient:
     Atom            X                  Y                   Z
    ------   -----------------  -----------------  -----------------
       1       -0.000023319590     0.000090741028    -0.000000063229
       2        0.000010062431    -0.000045435072     0.000005815845
       3        0.000011594251    -0.000007227676    -0.000010697567
       4       -0.000007382510    -0.000022651699    -0.000001577745
       5       -0.000001666871     0.000013134365     0.000028122913
       6        0.000002969182    -0.000013926756    -0.000019776062
       7        0.000003470710    -0.000008640324     0.000011480907
       8       -0.001876432356    -0.005141114859     0.005550280584
       9       -0.000002972815     0.000005289392    -0.000017703439
      10       -0.000001512861     0.000025467780     0.000020711021
      11       -0.002425209027    -0.002570836725    -0.006960020399
      12        0.001944210842     0.004739375682    -0.003665000684
      13       -0.000002914061     0.000000805095     0.000008099952
      14        0.000022282805    -0.000000190612    -0.000002086618
      15        0.002331679562     0.002943031756     0.005064105624
      16        0.000000813726    -0.000006508541    -0.000016723871
      17       -0.000000930035     0.000011563253     0.000003437747
      18        0.000011037442    -0.000003546131     0.000021929902
      19        0.000018036734     0.000021724541    -0.000013905866
      20       -0.000011634417    -0.000011932428     0.000016626959
      21        0.000002512723    -0.000011905105    -0.000007833234
      22       -0.000012209119     0.000008469296    -0.000015001531
      23        0.000002875263    -0.000011497832    -0.000012447322
      24       -0.000003929334     0.000011229555     0.000000008366
      25        0.000008567321    -0.000015417983     0.000012217750

  **** Optimization is complete! (in 9 steps) ****
    Final optimized geometry and variables:
    Molecular point group: c1

    Geometry (in Angstrom), charge = 0, multiplicity = 1:

    O            2.484187354033     1.042143690546    -0.632030966945
    C            2.512856609498    -0.144883324714    -0.651775836289
    C            1.280927031173    -0.990259599145    -0.398917323391
    C            3.793631799392    -0.897502664923    -0.934244830232
    C            0.015589218636    -0.191362278466    -0.118296671887
    H            1.146627145709    -1.638508119006    -1.261936179189
    H            1.506722331589    -1.657859958075     0.429756215117
    C           -1.187570338739    -1.104265849337     0.130840363989
    H           -0.180977752114     0.463303802987    -0.959861749976
    H            0.193016352362     0.455312300813     0.730485806693
    C           -2.538723549108    -0.389699424989     0.334302653653
    H           -1.273663492984    -1.743605274847    -0.743148203261
    H           -0.977071446812    -1.743287026541     0.982693642889
    C           -2.478748043540     0.986971945429     1.000915838238
    H           -3.154342572412    -1.010371710466     0.978529851231
    H           -3.052963112529    -0.295878935921    -0.616648088981
    C           -3.867636003125     1.568895335836     1.245116385384
    H           -1.953219446259     0.909615977247     1.948954587842
    H           -1.908312151037     1.678037845479     0.391079831260
    H           -4.455380127354     0.926549407808     1.892721302497
    H           -3.806821902474     2.544317273805     1.713853044617
    H           -4.412715692295     1.683713538492     0.313812131750
    H            3.672399977064    -1.526302586865    -1.809457402370
    H            4.600276767687    -0.199495441178    -1.097369247024
    H            4.036545682818    -1.548122336726    -0.101319773655

  Mulliken Charges: (a.u.)
   Center  Symbol    Alpha    Beta     Spin     Total
       1     O     4.17087  4.17087  0.00000 -0.34175
       2     C     2.86104  2.86104  0.00000  0.27792
       3     C     3.11649  3.11649  0.00000 -0.23299
       4     C     3.15165  3.15165  0.00000 -0.30329
       5     C     3.08622  3.08622  0.00000 -0.17245
       6     H     0.44476  0.44476  0.00000  0.11048
       7     H     0.44563  0.44563  0.00000  0.10874
       8     C     3.09873  3.09873  0.00000 -0.19746
       9     H     0.44546  0.44546  0.00000  0.10909
      10     H     0.44189  0.44189  0.00000  0.11622
      11     C     3.09083  3.09083  0.00000 -0.18166
      12     H     0.45242  0.45242  0.00000  0.09516
      13     H     0.45244  0.45244  0.00000  0.09512
      14     C     3.09065  3.09065  0.00000 -0.18129
      15     H     0.45213  0.45213  0.00000  0.09574
      16     H     0.45179  0.45179  0.00000  0.09641
      17     C     3.15146  3.15146  0.00000 -0.30292
      18     H     0.45356  0.45356  0.00000  0.09288
      19     H     0.44714  0.44714  0.00000  0.10572
      20     H     0.45556  0.45556  0.00000  0.08889
      21     H     0.44757  0.44757  0.00000  0.10486
      22     H     0.45553  0.45553  0.00000  0.08894
      23     H     0.45030  0.45030  0.00000  0.09940
      24     H     0.43540  0.43540  0.00000  0.12920
      25     H     0.45049  0.45049  0.00000  0.09902

   Total alpha = 36.00000, Total beta = 36.00000, Total charge = -0.00000

*** Psi4 exiting successfully. Buy a developer a beer!
