  ==> Input File <==

--------------------------------------------------------------------------
set {
	reference rhf
	basis cc-pvtz
}

set_num_threads( 4 )
memory 2 gb

molecule MOL {
0 1

H	 2.621316	 1.615522	 2.121207
O	 1.693324	 1.511649	 2.228285
C	 1.124290	 1.013147	 1.113312
C	 1.860761	 0.708952	 -0.021481
C	 -0.240016	 0.806879	 1.125309
H	 2.923471	 0.870259	 -0.029095
C	 1.232418	 0.199983	 -1.140004
H	 -0.811588	 1.040818	 2.000192
C	 -0.861704	 0.296439	 0.000000
H	 1.812426	 -0.031669	 -2.012215
C	 -0.131988	 -0.009303	 -1.136160
C	 -2.330689	 0.069587	 0.000000
H	 -0.623362	 -0.404956	 -2.004432
O	 -2.848621	 -0.993976	 0.000000
H	 -2.934306	 0.982410	 0.000000

	symmetry c1
}
set optking {
	frozen_dihedral = ("
		11 9 12 14
	")
}

ee = optimize('scf')
oeprop('DIPOLE', 'QUADRUPOLE', 'MULLIKEN_CHARGES')
f=open( 'psi4out.xyz', 'w' )
f.write( "15  " )
f.write( str(ee) + "\n" )
f.write( MOL.save_string_xyz() )
f.close()
--------------------------------------------------------------------------

    Molecular point group: c1
  Charge       = 0
  Multiplicity = 1
  Basis Set: CC-PVTZ
  Basis Set:
  @DF-RHF Final Energy:  -418.42840974016076
    Total Energy =                       -418.4284097401609870
    Molecular point group: c1
  Basis Set: CC-PVTZ
  Basis Set:
  Basis Set: CC-PVTZ
  Basis Set:
  @DF-RHF Final Energy:  -418.42843212702155
    Total Energy =                       -418.4284321270214377
  Basis Set: CC-PVTZ
  Basis Set:
  Basis Set: CC-PVTZ
  Basis Set:
  @DF-RHF Final Energy:  -418.42890460288578
    Total Energy =                       -418.4289046028858365
  Basis Set: CC-PVTZ
  Basis Set:
  Basis Set: CC-PVTZ
  Basis Set:
  @DF-RHF Final Energy:  -418.42898599563642
    Total Energy =                       -418.4289859956357986
  Basis Set: CC-PVTZ
  Basis Set:
  Charge       = 0
  Multiplicity = 1
  Basis Set: CC-PVTZ
  Basis Set:

    Orbital Energies (a.u.)
    -----------------------

    Doubly Occupied:

       1A    -20.597333     2A    -20.562798     3A    -11.332404
       4A    -11.312955     5A    -11.255841     6A    -11.249318
       7A    -11.240174     8A    -11.238636     9A    -11.236111
      10A     -1.429144    11A     -1.417297    12A     -1.172595
      13A     -1.052029    14A     -1.027105    15A     -0.902400
      16A     -0.846290    17A     -0.820640    18A     -0.742923
      19A     -0.703455    20A     -0.675627    21A     -0.674089
      22A     -0.641259    23A     -0.616390    24A     -0.608412
      25A     -0.587370    26A     -0.545345    27A     -0.537591
      28A     -0.516339    29A     -0.497408    30A     -0.426945
      31A     -0.358011    32A     -0.328843

  @DF-RHF Final Energy:  -418.42898672601115

   => Energetics <=

    Nuclear Repulsion Energy =            402.7385894538014668
    One-Electron Energy =               -1368.0290036818751105
    Two-Electron Energy =                 546.8614275020622699
    DFT Exchange-Correlation Energy =       0.0000000000000000
    Empirical Dispersion Energy =           0.0000000000000000
    PCM Polarization Energy =               0.0000000000000000
    EFP Energy =                            0.0000000000000000
    Total Energy =                       -418.4289867260113169
    Molecular point group: c1
  Basis Set: CC-PVTZ
  Basis Set:

  -Total Gradient:
     Atom            X                  Y                   Z
    ------   -----------------  -----------------  -----------------
       1       -0.000009939079    -0.000004171564    -0.000011354754
       2        0.000021031739    -0.000057487868     0.000020454506
       3       -0.000195879454     0.000177301417     0.000010361285
       4        0.000022897350    -0.000171111878    -0.000140564666
       5        0.000135242608     0.000016711086     0.000094291423
       6        0.000000260342     0.000002269158     0.000006833657
       7        0.000146567043     0.000111322924     0.000064709100
       8       -0.000012757064    -0.000005924774    -0.000016133940
       9        0.000707311876    -0.005517467806     0.003802117907
      10       -0.000002311847    -0.000008351617    -0.000005131752
      11       -0.000613600851     0.003693489449    -0.001136489127
      12       -0.000241396175     0.001982191583    -0.007463406451
      13        0.000010180155    -0.000003364875    -0.000002423239
      14        0.000011247964    -0.000189742081     0.004790984249
      15        0.000021145395    -0.000025663156    -0.000014248194

  **** Optimization is complete! (in 5 steps) ****
    Final optimized geometry and variables:
    Molecular point group: c1

    Geometry (in Angstrom), charge = 0, multiplicity = 1:

    H            2.674529139186     1.210012048135     1.848778672363
    O            1.744711558633     1.110024431713     1.945641978804
    C            1.190984699058     0.607721802346     0.825855929552
    C            1.933715879515     0.311089155752    -0.302939953980
    C           -0.176498978215     0.397951456980     0.829485046795
    H            2.994591098430     0.482658236451    -0.309618370466
    C            1.304889845307    -0.200718279768    -1.421305599542
    H           -0.737865871303     0.648907797231     1.709068962438
    C           -0.787715045739    -0.142300771203    -0.284278100891
    H            1.885562486372    -0.421724903172    -2.296235002804
    C           -0.055511840940    -0.431456668219    -1.423469268687
    C           -2.274387371922    -0.326468505370    -0.279462270853
    H           -0.539369510087    -0.841217781314    -2.287937749877
    O           -2.811927153689    -1.377462295810    -0.305579614571
    H           -2.859893730400     0.596087359442    -0.211236652817

  Mulliken Charges: (a.u.)
   Center  Symbol    Alpha    Beta     Spin     Total
       1     H     0.38616  0.38616  0.00000  0.22769
       2     O     4.17169  4.17169  0.00000 -0.34338
       3     C     2.83601  2.83601  0.00000  0.32799
       4     C     3.13990  3.13990  0.00000 -0.27980
       5     C     3.13618  3.13618  0.00000 -0.27236
       6     H     0.43247  0.43247  0.00000  0.13506
       7     C     3.05292  3.05292  0.00000 -0.10583
       8     H     0.41947  0.41947  0.00000  0.16106
       9     C     2.92234  2.92234  0.00000  0.15532
      10     H     0.41958  0.41958  0.00000  0.16083
      11     C     3.12067  3.12067  0.00000 -0.24135
      12     C     2.92806  2.92806  0.00000  0.14388
      13     H     0.41913  0.41913  0.00000  0.16174
      14     O     4.15745  4.15745  0.00000 -0.31490
      15     H     0.45797  0.45797  0.00000  0.08407

   Total alpha = 32.00000, Total beta = 32.00000, Total charge = -0.00000
