  ==> Input File <==

--------------------------------------------------------------------------
set {
	reference rhf
	basis 6-31G*
}

set_num_threads( 4 )
memory 2 gb

molecule MOL {
0 1

H	 -3.892951	 0.981613	 -0.358725
C	 -3.196921	 0.361773	 0.172313
C	 -2.076860	 -0.007332	 -0.404944
H	 -3.439953	 0.057760	 1.173024
O	 -1.147408	 0.894710	 -0.816404
H	 -1.819833	 -1.039036	 -0.568406
C	 -0.078387	 0.438137	 -1.571775
C	 -0.412862	 0.395096	 -3.045738
H	 0.246652	 -0.551387	 -1.270299
H	 0.739310	 1.130907	 -1.437888
F	 0.648658	 -0.011009	 -3.726957
F	 -1.400035	 -0.447750	 -3.300553
F	 -0.764258	 1.577038	 -3.508258

	symmetry c1
}
set optking {
	frozen_dihedral = ("
		6 3 2 1
	")
}

ee = optimize('scf')
oeprop('DIPOLE', 'QUADRUPOLE', 'MULLIKEN_CHARGES')
f=open( 'psi4out.xyz', 'w' )
f.write( "13  " )
f.write( str(ee) + "\n" )
f.write( MOL.save_string_xyz() )
f.close()
--------------------------------------------------------------------------

    Molecular point group: c1
  Charge       = 0
  Multiplicity = 1
  Basis Set: 6-31G*
  Basis Set:
  @DF-RHF Final Energy:  -527.45945478596059
    Total Energy =                       -527.4594547859605882
    Molecular point group: c1
  Basis Set: 6-31G*
  Basis Set:
  Basis Set: 6-31G*
  Basis Set:
  @DF-RHF Final Energy:  -527.48579161174757
    Total Energy =                       -527.4857916117473451
  Basis Set: 6-31G*
  Basis Set:
  Basis Set: 6-31G*
  Basis Set:
  @DF-RHF Final Energy:  -527.50345835593203
    Total Energy =                       -527.5034583559319117
  Basis Set: 6-31G*
  Basis Set:
  Basis Set: 6-31G*
  Basis Set:
  @DF-RHF Final Energy:  -527.50489642612752
    Total Energy =                       -527.5048964261277433
  Basis Set: 6-31G*
  Basis Set:
  @DF-RHF Final Energy:  -527.50506165419483
    Total Energy =                       -527.5050616541949466
  @DF-RHF Final Energy:  -527.50509668571067
    Total Energy =                       -527.5050966857105550
  @DF-RHF Final Energy:  -527.41181811548608
    Total Energy =                       -527.4118181154864260
  @DF-RHF Final Energy:  -527.49279752065490
    Total Energy =                       -527.4927975206547899
  @DF-RHF Final Energy:  -527.50467536027850
    Total Energy =                       -527.5046753602782701
  @DF-RHF Final Energy:  -527.50505825944822
    Total Energy =                       -527.5050582594483330
  @DF-RHF Final Energy:  -527.50510271966527
    Total Energy =                       -527.5051027196650466
  @DF-RHF Final Energy:  -527.46332141896903
    Total Energy =                       -527.4633214189693717
  @DF-RHF Final Energy:  -527.48763129573638
    Total Energy =                       -527.4876312957355822
  @DF-RHF Final Energy:  -527.50396217579578
    Total Energy =                       -527.5039621757955501
  @DF-RHF Final Energy:  -527.50509952283483
    Total Energy =                       -527.5050995228348256
  Basis Set: 6-31G*
  Basis Set:
  @DF-RHF Final Energy:  -527.50507942097545
    Total Energy =                       -527.5050794209751075
  Basis Set: 6-31G*
  Basis Set:
  Basis Set: 6-31G*
  Basis Set:
  @DF-RHF Final Energy:  -527.50511228214054
    Total Energy =                       -527.5051122821407716
  Basis Set: 6-31G*
  Basis Set:
  Basis Set: 6-31G*
  Basis Set:
  @DF-RHF Final Energy:  -527.50511252628189
    Total Energy =                       -527.5051125262818914
  Basis Set: 6-31G*
  Basis Set:
  Charge       = 0
  Multiplicity = 1
  Basis Set: 6-31G*
  Basis Set:

    Orbital Energies (a.u.)
    -----------------------

    Doubly Occupied:

       1A    -26.346416     2A    -26.346247     3A    -26.342288
       4A    -20.606495     5A    -11.504599     6A    -11.318335
       7A    -11.306383     8A    -11.217054     9A     -1.743552
      10A     -1.641823    11A     -1.640103    12A     -1.436241
      13A     -1.085134    14A     -1.017195    15A     -0.926287
      16A     -0.838415    17A     -0.832887    18A     -0.823226
      19A     -0.790993    20A     -0.723729    21A     -0.712546
      22A     -0.696961    23A     -0.675767    24A     -0.661109
      25A     -0.656207    26A     -0.645144    27A     -0.633067
      28A     -0.588700    29A     -0.558540    30A     -0.526818
      31A     -0.504492    32A     -0.342813

  @DF-RHF Final Energy:  -527.50511329107599

   => Energetics <=

    Nuclear Repulsion Energy =            414.1439928364908951
    One-Electron Energy =               -1551.9190823412898226
    Two-Electron Energy =                 610.2699762137227708
    DFT Exchange-Correlation Energy =       0.0000000000000000
    Empirical Dispersion Energy =           0.0000000000000000
    PCM Polarization Energy =               0.0000000000000000
    EFP Energy =                            0.0000000000000000
    Total Energy =                       -527.5051132910760998
    Molecular point group: c1
  Basis Set: 6-31G*
  Basis Set:

  -Total Gradient:
     Atom            X                  Y                   Z
    ------   -----------------  -----------------  -----------------
       1       -0.016643862479    -0.020859057904    -0.020483312426
       2        0.019683723077     0.035099749939     0.015441394629
       3        0.006579655874    -0.024790654247     0.036130599993
       4       -0.000031987008     0.000058640525     0.000010445009
       5       -0.000068157589    -0.000161940753    -0.000135641455
       6       -0.009551086198     0.010626668609    -0.030938861062
       7        0.000021976128     0.000026853051    -0.000010522089
       8        0.000001287049    -0.000013142408     0.000020554701
       9       -0.000001808974     0.000005906551    -0.000004268039
      10        0.000004652277    -0.000000504358    -0.000006170105
      11        0.000000612996     0.000004036450    -0.000010872578
      12        0.000008832796     0.000023885632    -0.000012897476
      13       -0.000003837950    -0.000020441089    -0.000000449115

  **** Optimization is complete! (in 19 steps) ****
    Final optimized geometry and variables:
    Molecular point group: c1

    Geometry (in Angstrom), charge = 0, multiplicity = 1:

    H           -2.661727006573     0.893755155789     1.993691944947
    C           -2.106350048357     0.062830219478     2.386938601605
    C           -0.960241926702    -0.359769351728     1.885344320253
    H           -2.743882818616    -0.708076274390     2.787880585967
    O           -0.092304409196     0.550262787881     1.351592809976
    H           -0.792020888354    -1.348107384523     1.493973794690
    C            0.947577535819     0.088531660854     0.560719593414
    C            0.534896214311    -0.033256739453    -0.888617561706
    H            1.314752759046    -0.878159320314     0.887820665081
    H            1.752610132320     0.806447962920     0.617038335259
    F            1.564236394878    -0.448072176259    -1.611308098488
    F           -0.444484910738    -0.911726195606    -1.044239329474
    F            0.124594255488     1.114638887625    -1.386503758156

  Mulliken Charges: (a.u.)
   Center  Symbol    Alpha    Beta     Spin     Total
       1     H     0.39720  0.39720  0.00000  0.20560
       2     C     3.22613  3.22613  0.00000 -0.45227
       3     C     2.90789  2.90789  0.00000  0.18422
       4     H     0.41670  0.41670  0.00000  0.16659
       5     O     4.29618  4.29618  0.00000 -0.59237
       6     H     0.40122  0.40122  0.00000  0.19756
       7     C     3.06481  3.06481  0.00000 -0.12962
       8     C     2.45613  2.45613  0.00000  1.08775
       9     H     0.40576  0.40576  0.00000  0.18848
      10     H     0.39013  0.39013  0.00000  0.21974
      11     F     4.68214  4.68214  0.00000 -0.36428
      12     F     4.68141  4.68141  0.00000 -0.36282
      13     F     4.67429  4.67429  0.00000 -0.34858

   Total alpha = 32.00000, Total beta = 32.00000, Total charge =  0.00000
