                              Psi4 1.0.54 Driver

  ==> Input File <==

--------------------------------------------------------------------------
set {
	reference rhf
	basis cc-pvtz
}

set_num_threads( 4 )
memory 2 gb

molecule MOL {
0 1

H	 1.692510	 -1.631904	 -0.448029
O	 2.012307	 -0.863440	 0.000222
C	 1.050374	 0.054877	 0.000135
C	 -0.318151	 -0.570512	 0.000144
O	 1.286319	 1.213453	 -0.000040
C	 -1.454884	 0.441630	 -0.000560
H	 -0.371613	 -1.223646	 -0.864985
H	 -0.371920	 -1.222758	 0.865929
C	 -2.822577	 -0.232186	 0.000063
H	 -1.359760	 1.084704	 -0.867077
H	 -1.359641	 1.085996	 0.864983
H	 -2.954352	 -0.858985	 -0.875745
H	 -3.615886	 0.505352	 0.000019
H	 -2.953878	 -0.858359	 0.876394

	symmetry c1
}
set optking {
	frozen_dihedral = ("
		1 2 3 5
	")
}

ee,wfn = optimize('scf', return_wfn=True)
oeprop( wfn, 'DIPOLE', 'QUADRUPOLE', 'MULLIKEN_CHARGES')
f=open( 'psi4out.xyz', 'w' )
f.write( "14  " )
f.write( str(ee) + "\n" )
f.write( MOL.save_string_xyz() )
f.close()
--------------------------------------------------------------------------

    Molecular point group: c1
  Charge       = 0
  Multiplicity = 1
  Basis Set: CC-PVTZ
  Basis Set:
  @DF-RHF Final Energy:  -305.98745321266796
    Total Energy =                       -305.9874532126679583
    Molecular point group: c1
  Basis Set: CC-PVTZ
  Basis Set:
  Basis Set: CC-PVTZ
  Basis Set:
  @DF-RHF Final Energy:  -305.98848918007758
    Total Energy =                       -305.9884891800775790
  Basis Set: CC-PVTZ
  Basis Set:
  Basis Set: CC-PVTZ
  Basis Set:
  @DF-RHF Final Energy:  -305.98867335638727
    Total Energy =                       -305.9886733563872667
  Basis Set: CC-PVTZ
  Basis Set:
  Basis Set: CC-PVTZ
  Basis Set:
  @DF-RHF Final Energy:  -305.98878548864786
    Total Energy =                       -305.9887854886477498
  Basis Set: CC-PVTZ
  Basis Set:
  Basis Set: CC-PVTZ
  Basis Set:
  @DF-RHF Final Energy:  -305.98885940204855
    Total Energy =                       -305.9888594020486039
  Basis Set: CC-PVTZ
  Basis Set:
  Basis Set: CC-PVTZ
  Basis Set:
  @DF-RHF Final Energy:  -305.98886081457840
    Total Energy =                       -305.9888608145781745
  Basis Set: CC-PVTZ
  Basis Set:
  Basis Set: CC-PVTZ
  Basis Set:
  @DF-RHF Final Energy:  -305.98886309027506
    Total Energy =                       -305.9888630902750037
  Basis Set: CC-PVTZ
  Basis Set:
  Charge       = 0
  Multiplicity = 1
  Basis Set: CC-PVTZ
  Basis Set:

    Orbital Energies (a.u.)
    -----------------------

    Doubly Occupied:

       1A    -20.600520     2A    -20.540125     3A    -11.373459
       4A    -11.249645     5A    -11.228927     6A    -11.220208
       7A     -1.469582     8A     -1.373831     9A     -1.088419
      10A     -0.978981    11A     -0.854184    12A     -0.817592
      13A     -0.721240    14A     -0.674885    15A     -0.663259
      16A     -0.626654    17A     -0.586282    18A     -0.582183
      19A     -0.552362    20A     -0.510511    21A     -0.496554
      22A     -0.488920    23A     -0.483123    24A     -0.444872

  @DF-RHF Final Energy:  -305.98886313937396

   => Energetics <=

    Nuclear Repulsion Energy =            240.2589664425414355
    One-Electron Energy =                -893.2430180485723668
    Two-Electron Energy =                 346.9951884666571686
    DFT Exchange-Correlation Energy =       0.0000000000000000
    Empirical Dispersion Energy =           0.0000000000000000
    PCM Polarization Energy =               0.0000000000000000
    EFP Energy =                            0.0000000000000000
    Total Energy =                       -305.9888631393737342
    Molecular point group: c1
  Basis Set: CC-PVTZ
  Basis Set:

  -Total Gradient:
     Atom            X                  Y                   Z
    ------   -----------------  -----------------  -----------------
       1        0.001960276865     0.002050974599    -0.005399816630
       2       -0.002428544740    -0.002752458789     0.004498466771
       3        0.000395793836     0.001064799347     0.006152907647
       4        0.000003986978    -0.000005423858     0.000015025760
       5        0.000067657951    -0.000360940108    -0.005252568747
       6       -0.000000832697     0.000001347581    -0.000003746204
       7        0.000004787023     0.000003815659    -0.000007024088
       8       -0.000002533336    -0.000001841418    -0.000008427375
       9       -0.000000803974    -0.000000131906    -0.000000320788
      10        0.000000471719    -0.000002600815     0.000003463632
      11       -0.000001045385     0.000001671592     0.000001734052
      12        0.000000250858     0.000000688804     0.000000870968
      13        0.000000221866    -0.000000607182     0.000000122835
      14        0.000000313034     0.000000706493    -0.000000687833

  **** Optimization is complete! (in 8 steps) ****
    Final optimized geometry and variables:
    Molecular point group: c1

    Geometry (in Angstrom), charge = 0, multiplicity = 1:

    H            1.918927709055    -1.562680992307    -0.299807786939
    O            2.107402817362    -0.724915048389     0.086014518041
    C            1.056781663056     0.105795534983     0.019210326839
    C           -0.292266718782    -0.575555520772     0.045212624518
    O            1.222142405436     1.267002824531    -0.053601629079
    C           -1.469033452905     0.384823142455    -0.054561656028
    H           -0.319366977100    -1.295346438773    -0.770636098584
    H           -0.342375763631    -1.158161768227     0.960514739468
    C           -2.809509777012    -0.340798027838    -0.022681449940
    H           -1.380332808586     0.961461647633    -0.966971347002
    H           -1.412545219421     1.096934899594     0.759089358764
    H           -2.901983503563    -1.038406495645    -0.848785228640
    H           -3.629628375285     0.363017362235    -0.093341639928
    H           -2.934061151890    -0.900992429572     0.898169318240

  Mulliken Charges: (a.u.)
   Center  Symbol    Alpha    Beta     Spin     Total
       1     H     0.38797  0.38797  0.00000  0.22405
       2     O     4.15136  4.15136  0.00000 -0.30271
       3     C     2.80472  2.80472  0.00000  0.39057
       4     C     3.11961  3.11961  0.00000 -0.23921
       5     O     4.17129  4.17129  0.00000 -0.34258
       6     C     3.08311  3.08311  0.00000 -0.16621
       7     H     0.45191  0.45191  0.00000  0.09617
       8     H     0.43719  0.43719  0.00000  0.12562
       9     C     3.15022  3.15022  0.00000 -0.30045
      10     H     0.44441  0.44441  0.00000  0.11119
      11     H     0.44263  0.44263  0.00000  0.11474
      12     H     0.45632  0.45632  0.00000  0.08736
      13     H     0.44392  0.44392  0.00000  0.11217
      14     H     0.45535  0.45535  0.00000  0.08930

   Total alpha = 24.00000, Total beta = 24.00000, Total charge =  0.00000

*** Psi4 exiting successfully. Buy a developer a beer!
