  ==> Input File <==

--------------------------------------------------------------------------
set {
	reference rhf
	basis 6-31G*
}

set_num_threads( 1 )
memory 2 gb

molecule MOL {
0 1

O	 -2.821601	 1.309235	 -0.001213
C	 -2.668563	 0.129746	 -0.000350
C	 -3.801572	 -0.864014	 -0.000442
O	 -1.481751	 -0.454642	 0.000584
H	 -4.417280	 -0.689587	 -0.874708
H	 -3.443784	 -1.883046	 -0.000565
H	 -4.417179	 -0.689832	 0.873954
C	 -0.334255	 0.388708	 0.000906
C	 0.891947	 -0.504646	 0.000751
H	 -0.365390	 1.025305	 -0.873475
H	 -0.365484	 1.024911	 0.875569
C	 2.191998	 0.301789	 0.000897
H	 0.855148	 -1.151283	 -0.871571
H	 0.855132	 -1.151660	 0.872805
C	 2.103657	 1.574550	 0.845054
H	 3.005065	 -0.318876	 0.373435
H	 2.455059	 0.568017	 -1.021357
C	 3.402603	 2.379289	 0.846250
H	 1.841208	 1.310307	 1.866999
H	 1.293136	 2.197030	 0.472704
H	 4.226205	 1.794109	 1.245323
H	 3.308921	 3.274642	 1.452717
H	 3.673832	 2.687781	 -0.159372

	symmetry c1
}
set optking {
	frozen_dihedral = ("
		13 9 8 10,
		2 4 8 10,
		19 15 12 16,
		1 2 4 8
	")
}

ee = energy('scf')
oeprop('DIPOLE', 'QUADRUPOLE', 'MULLIKEN_CHARGES')
f=open( 'psi4out.xyz', 'w' )
f.write( "23  " )
f.write( str(ee) + "\n" )
f.write( MOL.save_string_xyz() )
f.close()
--------------------------------------------------------------------------

    Molecular point group: c1

    Geometry (in Angstrom), charge = 0, multiplicity = 1:

       Center              X                  Y                   Z               Mass
    ------------   -----------------  -----------------  -----------------  -----------------
           O         -2.523130475165     0.828105824735    -0.190086370320    15.994914619560
           C         -2.370092475165    -0.351383175265    -0.189223370320    12.000000000000
           C         -3.503101475165    -1.345143175265    -0.189315370320    12.000000000000
           O         -1.183280475165    -0.935771175265    -0.188289370320    15.994914619560
           H         -4.118809475165    -1.170716175265    -1.063581370320     1.007825032070
           H         -3.145313475165    -2.364175175265    -0.189438370320     1.007825032070
           H         -4.118708475165    -1.170961175265     0.685080629680     1.007825032070
           C         -0.035784475165    -0.092421175265    -0.187967370320    12.000000000000
           C          1.190417524835    -0.985775175265    -0.188122370320    12.000000000000
           H         -0.066919475165     0.544175824735    -1.062348370320     1.007825032070
           H         -0.067013475165     0.543781824735     0.686695629680     1.007825032070
           C          2.490468524835    -0.179340175265    -0.187976370320    12.000000000000
           H          1.153618524835    -1.632412175265    -1.060444370320     1.007825032070
           H          1.153602524835    -1.632789175265     0.683931629680     1.007825032070
           C          2.402127524835     1.093420824735     0.656180629680    12.000000000000
           H          3.303535524835    -0.800005175265     0.184561629680     1.007825032070
           H          2.753529524835     0.086887824735    -1.210230370320     1.007825032070
           C          3.701073524835     1.898159824735     0.657376629680    12.000000000000
           H          2.139678524835     0.829177824735     1.678125629680     1.007825032070
           H          1.591606524835     1.715900824735     0.283830629680     1.007825032070
           H          4.524675524835     1.312979824735     1.056449629680     1.007825032070
           H          3.607391524835     2.793512824735     1.263843629680     1.007825032070
           H          3.972302524835     2.206651824735    -0.348245370320     1.007825032070

  Charge       = 0
  Multiplicity = 1
  Basis Set: 6-31G*
  Basis Set:

    Orbital Energies (a.u.)
    -----------------------

    Doubly Occupied:

       1A    -20.602231     2A    -20.540258     3A    -11.373802
       4A    -11.280154     5A    -11.232179     6A    -11.223705
       7A    -11.223028     8A    -11.221366     9A    -11.212559
      10A     -1.467444    11A     -1.360360    12A     -1.097940
      13A     -1.038374    14A     -1.001870    15A     -0.930945
      16A     -0.854763    17A     -0.790548    18A     -0.776810
      19A     -0.689806    20A     -0.684825    21A     -0.669082
      22A     -0.640369    23A     -0.608987    24A     -0.588405
      25A     -0.578418    26A     -0.572098    27A     -0.565772
      28A     -0.526800    29A     -0.525359    30A     -0.516175
      31A     -0.496741    32A     -0.475045    33A     -0.464947
      34A     -0.459834    35A     -0.448368    36A     -0.435798

  @DF-RHF Final Energy:  -422.97285644288576

   => Energetics <=

    Nuclear Repulsion Energy =            460.4372003470916184
    One-Electron Energy =               -1488.4696355782793944
    Two-Electron Energy =                 605.0595787883028152
    DFT Exchange-Correlation Energy =       0.0000000000000000
    Empirical Dispersion Energy =           0.0000000000000000
    PCM Polarization Energy =               0.0000000000000000
    EFP Energy =                            0.0000000000000000
    Total Energy =                       -422.9728564428849040

  Mulliken Charges: (a.u.)
   Center  Symbol    Alpha    Beta     Spin     Total
       1     O     4.28427  4.28427  0.00000 -0.56854
       2     C     2.61550  2.61550  0.00000  0.76899
       3     C     3.28780  3.28780  0.00000 -0.57559
       4     O     4.31455  4.31455  0.00000 -0.62910
       5     H     0.39757  0.39757  0.00000  0.20486
       6     H     0.39983  0.39983  0.00000  0.20034
       7     H     0.39761  0.39761  0.00000  0.20478
       8     C     3.00048  3.00048  0.00000 -0.00096
       9     C     3.16471  3.16471  0.00000 -0.32941
      10     H     0.41094  0.41094  0.00000  0.17811
      11     H     0.40635  0.40635  0.00000  0.18731
      12     C     3.15817  3.15817  0.00000 -0.31634
      13     H     0.41200  0.41200  0.00000  0.17599
      14     H     0.41398  0.41398  0.00000  0.17204
      15     C     3.16517  3.16517  0.00000 -0.33034
      16     H     0.41714  0.41714  0.00000  0.16572
      17     H     0.42000  0.42000  0.00000  0.16001
      18     C     3.23799  3.23799  0.00000 -0.47598
      19     H     0.42053  0.42053  0.00000  0.15895
      20     H     0.41594  0.41594  0.00000  0.16812
      21     H     0.42135  0.42135  0.00000  0.15730
      22     H     0.41738  0.41738  0.00000  0.16525
      23     H     0.42076  0.42076  0.00000  0.15848

   Total alpha = 36.00000, Total beta = 36.00000, Total charge =  0.00000
