  ==> Input File <==

--------------------------------------------------------------------------
set {
	reference rhf
	basis 6-31G*
}

set_num_threads( 1 )
memory 2 gb

molecule MOL {
0 1

H	 1.949979	 1.551020	 -0.647815
O	 1.065723	 1.199182	 -0.680798
C	 1.050492	 0.053836	 0.000068
C	 -0.318135	 -0.576402	 0.000164
O	 2.021815	 -0.381128	 0.527643
C	 -1.454360	 0.441875	 -0.000474
H	 -0.374042	 -1.230163	 -0.866135
H	 -0.374274	 -1.229227	 0.867154
C	 -2.826123	 -0.230780	 0.000056
H	 -1.357605	 1.085198	 -0.868380
H	 -1.357504	 1.086451	 0.866496
H	 -2.959731	 -0.858053	 -0.876869
H	 -3.619374	 0.509403	 -0.000080
H	 -2.959371	 -0.857318	 0.877556

	symmetry c1
}
set optking {
	frozen_dihedral = ("
		7 4 6 10,
		1 2 3 5
	")
}

ee = energy('scf')
oeprop('DIPOLE', 'QUADRUPOLE', 'MULLIKEN_CHARGES')
f=open( 'psi4out.xyz', 'w' )
f.write( "14  " )
f.write( str(ee) + "\n" )
f.write( MOL.save_string_xyz() )
f.close()
--------------------------------------------------------------------------

    Molecular point group: c1

    Geometry (in Angstrom), charge = 0, multiplicity = 1:

       Center              X                  Y                   Z               Mass
    ------------   -----------------  -----------------  -----------------  -----------------
           H          1.999165705855     1.444210779647    -0.612551040126     1.007825032070
           O          1.114909705855     1.092372779647    -0.645534040126    15.994914619560
           C          1.099678705855    -0.052973220353     0.035331959874    12.000000000000
           C         -0.268948294145    -0.683211220353     0.035427959874    12.000000000000
           O          2.071001705855    -0.487937220353     0.562906959874    15.994914619560
           C         -1.405173294145     0.335065779647     0.034789959874    12.000000000000
           H         -0.324855294145    -1.336972220353    -0.830871040126     1.007825032070
           H         -0.325087294145    -1.336036220353     0.902417959874     1.007825032070
           C         -2.776936294145    -0.337589220353     0.035319959874    12.000000000000
           H         -1.308418294145     0.978388779647    -0.833116040126     1.007825032070
           H         -1.308317294145     0.979641779647     0.901759959874     1.007825032070
           H         -2.910544294145    -0.964862220353    -0.841605040126     1.007825032070
           H         -3.570187294145     0.402593779647     0.035183959874     1.007825032070
           H         -2.910184294145    -0.964127220353     0.912819959874     1.007825032070

  Charge       = 0
  Multiplicity = 1
  Basis Set: 6-31G*
  Basis Set:

    Orbital Energies (a.u.)
    -----------------------

    Doubly Occupied:

       1A    -20.614204     2A    -20.550091     3A    -11.381499
       4A    -11.240586     5A    -11.229519     6A    -11.219084
       7A     -1.475448     8A     -1.365476     9A     -1.086553
      10A     -0.978395    11A     -0.845812    12A     -0.817819
      13A     -0.700866    14A     -0.682755    15A     -0.658518
      16A     -0.619869    17A     -0.590711    18A     -0.565839
      19A     -0.548943    20A     -0.523334    21A     -0.499169
      22A     -0.486259    23A     -0.472099    24A     -0.437268

  @DF-RHF Final Energy:  -305.87808692078613

   => Energetics <=

    Nuclear Repulsion Energy =            241.3006117863308475
    One-Electron Energy =                -895.1771403036203765
    Two-Electron Energy =                 347.9984415965034827
    DFT Exchange-Correlation Energy =       0.0000000000000000
    Empirical Dispersion Energy =           0.0000000000000000
    PCM Polarization Energy =               0.0000000000000000
    EFP Energy =                            0.0000000000000000
    Total Energy =                       -305.8780869207860746

  Mulliken Charges: (a.u.)
   Center  Symbol    Alpha    Beta     Spin     Total
       1     H     0.26743  0.26743  0.00000  0.46514
       2     O     4.34790  4.34790  0.00000 -0.69579
       3     C     2.62368  2.62368  0.00000  0.75264
       4     C     3.20940  3.20940  0.00000 -0.41879
       5     O     4.28101  4.28101  0.00000 -0.56202
       6     C     3.15823  3.15823  0.00000 -0.31647
       7     H     0.39887  0.39887  0.00000  0.20227
       8     H     0.39691  0.39691  0.00000  0.20617
       9     C     3.24257  3.24257  0.00000 -0.48513
      10     H     0.40447  0.40447  0.00000  0.19107
      11     H     0.41532  0.41532  0.00000  0.16937
      12     H     0.41985  0.41985  0.00000  0.16030
      13     H     0.41488  0.41488  0.00000  0.17023
      14     H     0.41950  0.41950  0.00000  0.16101

   Total alpha = 24.00000, Total beta = 24.00000, Total charge = -0.00000
