  ==> Input File <==

--------------------------------------------------------------------------
set {
	reference rhf
	basis 6-31G*
}

set_num_threads( 1 )
memory 2 gb

molecule MOL {
0 1

H	 -2.499100	 -0.730091	 -0.745082
O	 -2.347518	 -0.290803	 0.079804
C	 -1.184022	 0.487508	 -0.006784
C	 0.062599	 -0.378592	 0.031606
H	 -1.176523	 1.099369	 -0.904519
H	 -1.187323	 1.153111	 0.844927
O	 1.171513	 0.459272	 -0.058250
H	 0.050699	 -1.089204	 -0.797170
H	 0.078739	 -0.954914	 0.954740
C	 2.343677	 -0.175589	 -0.460897
H	 2.238071	 -0.615429	 -1.450856
H	 3.125646	 0.570428	 -0.490628
H	 2.630221	 -0.959989	 0.236527

	symmetry c1
}
set optking {
	frozen_dihedral = ("
		8 4 3 5,
		1 2 3 5,
		4 7 10 13
	")
}

ee = energy('scf')
oeprop('DIPOLE', 'QUADRUPOLE', 'MULLIKEN_CHARGES')
f=open( 'psi4out.xyz', 'w' )
f.write( "13  " )
f.write( str(ee) + "\n" )
f.write( MOL.save_string_xyz() )
f.close()
--------------------------------------------------------------------------

    Molecular point group: c1

    Geometry (in Angstrom), charge = 0, multiplicity = 1:

       Center              X                  Y                   Z               Mass
    ------------   -----------------  -----------------  -----------------  -----------------
           H         -2.487830030013    -0.734770740651    -0.649639795048     1.007825032070
           O         -2.336248030013    -0.295482740651     0.175246204952    15.994914619560
           C         -1.172752030013     0.482828259349     0.088658204952    12.000000000000
           C          0.073868969987    -0.383271740651     0.127048204952    12.000000000000
           H         -1.165253030013     1.094689259349    -0.809076795048     1.007825032070
           H         -1.176053030013     1.148431259349     0.940369204952     1.007825032070
           O          1.182782969987     0.454592259349     0.037192204952    15.994914619560
           H          0.061968969987    -1.093883740651    -0.701727795048     1.007825032070
           H          0.090008969987    -0.959593740651     1.050182204952     1.007825032070
           C          2.354946969987    -0.180268740651    -0.365454795048    12.000000000000
           H          2.249340969987    -0.620108740651    -1.355413795048     1.007825032070
           H          3.136915969987     0.565748259349    -0.395185795048     1.007825032070
           H          2.641490969987    -0.964668740651     0.331969204952     1.007825032070

  Charge       = 0
  Multiplicity = 1
  Basis Set: 6-31G*
  Basis Set:

    Orbital Energies (a.u.)
    -----------------------

    Doubly Occupied:

       1A    -20.562158     2A    -20.560019     3A    -11.270922
       4A    -11.270749     5A    -11.268712     6A     -1.389027
       7A     -1.365138     8A     -1.018377     9A     -0.914083
      10A     -0.842123    11A     -0.709967    12A     -0.671993
      13A     -0.661469    14A     -0.639973    15A     -0.593013
      16A     -0.567039    17A     -0.550950    18A     -0.490120
      19A     -0.478513    20A     -0.444073    21A     -0.418018

  @DF-RHF Final Energy:  -267.94961793042614

   => Energetics <=

    Nuclear Repulsion Energy =            190.3894203688260518
    One-Electron Energy =                -743.3052334266627668
    Two-Electron Energy =                 284.9661951274102307
    DFT Exchange-Correlation Energy =       0.0000000000000000
    Empirical Dispersion Energy =           0.0000000000000000
    PCM Polarization Energy =               0.0000000000000000
    EFP Energy =                            0.0000000000000000
    Total Energy =                       -267.9496179304264274

  Mulliken Charges: (a.u.)
   Center  Symbol    Alpha    Beta     Spin     Total
       1     H     0.28147  0.28147  0.00000  0.43706
       2     O     4.37085  4.37085  0.00000 -0.74169
       3     C     3.00443  3.00443  0.00000 -0.00885
       4     C     2.99685  2.99685  0.00000  0.00630
       5     H     0.42349  0.42349  0.00000  0.15302
       6     H     0.40794  0.40794  0.00000  0.18413
       7     O     4.30716  4.30716  0.00000 -0.61432
       8     H     0.43838  0.43838  0.00000  0.12323
       9     H     0.42114  0.42114  0.00000  0.15772
      10     C     3.08041  3.08041  0.00000 -0.16083
      11     H     0.42918  0.42918  0.00000  0.14163
      12     H     0.41083  0.41083  0.00000  0.17834
      13     H     0.42786  0.42786  0.00000  0.14427

   Total alpha = 21.00000, Total beta = 21.00000, Total charge = -0.00000
