  ==> Input File <==

--------------------------------------------------------------------------
set {
	reference rhf
	basis cc-pvtz
}

set_num_threads( 4 )
memory 2 gb

molecule MOL {
0 1

O	 0.752744	 1.299769	 0.108014
C	 0.576499	 0.134701	 -0.003900
C	 -0.765656	 -0.550508	 -0.002152
O	 1.561308	 -0.738095	 -0.139363
C	 -1.945526	 0.411052	 0.000603
H	 -0.794329	 -1.203792	 -0.868145
H	 -0.791555	 -1.205429	 0.862701
C	 -3.282915	 -0.321280	 0.002596
H	 -1.880300	 1.059126	 -0.864925
H	 -1.877207	 1.057892	 0.866807
H	 -3.388495	 -0.952755	 -0.873419
H	 -4.107811	 0.380864	 0.004116
H	 -3.385717	 -0.953283	 0.878571
C	 2.880648	 -0.230968	 -0.152605
H	 3.016863	 0.455186	 -0.975219
H	 3.526291	 -1.085982	 -0.270012
H	 3.102080	 0.279483	 0.772840

	symmetry c1
}
set optking {
	frozen_dihedral = ("
		1 2 3 6
	")
}

ee = optimize('scf')
oeprop('DIPOLE', 'QUADRUPOLE', 'MULLIKEN_CHARGES')
f=open( 'psi4out.xyz', 'w' )
f.write( "17  " )
f.write( str(ee) + "\n" )
f.write( MOL.save_string_xyz() )
f.close()
--------------------------------------------------------------------------

    Molecular point group: c1
  Charge       = 0
  Multiplicity = 1
  Basis Set: CC-PVTZ
  Basis Set:
  @DF-RHF Final Energy:  -345.03537136009709
    Total Energy =                       -345.0353713600969741
    Molecular point group: c1
  Basis Set: CC-PVTZ
  Basis Set:
  Basis Set: CC-PVTZ
  Basis Set:
  @DF-RHF Final Energy:  -345.03537980037299
    Total Energy =                       -345.0353798003726524
  Basis Set: CC-PVTZ
  Basis Set:
  Basis Set: CC-PVTZ
  Basis Set:
  @DF-RHF Final Energy:  -345.03533334026457
    Total Energy =                       -345.0353333402649696
  Basis Set: CC-PVTZ
  Basis Set:
  Basis Set: CC-PVTZ
  Basis Set:
  @DF-RHF Final Energy:  -345.03538695096483
    Total Energy =                       -345.0353869509648348
  Basis Set: CC-PVTZ
  Basis Set:
  Charge       = 0
  Multiplicity = 1
  Basis Set: CC-PVTZ
  Basis Set:

    Orbital Energies (a.u.)
    -----------------------

    Doubly Occupied:

       1A    -20.596752     2A    -20.534444     3A    -11.364968
       4A    -11.278770     5A    -11.234352     6A    -11.220205
       7A    -11.212780     8A     -1.472626     9A     -1.366177
      10A     -1.081785    11A     -1.002577    12A     -0.940399
      13A     -0.827921    14A     -0.769433    15A     -0.702647
      16A     -0.686680    17A     -0.676283    18A     -0.637741
      19A     -0.596858    20A     -0.575877    21A     -0.569511
      22A     -0.528886    23A     -0.523240    24A     -0.500523
      25A     -0.487821    26A     -0.479681    27A     -0.460145
      28A     -0.441424

  @DF-RHF Final Energy:  -345.03538705113164

   => Energetics <=

    Nuclear Repulsion Energy =            313.0171965574339197
    One-Electron Energy =               -1090.5641506312144884
    Two-Electron Energy =                 432.5115670226491602
    DFT Exchange-Correlation Energy =       0.0000000000000000
    Empirical Dispersion Energy =           0.0000000000000000
    PCM Polarization Energy =               0.0000000000000000
    EFP Energy =                            0.0000000000000000
    Total Energy =                       -345.0353870511314653
    Molecular point group: c1
  Basis Set: CC-PVTZ
  Basis Set:

  -Total Gradient:
     Atom            X                  Y                   Z
    ------   -----------------  -----------------  -----------------
       1        0.000016859757    -0.000034718778     0.000277607935
       2        0.000001260541     0.000002478555    -0.000377658409
       3       -0.000114720714     0.000226803839    -0.000043260119
       4       -0.000009322418     0.000000319584    -0.000017117073
       5       -0.000001932170     0.000001618421     0.000000643148
       6        0.000102647906    -0.000192971831     0.000147200921
       7       -0.000002107674    -0.000002944620     0.000001501434
       8       -0.000000824961    -0.000000202502    -0.000004357964
       9       -0.000000580752    -0.000000446201     0.000001040716
      10        0.000001657661    -0.000001937471    -0.000000385155
      11       -0.000000735307    -0.000000605908     0.000000958095
      12       -0.000000470978    -0.000000314699    -0.000001318734
      13        0.000000848157     0.000001031099     0.000000676768
      14        0.000011364437     0.000002117136     0.000024758408
      15       -0.000009584036    -0.000001986784    -0.000002966817
      16       -0.000000578115     0.000000555124    -0.000003335161
      17        0.000006218668     0.000001205036    -0.000003987993

  **** Optimization is complete! (in 5 steps) ****
    Final optimized geometry and variables:
    Molecular point group: c1

    Geometry (in Angstrom), charge = 0, multiplicity = 1:

    O            0.752880044193     1.298916169481     0.125476173160
    C            0.576894260476     0.133616012614     0.015052485290
    C           -0.765457043841    -0.551616037182     0.016144551242
    O            1.562701025895    -0.738937201127    -0.114709735267
    C           -1.945355106992     0.409807155695     0.030735582778
    H           -0.799559908994    -1.207820103648    -0.846655262824
    H           -0.785082430011    -1.204559970931     0.883594830836
    C           -3.282688349609    -0.322466126587     0.043085914935
    H           -1.888467258283     1.058784015887    -0.835285822729
    H           -1.868880830854     1.055804243410     0.896519883307
    H           -3.395809531510    -0.953608140365    -0.832273260769
    H           -4.107556666001     0.379722999131     0.052041020280
    H           -3.377968038063    -0.954874233764     0.919681944936
    C            2.882141812581    -0.232473485016    -0.111154227428
    H            3.027750276852     0.457516610565    -0.928994451732
    H            3.529206590532    -1.086934529590    -0.225405707447
    H            3.093849580051     0.273818486061     0.818962291347

  Mulliken Charges: (a.u.)
   Center  Symbol    Alpha    Beta     Spin     Total
       1     O     4.19678  4.19678  0.00000 -0.39356
       2     C     2.80699  2.80699  0.00000  0.38601
       3     C     3.09538  3.09538  0.00000 -0.19076
       4     O     4.14681  4.14681  0.00000 -0.29363
       5     C     3.07869  3.07869  0.00000 -0.15738
       6     H     0.44024  0.44024  0.00000  0.11952
       7     H     0.44184  0.44184  0.00000  0.11632
       8     C     3.15131  3.15131  0.00000 -0.30263
       9     H     0.44799  0.44799  0.00000  0.10402
      10     H     0.44550  0.44550  0.00000  0.10901
      11     H     0.45591  0.45591  0.00000  0.08818
      12     H     0.44559  0.44559  0.00000  0.10883
      13     H     0.45572  0.45572  0.00000  0.08856
      14     C     3.03733  3.03733  0.00000 -0.07466
      15     H     0.45429  0.45429  0.00000  0.09143
      16     H     0.44527  0.44527  0.00000  0.10946
      17     H     0.45436  0.45436  0.00000  0.09128

   Total alpha = 28.00000, Total beta = 28.00000, Total charge = -0.00000
