  ==> Input File <==

--------------------------------------------------------------------------
set {
	reference rhf
	basis 6-31G*
}

set_num_threads( 4 )
memory 2 gb

molecule MOL {
0 1

H	 -4.031818	 -0.453427	 -0.000094
C	 -2.967712	 -0.297022	 -0.000064
C	 -2.458620	 0.992929	 0.000032
C	 -2.109895	 -1.385637	 -0.000122
H	 -3.124998	 1.836319	 0.000077
C	 -1.090278	 1.193236	 0.000070
H	 -2.506361	 -2.384847	 -0.000198
C	 -0.739812	 -1.187531	 -0.000085
H	 -0.678594	 2.184290	 0.000146
C	 -0.226438	 0.104061	 0.000012
H	 -0.072310	 -2.027032	 -0.000131
C	 1.239129	 0.373821	 0.000060
O	 1.580699	 1.385968	 -0.783198
O	 2.030665	 -0.249998	 0.635024
C	 2.957881	 1.712249	 -0.843051
H	 3.324045	 1.988559	 0.134891
H	 3.032583	 2.547699	 -1.521502
H	 3.529454	 0.874251	 -1.214512

	symmetry c1
}
set optking {
	frozen_dihedral = ("
		13 12 10 6
	")
}

ee = optimize('scf')
oeprop('DIPOLE', 'QUADRUPOLE', 'MULLIKEN_CHARGES')
f=open( 'psi4out.xyz', 'w' )
f.write( "18  " )
f.write( str(ee) + "\n" )
f.write( MOL.save_string_xyz() )
f.close()
--------------------------------------------------------------------------

    Molecular point group: c1
  Charge       = 0
  Multiplicity = 1
  Basis Set: 6-31G*
  Basis Set:
  @DF-RHF Final Energy:  -457.34534238210495
    Total Energy =                       -457.3453423821047181
    Molecular point group: c1
  Basis Set: 6-31G*
  Basis Set:
  Basis Set: 6-31G*
  Basis Set:
  @DF-RHF Final Energy:  -457.34587198040435
    Total Energy =                       -457.3458719804043540
  Basis Set: 6-31G*
  Basis Set:
  Basis Set: 6-31G*
  Basis Set:
  @DF-RHF Final Energy:  -457.34664834892965
    Total Energy =                       -457.3466483489296479
  Basis Set: 6-31G*
  Basis Set:
  Basis Set: 6-31G*
  Basis Set:
  @DF-RHF Final Energy:  -457.34679557682841
    Total Energy =                       -457.3467955768281854
  Basis Set: 6-31G*
  Basis Set:
  Basis Set: 6-31G*
  Basis Set:
  @DF-RHF Final Energy:  -457.34679710029206
    Total Energy =                       -457.3467971002921786
  Basis Set: 6-31G*
  Basis Set:
  Charge       = 0
  Multiplicity = 1
  Basis Set: 6-31G*
  Basis Set:

    Orbital Energies (a.u.)
    -----------------------

    Doubly Occupied:

       1A    -20.608619     2A    -20.546712     3A    -11.378474
       4A    -11.283148     5A    -11.247385     6A    -11.244831
       7A    -11.243629     8A    -11.242612     9A    -11.238473
      10A    -11.237751    11A     -1.473434    12A     -1.365406
      13A     -1.165976    14A     -1.048530    15A     -1.025371
      16A     -0.978831    17A     -0.860081    18A     -0.836146
      19A     -0.778732    20A     -0.738467    21A     -0.683944
      22A     -0.677876    23A     -0.674243    24A     -0.630428
      25A     -0.626809    26A     -0.597436    27A     -0.588138
      28A     -0.555756    29A     -0.532406    30A     -0.516375
      31A     -0.505032    32A     -0.501080    33A     -0.458603
      34A     -0.445118    35A     -0.343927    36A     -0.341586

  @DF-RHF Final Energy:  -457.34679743717203

   => Energetics <=

    Nuclear Repulsion Energy =            492.5388736024710283
    One-Electron Energy =               -1599.3286088725935770
    Two-Electron Energy =                 649.4429378329504061
    DFT Exchange-Correlation Energy =       0.0000000000000000
    Empirical Dispersion Energy =           0.0000000000000000
    PCM Polarization Energy =               0.0000000000000000
    EFP Energy =                            0.0000000000000000
    Total Energy =                       -457.3467974371720857
    Molecular point group: c1
  Basis Set: 6-31G*
  Basis Set:

  -Total Gradient:
     Atom            X                  Y                   Z
    ------   -----------------  -----------------  -----------------
       1        0.000001128584     0.000016034418     0.000000715187
       2        0.000015371465    -0.000133492638    -0.000054614439
       3        0.000097402575     0.000121010287     0.000111488934
       4       -0.000138473702     0.000119613909    -0.000015788090
       5       -0.000031607817    -0.000008494424    -0.000013648264
       6       -0.000164288133    -0.000186864000     0.004776524234
       7        0.000032544848     0.000004044438     0.000012322701
       8        0.000084962264     0.000060374676    -0.000023570803
       9       -0.000030435235    -0.000010412321     0.000032827802
      10        0.000268545349    -0.000788314623    -0.008456646628
      11        0.000037007263    -0.000051731052     0.000018118917
      12       -0.000691811159     0.003769908271     0.007321393574
      13        0.000467001712    -0.002909714044    -0.003793920905
      14        0.000053642314    -0.000016639700     0.000023632293
      15        0.000004010527     0.000023471283     0.000072408120
      16        0.000020391767     0.000005201423    -0.000007380293
      17       -0.000013333894    -0.000008617012    -0.000007225612
      18       -0.000012058731    -0.000005378892     0.000003363271

  **** Optimization is complete! (in 6 steps) ****
    Final optimized geometry and variables:
    Molecular point group: c1

    Geometry (in Angstrom), charge = 0, multiplicity = 1:

    H           -3.973424440349    -0.793256705589     0.196479529535
    C           -2.914000279929    -0.612265071476     0.160150310252
    C           -2.435826706157     0.688300359550     0.132838784584
    C           -2.029797107424    -1.680144735761     0.149391287610
    H           -3.121565993425     1.515881535981     0.154920861507
    C           -1.072629646578     0.922889151061     0.075966335567
    H           -2.400903830348    -2.688559788428     0.178777986084
    C           -0.666313925895    -1.447418203517     0.116278897789
    H           -0.697761295117     1.928660175225     0.043711058195
    C           -0.186186911414    -0.145865212725     0.052984751392
    H            0.029882634667    -2.264759716961     0.138986789731
    C            1.289161439530     0.070433193230     0.085468909679
    O            1.668820333929     1.098446418357    -0.658477160153
    O            2.052436324706    -0.627247997876     0.674485190025
    C            3.053976834257     1.396331899372    -0.679459522380
    H            3.410360650754     1.619755783258     0.315797007013
    H            3.159044760784     2.259053160063    -1.318420349480
    H            3.612439212410     0.562570055856    -1.079026311560

  Mulliken Charges: (a.u.)
   Center  Symbol    Alpha    Beta     Spin     Total
       1     H     0.39575  0.39575  0.00000  0.20851
       2     C     3.09230  3.09230  0.00000 -0.18460
       3     C     3.10476  3.10476  0.00000 -0.20952
       4     C     3.10520  3.10520  0.00000 -0.21041
       5     H     0.39612  0.39612  0.00000  0.20775
       6     C     3.09151  3.09151  0.00000 -0.18301
       7     H     0.39542  0.39542  0.00000  0.20915
       8     C     3.09044  3.09044  0.00000 -0.18088
       9     H     0.38558  0.38558  0.00000  0.22884
      10     C     3.04321  3.04321  0.00000 -0.08642
      11     H     0.38131  0.38131  0.00000  0.23737
      12     C     2.61166  2.61166  0.00000  0.77668
      13     O     4.30434  4.30434  0.00000 -0.60868
      14     O     4.28600  4.28600  0.00000 -0.57200
      15     C     3.09366  3.09366  0.00000 -0.18732
      16     H     0.40840  0.40840  0.00000  0.18320
      17     H     0.40727  0.40727  0.00000  0.18546
      18     H     0.40706  0.40706  0.00000  0.18588

   Total alpha = 36.00000, Total beta = 36.00000, Total charge = -0.00000
