  ==> Input File <==

--------------------------------------------------------------------------
set {
	reference rhf
	basis 6-31G*
}

set_num_threads( 4 )
memory 2 gb

molecule MOL {
0 1

H	 3.681556	 0.680248	 -0.896087
N	 2.905102	 0.047528	 -0.877928
C	 1.865559	 0.531981	 0.018834
H	 3.258605	 -0.835364	 -0.561119
C	 0.645745	 -0.382037	 -0.029944
H	 1.581904	 1.526391	 -0.312146
H	 2.203223	 0.630923	 1.053529
C	 -0.679275	 0.379305	 0.025956
H	 0.698998	 -0.976915	 -0.937203
H	 0.693479	 -1.083846	 0.802235
C	 -1.903357	 -0.536963	 -0.023547
H	 -0.726309	 1.082987	 -0.803784
H	 -0.717680	 0.977832	 0.934877
C	 -3.225172	 0.228290	 0.028445
H	 -1.867824	 -1.134999	 -0.931459
H	 -1.860449	 -1.239604	 0.805977
H	 -3.313397	 0.915643	 -0.808262
H	 -4.073500	 -0.448134	 -0.008893
H	 -3.306061	 0.809945	 0.942516

	symmetry c1
}
set optking {
	frozen_dihedral = ("
		6 3 5 9
	")
}

ee = optimize('scf')
oeprop('DIPOLE', 'QUADRUPOLE', 'MULLIKEN_CHARGES')
f=open( 'psi4out.xyz', 'w' )
f.write( "19  " )
f.write( str(ee) + "\n" )
f.write( MOL.save_string_xyz() )
f.close()
--------------------------------------------------------------------------

    Molecular point group: c1
  Charge       = 0
  Multiplicity = 1
  Basis Set: 6-31G*
  Basis Set:
  @DF-RHF Final Energy:  -251.34743224969623
    Total Energy =                       -251.3474322496962259
    Molecular point group: c1
  Basis Set: 6-31G*
  Basis Set:
  Basis Set: 6-31G*
  Basis Set:
  @DF-RHF Final Energy:  -251.34771038599939
    Total Energy =                       -251.3477103859995054
  Basis Set: 6-31G*
  Basis Set:
  Basis Set: 6-31G*
  Basis Set:
  @DF-RHF Final Energy:  -251.34778775985660
    Total Energy =                       -251.3477877598567716
  Basis Set: 6-31G*
  Basis Set:
  Basis Set: 6-31G*
  Basis Set:
  @DF-RHF Final Energy:  -251.34778440606476
    Total Energy =                       -251.3477844060645907
  Basis Set: 6-31G*
  Basis Set:
  Basis Set: 6-31G*
  Basis Set:
  @DF-RHF Final Energy:  -251.34779267581368
    Total Energy =                       -251.3477926758135936
  Basis Set: 6-31G*
  Basis Set:
  Charge       = 0
  Multiplicity = 1
  Basis Set: 6-31G*
  Basis Set:

    Orbital Energies (a.u.)
    -----------------------

    Doubly Occupied:

       1A    -15.533143     2A    -11.239586     3A    -11.213401
       4A    -11.212559     5A    -11.209294     6A    -11.207045
       7A     -1.176292     8A     -1.072270     9A     -0.997104
      10A     -0.899669    11A     -0.813787    12A     -0.789850
      13A     -0.653874    14A     -0.651097    15A     -0.613693
      16A     -0.592399    17A     -0.556066    18A     -0.548224
      19A     -0.537845    20A     -0.492383    21A     -0.481626
      22A     -0.464136    23A     -0.459057    24A     -0.451330
      25A     -0.379593

  @DF-RHF Final Energy:  -251.34779269030471

   => Energetics <=

    Nuclear Repulsion Energy =            245.5806753012815022
    One-Electron Energy =                -825.3662941101645174
    Two-Electron Energy =                 328.4378261185781867
    DFT Exchange-Correlation Energy =       0.0000000000000000
    Empirical Dispersion Energy =           0.0000000000000000
    PCM Polarization Energy =               0.0000000000000000
    EFP Energy =                            0.0000000000000000
    Total Energy =                       -251.3477926903048001
    Molecular point group: c1
  Basis Set: 6-31G*
  Basis Set:

  -Total Gradient:
     Atom            X                  Y                   Z
    ------   -----------------  -----------------  -----------------
       1        0.000012782142    -0.000002356346    -0.000005253377
       2       -0.000000289172     0.000007583207     0.000010473106
       3        0.001750118271    -0.001965518262    -0.004684873856
       4        0.000009697426    -0.000007707561    -0.000001115110
       5       -0.002912005240     0.004082884912    -0.001590318796
       6       -0.001038402206     0.001034926847     0.004146748843
       7        0.000007310344    -0.000004184758     0.000000760926
       8        0.000004198006    -0.000011346661     0.000016362056
       9        0.002170049168    -0.003128852900     0.002124576008
      10       -0.000006021845    -0.000007949077     0.000003811055
      11       -0.000007124436     0.000003755730    -0.000029761363
      12        0.000006368280    -0.000007229084     0.000001418160
      13       -0.000000602782     0.000003376413     0.000000754961
      14       -0.000000403217    -0.000001390128     0.000016887316
      15        0.000001557457     0.000002530813    -0.000006174221
      16        0.000001847965     0.000000769147    -0.000005973088
      17       -0.000001218333    -0.000007535076    -0.000004683869
      18        0.000001870500    -0.000000455012     0.000008404891
      19        0.000000267674     0.000008697794    -0.000002043642

  **** Optimization is complete! (in 6 steps) ****
    Final optimized geometry and variables:
    Molecular point group: c1

    Geometry (in Angstrom), charge = 0, multiplicity = 1:

    H            3.772596246285     0.609667205972    -0.634544563901
    N            2.975651921355     0.005540668930    -0.698868818640
    C            1.897697571832     0.487989742458     0.152283799816
    H            3.278331486968    -0.901517842366    -0.396894644301
    C            0.665529840332    -0.424115281716     0.069140995082
    H            1.633760633179     1.492974774454    -0.162313578754
    H            2.195780974516     0.584162163571     1.199241195221
    C           -0.661330246776     0.330418894926     0.145934802443
    H            0.726803685238    -1.003062015514    -0.847875104582
    H            0.705457094168    -1.153522254536     0.877112388054
    C           -1.882280616900    -0.590366245386     0.139065885510
    H           -0.726514340755     1.021889306468    -0.691943168857
    H           -0.678447016883     0.941349146192     1.047857690214
    C           -3.205555308330     0.171601996669     0.202442911667
    H           -1.862302143898    -1.205531073736    -0.757923704216
    H           -1.820678264664    -1.276663882582     0.981036454098
    H           -3.314223373139     0.839687522978    -0.647259389484
    H           -4.051974997957    -0.508277207459     0.198536241420
    H           -3.268913044831     0.773230892984     1.104923810082

  Mulliken Charges: (a.u.)
   Center  Symbol    Alpha    Beta     Spin     Total
       1     H     0.33313  0.33313  0.00000  0.33374
       2     N     3.92034  3.92034  0.00000 -0.84067
       3     C     3.06222  3.06222  0.00000 -0.12445
       4     H     0.33535  0.33535  0.00000  0.32931
       5     C     3.15898  3.15898  0.00000 -0.31796
       6     H     0.41934  0.41934  0.00000  0.16132
       7     H     0.43398  0.43398  0.00000  0.13205
       8     C     3.15468  3.15468  0.00000 -0.30935
       9     H     0.41099  0.41099  0.00000  0.17803
      10     H     0.42555  0.42555  0.00000  0.14890
      11     C     3.15183  3.15183  0.00000 -0.30366
      12     H     0.42067  0.42067  0.00000  0.15866
      13     H     0.42501  0.42501  0.00000  0.14997
      14     C     3.23936  3.23936  0.00000 -0.47872
      15     H     0.42174  0.42174  0.00000  0.15653
      16     H     0.42362  0.42362  0.00000  0.15275
      17     H     0.42139  0.42139  0.00000  0.15723
      18     H     0.41953  0.41953  0.00000  0.16094
      19     H     0.42231  0.42231  0.00000  0.15538

   Total alpha = 25.00000, Total beta = 25.00000, Total charge =  0.00000
