  ==> Input File <==

--------------------------------------------------------------------------
set {
	reference rhf
	basis 6-31G*
}

set_num_threads( 4 )
memory 2 gb

molecule MOL {
0 1

H	 -3.420663	 1.227371	 -1.044276
O	 -3.452007	 0.283848	 -0.965577
C	 -3.181085	 -0.079926	 0.364119
C	 -1.765924	 0.277073	 0.805136
H	 -3.327791	 -1.152017	 0.410903
H	 -3.905698	 0.375695	 1.036898
C	 -0.677594	 -0.417312	 -0.014550
H	 -1.637766	 1.358238	 0.744969
H	 -1.659588	 0.017670	 1.857098
C	 0.738335	 -0.034840	 0.421385
H	 -0.814977	 -0.178223	 -1.064632
H	 -0.802730	 -1.495410	 0.071702
C	 1.822265	 -0.738362	 -0.399735
H	 0.853533	 1.043532	 0.342250
H	 0.871597	 -0.279636	 1.474438
C	 3.258060	 -0.455774	 0.057203
H	 1.718003	 -0.459167	 -1.447053
H	 1.651028	 -1.811884	 -0.354513
C	 3.699878	 -1.245454	 1.290737
H	 3.347792	 0.606090	 0.273266
H	 3.942934	 -0.656331	 -0.764336
H	 3.025491	 -1.074142	 2.125598
H	 4.695113	 -0.945498	 1.604379
H	 3.727361	 -2.313421	 1.101385

	symmetry c1
}
set optking {
	frozen_dihedral = ("
		20 16 13 17
	")
}

ee = optimize('scf')
oeprop('DIPOLE', 'QUADRUPOLE', 'MULLIKEN_CHARGES')
f=open( 'psi4out.xyz', 'w' )
f.write( "24  " )
f.write( str(ee) + "\n" )
f.write( MOL.save_string_xyz() )
f.close()
--------------------------------------------------------------------------

    Molecular point group: c1
  Charge       = 0
  Multiplicity = 1
  Basis Set: 6-31G*
  Basis Set:
  @DF-RHF Final Energy:  -349.24672942548028
    Total Energy =                       -349.2467294254802823
    Molecular point group: c1
  Basis Set: 6-31G*
  Basis Set:
  Basis Set: 6-31G*
  Basis Set:
  @DF-RHF Final Energy:  -349.24694035955241
    Total Energy =                       -349.2469403595521271
  Basis Set: 6-31G*
  Basis Set:
  Basis Set: 6-31G*
  Basis Set:
  @DF-RHF Final Energy:  -349.24698603163512
    Total Energy =                       -349.2469860316352879
  Basis Set: 6-31G*
  Basis Set:
  Basis Set: 6-31G*
  Basis Set:
  @DF-RHF Final Energy:  -349.24699902347430
    Total Energy =                       -349.2469990234744728
  Basis Set: 6-31G*
  Basis Set:
  Basis Set: 6-31G*
  Basis Set:
  @DF-RHF Final Energy:  -349.24700243421927
    Total Energy =                       -349.2470024342193256
  Basis Set: 6-31G*
  Basis Set:
  Basis Set: 6-31G*
  Basis Set:
  @DF-RHF Final Energy:  -349.24700347626413
    Total Energy =                       -349.2470034762641262
  Basis Set: 6-31G*
  Basis Set:
  Charge       = 0
  Multiplicity = 1
  Basis Set: 6-31G*
  Basis Set:

    Orbital Energies (a.u.)
    -----------------------

    Doubly Occupied:

       1A    -20.553617     2A    -11.267765     3A    -11.217571
       4A    -11.213930     5A    -11.212851     6A    -11.211430
       7A    -11.211196     8A    -11.207284     9A     -1.360218
      10A     -1.088468    11A     -1.048282    12A     -0.986098
      13A     -0.914359    14A     -0.848420    15A     -0.800150
      16A     -0.779956    17A     -0.678978    18A     -0.654185
      19A     -0.624046    20A     -0.618459    21A     -0.599090
      22A     -0.584121    23A     -0.557794    24A     -0.538107
      25A     -0.515815    26A     -0.513016    27A     -0.494993
      28A     -0.471817    29A     -0.467848    30A     -0.459542
      31A     -0.457079    32A     -0.451212    33A     -0.418816

  @DF-RHF Final Energy:  -349.24700348008861

   => Energetics <=

    Nuclear Repulsion Energy =            383.6988798302109558
    One-Electron Energy =               -1233.8387306402514696
    Two-Electron Energy =                 500.8928473299519055
    DFT Exchange-Correlation Energy =       0.0000000000000000
    Empirical Dispersion Energy =           0.0000000000000000
    PCM Polarization Energy =               0.0000000000000000
    EFP Energy =                            0.0000000000000000
    Total Energy =                       -349.2470034800886651
    Molecular point group: c1
  Basis Set: 6-31G*
  Basis Set:

  -Total Gradient:
     Atom            X                  Y                   Z
    ------   -----------------  -----------------  -----------------
       1       -0.000001028526     0.000003289652    -0.000002291921
       2       -0.000009840942     0.000009999790     0.000007973262
       3        0.000003913919    -0.000025054281    -0.000002169840
       4        0.000002452937     0.000013253035    -0.000002689859
       5       -0.000001630122    -0.000002085355    -0.000000408469
       6        0.000001091572    -0.000000551463    -0.000002044344
       7        0.000000365286    -0.000003650144    -0.000003088482
       8        0.000002566283     0.000002298393    -0.000002650469
       9       -0.000001353828     0.000005478069    -0.000000975482
      10       -0.000001351613    -0.000012164832     0.000012073722
      11        0.000003851467     0.000001910166     0.000006208124
      12       -0.000003144987    -0.000000420697    -0.000003248030
      13       -0.000931247606     0.002433511764     0.001216089399
      14        0.000005514843    -0.000001505367    -0.000001624018
      15       -0.000003374288     0.000004081665     0.000006225466
      16        0.000853169056    -0.000031657970    -0.002758838449
      17        0.000647610379    -0.002047544266    -0.000589873127
      18       -0.000002195733     0.000004341065    -0.000001247059
      19       -0.000005825474     0.000015668761     0.000003500246
      20       -0.000559555754    -0.000372189749     0.002125023566
      21        0.000003156051     0.000001385584    -0.000004007217
      22        0.000000359906    -0.000002998815     0.000004404410
      23        0.000000742635     0.000000743257    -0.000000062922
      24       -0.000004245462     0.000003861737    -0.000006278507

  **** Optimization is complete! (in 7 steps) ****
    Final optimized geometry and variables:
    Molecular point group: c1

    Geometry (in Angstrom), charge = 0, multiplicity = 1:

    H           -3.395623976226     1.548806876201    -1.224139138488
    O           -3.439211415674     0.604779004298    -1.158873321513
    C           -3.184066154181     0.219347579083     0.167843219962
    C           -1.768328696859     0.552504583285     0.625432810116
    H           -3.344322523022    -0.851297016120     0.198412151744
    H           -3.908625274086     0.674543889876     0.840892413126
    C           -0.681808053350    -0.143679258751    -0.195145137703
    H           -1.626308224121     1.632702571640     0.581521795933
    H           -1.674040334528     0.277090768513     1.674483192180
    C            0.734798867653     0.216765293338     0.256133058660
    H           -0.808538706902     0.110169643337    -1.243043944350
    H           -0.819562264702    -1.221318612894    -0.123469114074
    C            1.819767676487    -0.477008858631    -0.570588664169
    H            0.871177054571     1.294999092560     0.187364819954
    H            0.851534492515    -0.037723962363     1.307495239686
    C            3.254488514472    -0.149757206380    -0.132463233379
    H            1.695633056755    -0.213060997392    -1.618495968029
    H            1.672700424635    -1.555141361910    -0.523692832804
    C            3.713232963361    -0.926330307934     1.104208288879
    H            3.334046892602     0.915330316197     0.075156679921
    H            3.937473735550    -0.360302951466    -0.950808013595
    H            3.081881788421    -0.724831374276     1.964034859492
    H            4.729882743023    -0.659205339969     1.376495689511
    H            3.690708653806    -1.997125134974     0.921877813264

  Mulliken Charges: (a.u.)
   Center  Symbol    Alpha    Beta     Spin     Total
       1     H     0.28338  0.28338  0.00000  0.43324
       2     O     4.36829  4.36829  0.00000 -0.73658
       3     C     2.99617  2.99617  0.00000  0.00766
       4     C     3.16906  3.16906  0.00000 -0.33811
       5     H     0.41631  0.41631  0.00000  0.16739
       6     H     0.42815  0.42815  0.00000  0.14371
       7     C     3.15202  3.15202  0.00000 -0.30403
       8     H     0.42821  0.42821  0.00000  0.14358
       9     H     0.42242  0.42242  0.00000  0.15516
      10     C     3.15290  3.15290  0.00000 -0.30580
      11     H     0.41204  0.41204  0.00000  0.17591
      12     H     0.42337  0.42337  0.00000  0.15326
      13     C     3.15343  3.15343  0.00000 -0.30686
      14     H     0.42497  0.42497  0.00000  0.15006
      15     H     0.42368  0.42368  0.00000  0.15264
      16     C     3.15338  3.15338  0.00000 -0.30676
      17     H     0.42107  0.42107  0.00000  0.15787
      18     H     0.42383  0.42383  0.00000  0.15233
      19     C     3.24021  3.24021  0.00000 -0.48042
      20     H     0.42355  0.42355  0.00000  0.15290
      21     H     0.42040  0.42040  0.00000  0.15921
      22     H     0.42139  0.42139  0.00000  0.15722
      23     H     0.41989  0.41989  0.00000  0.16023
      24     H     0.42190  0.42190  0.00000  0.15619

   Total alpha = 33.00000, Total beta = 33.00000, Total charge = -0.00000
