  ==> Input File <==

--------------------------------------------------------------------------
set {
	reference rhf
	basis 6-31G*
}

set_num_threads( 1 )
memory 2 gb

molecule MOL {
0 1

H	 -4.236494	 0.538104	 0.039757
O	 -3.517110	 -0.026191	 -0.205115
C	 -2.306886	 0.532354	 0.237577
C	 -1.177863	 -0.397191	 -0.171080
H	 -2.156308	 1.517575	 -0.201710
H	 -2.315015	 0.655684	 1.319734
C	 0.198102	 0.111031	 0.262842
H	 -1.208843	 -0.518759	 -1.250427
H	 -1.368741	 -1.376554	 0.258909
C	 1.331804	 -0.827780	 -0.158768
H	 0.361943	 1.100838	 -0.156218
H	 0.217265	 0.229072	 1.345532
C	 2.723619	 -0.410569	 0.329459
H	 1.342964	 -0.912588	 -1.244120
H	 1.116806	 -1.824343	 0.220779
C	 3.022600	 1.083899	 0.197133
H	 3.467084	 -0.965877	 -0.237093
H	 2.846196	 -0.713130	 1.367533
H	 2.895719	 1.417729	 -0.829268
H	 2.372531	 1.685784	 0.823489
H	 4.045745	 1.299432	 0.489492

	symmetry c1
}
set optking {
	frozen_dihedral = ("
		2 3 4 8,
		8 4 7 10,
		4 7 10 14,
		1 2 3 5
	")
}

ee = energy('scf')
oeprop('DIPOLE', 'QUADRUPOLE', 'MULLIKEN_CHARGES')
f=open( 'psi4out.xyz', 'w' )
f.write( "21  " )
f.write( str(ee) + "\n" )
f.write( MOL.save_string_xyz() )
f.close()
--------------------------------------------------------------------------

    Molecular point group: c1

    Geometry (in Angstrom), charge = 0, multiplicity = 1:

       Center              X                  Y                   Z               Mass
    ------------   -----------------  -----------------  -----------------  -----------------
           H         -4.203970889950     0.510371003951    -0.029258381839     1.007825032070
           O         -3.484586889950    -0.053923996049    -0.274130381839    15.994914619560
           C         -2.274362889950     0.504621003951     0.168561618161    12.000000000000
           C         -1.145339889950    -0.424923996049    -0.240095381839    12.000000000000
           H         -2.123784889950     1.489842003951    -0.270725381839     1.007825032070
           H         -2.282491889950     0.627951003951     1.250718618161     1.007825032070
           C          0.230625110050     0.083298003951     0.193826618161    12.000000000000
           H         -1.176319889950    -0.546491996049    -1.319442381839     1.007825032070
           H         -1.336217889950    -1.404286996049     0.189893618161     1.007825032070
           C          1.364327110050    -0.855512996049    -0.227783381839    12.000000000000
           H          0.394466110050     1.073105003951    -0.225233381839     1.007825032070
           H          0.249788110050     0.201339003951     1.276516618161     1.007825032070
           C          2.756142110050    -0.438301996049     0.260443618161    12.000000000000
           H          1.375487110050    -0.940320996049    -1.313135381839     1.007825032070
           H          1.149329110050    -1.852075996049     0.151763618161     1.007825032070
           C          3.055123110050     1.056166003951     0.128117618161    12.000000000000
           H          3.499607110050    -0.993609996049    -0.306108381839     1.007825032070
           H          2.878719110050    -0.740862996049     1.298517618161     1.007825032070
           H          2.928242110050     1.389996003951    -0.898283381839     1.007825032070
           H          2.405054110050     1.658051003951     0.754473618161     1.007825032070
           H          4.078268110050     1.271699003951     0.420476618161     1.007825032070

  Charge       = 0
  Multiplicity = 1
  Basis Set: 6-31G*
  Basis Set:

    Orbital Energies (a.u.)
    -----------------------

    Doubly Occupied:

       1A    -20.551756     2A    -11.266924     3A    -11.215444
       4A    -11.214915     5A    -11.213336     6A    -11.210417
       7A    -11.208135     8A     -1.358577     9A     -1.086838
      10A     -1.032616    11A     -0.953013    12A     -0.878742
      13A     -0.808818    14A     -0.774054    15A     -0.692218
      16A     -0.662222    17A     -0.627231    18A     -0.602362
      19A     -0.585255    20A     -0.572634    21A     -0.535668
      22A     -0.522708    23A     -0.507671    24A     -0.486313
      25A     -0.481779    26A     -0.458065    27A     -0.454378
      28A     -0.443615    29A     -0.433879

  @DF-RHF Final Energy:  -310.21064900135940

   => Energetics <=

    Nuclear Repulsion Energy =            313.8260618395452752
    One-Electron Energy =               -1042.3946691442970405
    Two-Electron Energy =                 418.3579583033917970
    DFT Exchange-Correlation Energy =       0.0000000000000000
    Empirical Dispersion Energy =           0.0000000000000000
    PCM Polarization Energy =               0.0000000000000000
    EFP Energy =                            0.0000000000000000
    Total Energy =                       -310.2106490013600251

  Mulliken Charges: (a.u.)
   Center  Symbol    Alpha    Beta     Spin     Total
       1     H     0.28119  0.28119  0.00000  0.43761
       2     O     4.37182  4.37182  0.00000 -0.74363
       3     C     2.98963  2.98963  0.00000  0.02075
       4     C     3.15863  3.15863  0.00000 -0.31725
       5     H     0.43297  0.43297  0.00000  0.13405
       6     H     0.43296  0.43296  0.00000  0.13409
       7     C     3.16414  3.16414  0.00000 -0.32828
       8     H     0.41488  0.41488  0.00000  0.17025
       9     H     0.41496  0.41496  0.00000  0.17007
      10     C     3.15170  3.15170  0.00000 -0.30339
      11     H     0.42011  0.42011  0.00000  0.15979
      12     H     0.42418  0.42418  0.00000  0.15165
      13     C     3.15177  3.15177  0.00000 -0.30353
      14     H     0.42262  0.42262  0.00000  0.15477
      15     H     0.42068  0.42068  0.00000  0.15864
      16     C     3.24358  3.24358  0.00000 -0.48715
      17     H     0.42052  0.42052  0.00000  0.15895
      18     H     0.42290  0.42290  0.00000  0.15420
      19     H     0.42223  0.42223  0.00000  0.15554
      20     H     0.41953  0.41953  0.00000  0.16093
      21     H     0.41903  0.41903  0.00000  0.16194

   Total alpha = 29.00000, Total beta = 29.00000, Total charge =  0.00000
