  ==> Input File <==

--------------------------------------------------------------------------
set {
	reference rhf
	basis 6-31G*
}

set_num_threads( 4 )
memory 2 gb

molecule MOL {
0 1

H	 -3.407059	 -1.043082	 0.000000
O	 -3.119761	 -0.140267	 0.000000
C	 -1.777559	 -0.059267	 0.000000
C	 -0.983096	 -0.915220	 -0.757083
C	 -1.197224	 0.922685	 0.793125
H	 -1.440899	 -1.673587	 -1.369133
C	 0.389310	 -0.785653	 -0.717932
H	 -1.831218	 1.570699	 1.367932
C	 0.176785	 1.039787	 0.821755
H	 1.014408	 -1.439200	 -1.296923
C	 0.985743	 0.192506	 0.071204
H	 0.627012	 1.800574	 1.436215
C	 2.454922	 0.329848	 0.111976
O	 3.218069	 -0.352733	 -0.498311
H	 2.826189	 1.128785	 0.762380

	symmetry c1
}
set optking {
	frozen_dihedral = ("
		5 3 2 1
	")
}

ee = optimize('scf')
oeprop('DIPOLE', 'QUADRUPOLE', 'MULLIKEN_CHARGES')
f=open( 'psi4out.xyz', 'w' )
f.write( "15  " )
f.write( str(ee) + "\n" )
f.write( MOL.save_string_xyz() )
f.close()
--------------------------------------------------------------------------

    Molecular point group: c1
  Charge       = 0
  Multiplicity = 1
  Basis Set: 6-31G*
  Basis Set:
  @DF-RHF Final Energy:  -418.28726342879594
    Total Energy =                       -418.2872634287951996
    Molecular point group: c1
  Basis Set: 6-31G*
  Basis Set:
  Basis Set: 6-31G*
  Basis Set:
  @DF-RHF Final Energy:  -418.28739485567911
    Total Energy =                       -418.2873948556787127
  Basis Set: 6-31G*
  Basis Set:
  Basis Set: 6-31G*
  Basis Set:
  @DF-RHF Final Energy:  -418.28739687582282
    Total Energy =                       -418.2873968758226511
  Basis Set: 6-31G*
  Basis Set:
  Basis Set: 6-31G*
  Basis Set:
  @DF-RHF Final Energy:  -418.28727070718134
    Total Energy =                       -418.2872707071817331
  Basis Set: 6-31G*
  Basis Set:
  Basis Set: 6-31G*
  Basis Set:
  @DF-RHF Final Energy:  -418.28741550529719
    Total Energy =                       -418.2874155052969627
  Basis Set: 6-31G*
  Basis Set:
  Charge       = 0
  Multiplicity = 1
  Basis Set: 6-31G*
  Basis Set:

    Orbital Energies (a.u.)
    -----------------------

    Doubly Occupied:

       1A    -20.603173     2A    -20.558031     3A    -11.329522
       4A    -11.319272     5A    -11.260508     6A    -11.255652
       7A    -11.243857     8A    -11.241418     9A    -11.240140
      10A     -1.422759    11A     -1.399156    12A     -1.170685
      13A     -1.041475    14A     -1.037956    15A     -0.887690
      16A     -0.863695    17A     -0.794917    18A     -0.754621
      19A     -0.712079    20A     -0.665467    21A     -0.645974
      22A     -0.628929    23A     -0.616067    24A     -0.607450
      25A     -0.565450    26A     -0.553864    27A     -0.547666
      28A     -0.503206    29A     -0.483684    30A     -0.420131
      31A     -0.356816    32A     -0.332137

  @DF-RHF Final Energy:  -418.28741580394808

   => Energetics <=

    Nuclear Repulsion Energy =            401.1169279352229751
    One-Electron Energy =               -1364.6817918891131285
    Two-Electron Energy =                 545.2774481499420745
    DFT Exchange-Correlation Energy =       0.0000000000000000
    Empirical Dispersion Energy =           0.0000000000000000
    PCM Polarization Energy =               0.0000000000000000
    EFP Energy =                            0.0000000000000000
    Total Energy =                       -418.2874158039480790
    Molecular point group: c1
  Basis Set: 6-31G*
  Basis Set:

  -Total Gradient:
     Atom            X                  Y                   Z
    ------   -----------------  -----------------  -----------------
       1       -0.000056446744    -0.000009747456     0.003529551136
       2        0.000062996927    -0.000788162868    -0.003465566130
       3       -0.000078765182     0.002364235644    -0.002099753967
       4       -0.000104709529     0.000006402860     0.000051708892
       5        0.000153291656    -0.001590512696     0.001985884874
       6        0.000003814540     0.000000358709    -0.000005668453
       7        0.000079646229     0.000064344042     0.000022214877
       8       -0.000001279571    -0.000005659586    -0.000007411597
       9       -0.000062527099     0.000015879013     0.000045927365
      10       -0.000006820750    -0.000002489638    -0.000001190931
      11        0.000004311722    -0.000068951334    -0.000053346394
      12        0.000010663740     0.000000563169    -0.000005084043
      13        0.000006455946     0.000029666303    -0.000012027941
      14       -0.000007622045    -0.000010767916     0.000007116212
      15       -0.000003009828    -0.000005158248     0.000007646101

  **** Optimization is complete! (in 6 steps) ****
    Final optimized geometry and variables:
    Molecular point group: c1

    Geometry (in Angstrom), charge = 0, multiplicity = 1:

    H           -3.405024028384    -1.057457486487     0.009717991006
    O           -3.125434561931    -0.152122575332     0.013938082695
    C           -1.774479597209    -0.065515316449     0.030014795999
    C           -0.982797104349    -0.924762468284    -0.726009882657
    C           -1.194624483168     0.911112906007     0.824759944801
    H           -1.447825886920    -1.672904182354    -1.343749906259
    C            0.389402506044    -0.798862759824    -0.687553701245
    H           -1.827243390258     1.554864675591     1.405936726922
    C            0.181651111659     1.035716053373     0.844943833808
    H            1.014538046488    -1.453102938709    -1.265667009200
    C            0.985733898490     0.185124478715     0.096632173177
    H            0.633884296408     1.795934755697     1.458558765526
    C            2.456556334475     0.323197094997     0.135489896315
    O            3.218144270453    -0.366157302576    -0.468453028201
    H            2.828713313412     1.128076109974     0.777649284082

  Mulliken Charges: (a.u.)
   Center  Symbol    Alpha    Beta     Spin     Total
       1     H     0.26896  0.26896  0.00000  0.46208
       2     O     4.37875  4.37875  0.00000 -0.75751
       3     C     2.79379  2.79379  0.00000  0.41242
       4     C     3.13849  3.13849  0.00000 -0.27699
       5     C     3.12551  3.12551  0.00000 -0.25102
       6     H     0.39446  0.39446  0.00000  0.21108
       7     C     3.08046  3.08046  0.00000 -0.16092
       8     H     0.38671  0.38671  0.00000  0.22658
       9     C     3.09484  3.09484  0.00000 -0.18968
      10     H     0.37475  0.37475  0.00000  0.25050
      11     C     3.06549  3.06549  0.00000 -0.13098
      12     H     0.38981  0.38981  0.00000  0.22037
      13     C     2.83054  2.83054  0.00000  0.33892
      14     O     4.25329  4.25329  0.00000 -0.50659
      15     H     0.42414  0.42414  0.00000  0.15173

   Total alpha = 32.00000, Total beta = 32.00000, Total charge = -0.00000
