  ==> Input File <==

--------------------------------------------------------------------------
set {
	reference rhf
	basis 6-31G*
}

set_num_threads( 1 )
memory 2 gb

molecule MOL {
0 1

H	 -4.216489	 0.176306	 0.899175
O	 -3.496434	 -0.383336	 0.645747
C	 -2.297296	 0.347262	 0.675513
C	 -1.166759	 -0.579625	 0.265008
H	 -2.349038	 1.196355	 -0.004687
H	 -2.112915	 0.740473	 1.674376
C	 0.198102	 0.111031	 0.262842
H	 -1.388928	 -0.972981	 -0.723243
H	 -1.156755	 -1.428062	 0.943632
C	 1.331804	 -0.827780	 -0.158768
H	 0.162617	 0.970553	 -0.402091
H	 0.409802	 0.501060	 1.257618
C	 2.723619	 -0.410569	 0.329459
H	 1.342964	 -0.912588	 -1.244120
H	 1.116806	 -1.824343	 0.220779
C	 3.243875	 0.895854	 -0.272975
H	 3.424222	 -1.207124	 0.091250
H	 2.714788	 -0.329854	 1.414619
H	 3.251977	 0.848779	 -1.358681
H	 2.637085	 1.747371	 0.016682
H	 4.259473	 1.094070	 0.055697

	symmetry c1
}
set optking {
	frozen_dihedral = ("
		2 3 4 8,
		8 4 7 10,
		16 13 10 14,
		1 2 3 5
	")
}

ee = energy('scf')
oeprop('DIPOLE', 'QUADRUPOLE', 'MULLIKEN_CHARGES')
f=open( 'psi4out.xyz', 'w' )
f.write( "21  " )
f.write( str(ee) + "\n" )
f.write( MOL.save_string_xyz() )
f.close()
--------------------------------------------------------------------------

    Molecular point group: c1

    Geometry (in Angstrom), charge = 0, multiplicity = 1:

       Center              X                  Y                   Z               Mass
    ------------   -----------------  -----------------  -----------------  -----------------
           H         -4.222697681439     0.284946111346     0.640568747314     1.007825032070
           O         -3.502642681439    -0.274695888654     0.387140747314    15.994914619560
           C         -2.303504681439     0.455902111346     0.416906747314    12.000000000000
           C         -1.172967681439    -0.470984888654     0.006401747314    12.000000000000
           H         -2.355246681439     1.304995111346    -0.263293252686     1.007825032070
           H         -2.119123681439     0.849113111346     1.415769747314     1.007825032070
           C          0.191893318561     0.219671111346     0.004235747314    12.000000000000
           H         -1.395136681439    -0.864340888654    -0.981849252686     1.007825032070
           H         -1.162963681439    -1.319421888654     0.685025747314     1.007825032070
           C          1.325595318561    -0.719139888654    -0.417374252686    12.000000000000
           H          0.156408318561     1.079193111346    -0.660697252686     1.007825032070
           H          0.403593318561     0.609700111346     0.999011747314     1.007825032070
           C          2.717410318561    -0.301928888654     0.070852747314    12.000000000000
           H          1.336755318561    -0.803947888654    -1.502726252686     1.007825032070
           H          1.110597318561    -1.715702888654    -0.037827252686     1.007825032070
           C          3.237666318561     1.004494111346    -0.531581252686    12.000000000000
           H          3.418013318561    -1.098483888654    -0.167356252686     1.007825032070
           H          2.708579318561    -0.221213888654     1.156012747314     1.007825032070
           H          3.245768318561     0.957419111346    -1.617287252686     1.007825032070
           H          2.630876318561     1.856011111346    -0.241924252686     1.007825032070
           H          4.253264318561     1.202710111346    -0.202909252686     1.007825032070

  Charge       = 0
  Multiplicity = 1
  Basis Set: 6-31G*
  Basis Set:

    Orbital Energies (a.u.)
    -----------------------

    Doubly Occupied:

       1A    -20.551838     2A    -11.266955     3A    -11.215453
       4A    -11.215112     5A    -11.213090     6A    -11.210869
       7A    -11.208245     8A     -1.358658     9A     -1.086259
      10A     -1.033172    11A     -0.954362    12A     -0.875304
      13A     -0.808011    14A     -0.778789    15A     -0.692377
      16A     -0.660867    17A     -0.624321    18A     -0.603731
      19A     -0.586575    20A     -0.571315    21A     -0.535338
      22A     -0.519371    23A     -0.512194    24A     -0.487057
      25A     -0.479935    26A     -0.458493    27A     -0.456236
      28A     -0.442957    29A     -0.434042

  @DF-RHF Final Energy:  -310.21155125953783

   => Energetics <=

    Nuclear Repulsion Energy =            312.3284160730866006
    One-Electron Energy =               -1039.3981425156780460
    Two-Electron Energy =                 416.8581751830540725
    DFT Exchange-Correlation Energy =       0.0000000000000000
    Empirical Dispersion Energy =           0.0000000000000000
    PCM Polarization Energy =               0.0000000000000000
    EFP Energy =                            0.0000000000000000
    Total Energy =                       -310.2115512595373730

  Mulliken Charges: (a.u.)
   Center  Symbol    Alpha    Beta     Spin     Total
       1     H     0.28118  0.28118  0.00000  0.43764
       2     O     4.37179  4.37179  0.00000 -0.74357
       3     C     2.98993  2.98993  0.00000  0.02014
       4     C     3.16010  3.16010  0.00000 -0.32020
       5     H     0.43294  0.43294  0.00000  0.13412
       6     H     0.43284  0.43284  0.00000  0.13433
       7     C     3.16172  3.16172  0.00000 -0.32344
       8     H     0.41464  0.41464  0.00000  0.17073
       9     H     0.41459  0.41459  0.00000  0.17082
      10     C     3.15255  3.15255  0.00000 -0.30509
      11     H     0.42128  0.42128  0.00000  0.15744
      12     H     0.42375  0.42375  0.00000  0.15251
      13     C     3.15305  3.15305  0.00000 -0.30611
      14     H     0.42230  0.42230  0.00000  0.15540
      15     H     0.42013  0.42013  0.00000  0.15974
      16     C     3.24095  3.24095  0.00000 -0.48189
      17     H     0.42104  0.42104  0.00000  0.15791
      18     H     0.42332  0.42332  0.00000  0.15335
      19     H     0.42212  0.42212  0.00000  0.15576
      20     H     0.42040  0.42040  0.00000  0.15920
      21     H     0.41939  0.41939  0.00000  0.16122

   Total alpha = 29.00000, Total beta = 29.00000, Total charge = -0.00000
