  ==> Input File <==

--------------------------------------------------------------------------
set {
	reference rhf
	basis cc-pvtz
}

set_num_threads( 4 )
memory 2 gb

molecule MOL {
0 1

H	 2.475671	 -0.215425	 -0.755082
O	 1.675515	 -0.612943	 -0.465627
C	 1.135873	 0.113391	 0.608264
C	 0.027642	 1.012027	 0.090274
H	 1.902972	 0.727968	 1.072615
H	 0.756163	 -0.561896	 1.370018
C	 -1.138737	 0.285728	 -0.581921
H	 0.464661	 1.708096	 -0.618252
H	 -0.340737	 1.603071	 0.925246
C	 -1.933983	 -0.631436	 0.343653
H	 -0.763151	 -0.285569	 -1.422081
H	 -1.808359	 1.035291	 -0.992333
H	 -2.789188	 -1.049673	 -0.174718
H	 -1.335629	 -1.461368	 0.700418
H	 -2.305435	 -0.092167	 1.209725

	symmetry c1
}
set optking {
	frozen_dihedral = ("
		1 2 3 4
	")
}

ee = optimize('scf')
oeprop('DIPOLE', 'QUADRUPOLE', 'MULLIKEN_CHARGES')
f=open( 'psi4out.xyz', 'w' )
f.write( "15  " )
f.write( str(ee) + "\n" )
f.write( MOL.save_string_xyz() )
f.close()
--------------------------------------------------------------------------

    Molecular point group: c1
  Charge       = 0
  Multiplicity = 1
  Basis Set: CC-PVTZ
  Basis Set:
  @DF-RHF Final Energy:  -232.23524243276682
    Total Energy =                       -232.2352424327664835
    Molecular point group: c1
  Basis Set: CC-PVTZ
  Basis Set:
  Basis Set: CC-PVTZ
  Basis Set:
  @DF-RHF Final Energy:  -232.23607639783367
    Total Energy =                       -232.2360763978336422
  Basis Set: CC-PVTZ
  Basis Set:
  Basis Set: CC-PVTZ
  Basis Set:
  @DF-RHF Final Energy:  -232.23622400491254
    Total Energy =                       -232.2362240049124011
  Basis Set: CC-PVTZ
  Basis Set:
  Basis Set: CC-PVTZ
  Basis Set:
  @DF-RHF Final Energy:  -232.23622125633449
    Total Energy =                       -232.2362212563344883
  Basis Set: CC-PVTZ
  Basis Set:
  Basis Set: CC-PVTZ
  Basis Set:
  @DF-RHF Final Energy:  -232.23622638101111
    Total Energy =                       -232.2362263810110221
  Basis Set: CC-PVTZ
  Basis Set:
  Charge       = 0
  Multiplicity = 1
  Basis Set: CC-PVTZ
  Basis Set:

    Orbital Energies (a.u.)
    -----------------------

    Doubly Occupied:

       1A    -20.545764     2A    -11.265681     3A    -11.211767
       4A    -11.208354     5A    -11.202701     6A     -1.363210
       7A     -1.065583     8A     -0.970795     9A     -0.872738
      10A     -0.782992    11A     -0.695878    12A     -0.642072
      13A     -0.621577    14A     -0.577179    15A     -0.562782
      16A     -0.535015    17A     -0.507763    18A     -0.486184
      19A     -0.468581    20A     -0.453445    21A     -0.427944

  @DF-RHF Final Energy:  -232.23622650439941

   => Energetics <=

    Nuclear Repulsion Energy =            191.5145498666090873
    One-Electron Energy =                -694.5655412990582818
    Two-Electron Energy =                 270.8147649280498399
    DFT Exchange-Correlation Energy =       0.0000000000000000
    Empirical Dispersion Energy =           0.0000000000000000
    PCM Polarization Energy =               0.0000000000000000
    EFP Energy =                            0.0000000000000000
    Total Energy =                       -232.2362265043993830
    Molecular point group: c1
  Basis Set: CC-PVTZ
  Basis Set:

  -Total Gradient:
     Atom            X                  Y                   Z
    ------   -----------------  -----------------  -----------------
       1        0.000675698793    -0.000705240241     0.000907476166
       2       -0.001082727711     0.000616276138    -0.001055796198
       3        0.000954817544     0.000698113478    -0.000013757756
       4       -0.000538378389    -0.000618057147     0.000154822755
       5       -0.000005517026     0.000009779918     0.000004523544
       6       -0.000005746481    -0.000004483699    -0.000004805333
       7       -0.000002093838     0.000015162753     0.000000661482
       8        0.000002215268    -0.000008424433     0.000004393231
       9       -0.000005219652     0.000003951388    -0.000000878044
      10        0.000002020877    -0.000004733898     0.000002818637
      11        0.000003672653     0.000003902641    -0.000001376490
      12        0.000000836192    -0.000001152212    -0.000000821176
      13        0.000000862313    -0.000003670015     0.000000851527
      14        0.000000582900    -0.000002057549     0.000005160168
      15       -0.000001023442     0.000000632877    -0.000003272515

  **** Optimization is complete! (in 6 steps) ****
    Final optimized geometry and variables:
    Molecular point group: c1

    Geometry (in Angstrom), charge = 0, multiplicity = 1:

    H            2.491970288813    -0.273449083960    -0.743484471518
    O            1.692539512232    -0.658730147452    -0.439677553155
    C            1.137035616837     0.115858873444     0.595015088881
    C            0.012149106790     1.013874883392     0.100939666256
    H            1.902135907655     0.721209381331     1.071351275475
    H            0.770146239465    -0.573272158152     1.344860245835
    C           -1.147425350729     0.280598351497    -0.574829355150
    H            0.428813000975     1.732824778043    -0.599464457112
    H           -0.359641876172     1.586368619614     0.948246322721
    C           -1.939046211982    -0.640929957479     0.349721739963
    H           -0.763797945775    -0.290201708132    -1.412083106914
    H           -1.821356076989     1.023726912942    -0.989765634427
    H           -2.785712078522    -1.070829239390    -0.172982663337
    H           -1.334611783035    -1.462267433420     0.715294555850
    H           -2.322833477052    -0.100724199207     1.209733536529

  Mulliken Charges: (a.u.)
   Center  Symbol    Alpha    Beta     Spin     Total
       1     H     0.39346  0.39346  0.00000  0.21308
       2     O     4.20485  4.20485  0.00000 -0.40971
       3     C     2.98264  2.98264  0.00000  0.03472
       4     C     3.09198  3.09198  0.00000 -0.18397
       5     H     0.45975  0.45975  0.00000  0.08050
       6     H     0.46024  0.46024  0.00000  0.07952
       7     C     3.08575  3.08575  0.00000 -0.17150
       8     H     0.45498  0.45498  0.00000  0.09004
       9     H     0.45714  0.45714  0.00000  0.08571
      10     C     3.15442  3.15442  0.00000 -0.30884
      11     H     0.44828  0.44828  0.00000  0.10344
      12     H     0.45084  0.45084  0.00000  0.09833
      13     H     0.44698  0.44698  0.00000  0.10603
      14     H     0.45151  0.45151  0.00000  0.09697
      15     H     0.45717  0.45717  0.00000  0.08566

   Total alpha = 21.00000, Total beta = 21.00000, Total charge = -0.00000
