                              Psi4 1.0.54 Driver

  ==> Input File <==

--------------------------------------------------------------------------
set {
	reference rhf
	basis cc-pvtz
}

set_num_threads( 4 )
memory 2 gb

molecule MOL {
0 1

H	 2.462485	 -2.216993	 0.000000
O	 2.777472	 -1.330706	 0.000000
C	 1.763288	 -0.447523	 0.000000
C	 1.684748	 0.437036	 -1.066071
C	 0.822960	 -0.399516	 1.006895
H	 2.426247	 0.382534	 -1.838317
C	 0.668412	 1.363074	 -1.119599
H	 0.859257	 -1.069445	 1.840666
C	 -0.182969	 0.542521	 0.920630
H	 0.615711	 2.042661	 -1.947326
C	 -0.287914	 1.430748	 -0.120197
N	 -1.180302	 0.587871	 1.995837
H	 -1.082299	 2.144107	 -0.148390
O	 -1.066300	 -0.190860	 2.883337
O	 -2.039414	 1.398959	 1.913616

	symmetry c1
}
set optking {
	frozen_dihedral = ("
		4 3 2 1
	")
}

ee,wfn = optimize('scf', return_wfn=True)
oeprop( wfn, 'DIPOLE', 'QUADRUPOLE', 'MULLIKEN_CHARGES')
f=open( 'psi4out.xyz', 'w' )
f.write( "15  " )
f.write( str(ee) + "\n" )
f.write( MOL.save_string_xyz() )
f.close()
--------------------------------------------------------------------------

    Molecular point group: c1
  Charge       = 0
  Multiplicity = 1
  Basis Set: CC-PVTZ
  Basis Set:
  @DF-RHF Final Energy:  -509.21527584907301
    Total Energy =                       -509.2152758490731230
    Molecular point group: c1
  Basis Set: CC-PVTZ
  Basis Set:
  Basis Set: CC-PVTZ
  Basis Set:
  @DF-RHF Final Energy:  -509.21550114689973
    Total Energy =                       -509.2155011469000101
  Basis Set: CC-PVTZ
  Basis Set:
  Basis Set: CC-PVTZ
  Basis Set:
  @DF-RHF Final Energy:  -509.21508390175359
    Total Energy =                       -509.2150839017538146
  Basis Set: CC-PVTZ
  Basis Set:
  Basis Set: CC-PVTZ
  Basis Set:
  @DF-RHF Final Energy:  -509.21566383348602
    Total Energy =                       -509.2156638334865875
  Basis Set: CC-PVTZ
  Basis Set:
  Basis Set: CC-PVTZ
  Basis Set:
  @DF-RHF Final Energy:  -509.21557763784438
    Total Energy =                       -509.2155776378442624
  Basis Set: CC-PVTZ
  Basis Set:
  Basis Set: CC-PVTZ
  Basis Set:
  @DF-RHF Final Energy:  -509.21570079631692
    Total Energy =                       -509.2157007963171509
  Basis Set: CC-PVTZ
  Basis Set:
  Charge       = 0
  Multiplicity = 1
  Basis Set: CC-PVTZ
  Basis Set:

    Orbital Energies (a.u.)
    -----------------------

    Doubly Occupied:

       1A    -20.597329     2A    -20.594458     3A    -20.594213
       4A    -15.850376     5A    -11.320949     6A    -11.307925
       7A    -11.264220     8A    -11.263664     9A    -11.262333
      10A    -11.259535    11A     -1.643965    12A     -1.427132
      13A     -1.426248    14A     -1.203079    15A     -1.095444
      16A     -1.048362    17A     -0.965615    18A     -0.874196
      19A     -0.833770    20A     -0.796207    21A     -0.747081
      22A     -0.743242    23A     -0.727941    24A     -0.710672
      25A     -0.681590    26A     -0.643518    27A     -0.629133
      28A     -0.572126    29A     -0.556967    30A     -0.538596
      31A     -0.517583    32A     -0.494610    33A     -0.489970
      34A     -0.459958    35A     -0.380025    36A     -0.357691

  @DF-RHF Final Energy:  -509.21570236522535

   => Energetics <=

    Nuclear Repulsion Energy =            504.1985016082662128
    One-Electron Energy =               -1695.0689644063063497
    Two-Electron Energy =                 681.6547604328150101
    DFT Exchange-Correlation Energy =       0.0000000000000000
    Empirical Dispersion Energy =           0.0000000000000000
    PCM Polarization Energy =               0.0000000000000000
    EFP Energy =                            0.0000000000000000
    Total Energy =                       -509.2157023652250700
    Molecular point group: c1
  Basis Set: CC-PVTZ
  Basis Set:

  -Total Gradient:
     Atom            X                  Y                   Z
    ------   -----------------  -----------------  -----------------
       1        0.000061892196    -0.000065764715    -0.002170858973
       2       -0.000408875234    -0.000557548884     0.002286250388
       3        0.001097775329     0.001667965054     0.000913701306
       4       -0.000953787366    -0.000900397986    -0.000898516106
       5        0.000236863136    -0.000158256933    -0.000104597921
       6        0.000002804168    -0.000007324012     0.000013192412
       7        0.000156001048    -0.000116872541    -0.000127772528
       8       -0.000007148332     0.000017823737    -0.000000082311
       9       -0.000158341418     0.000173349748    -0.000107279895
      10       -0.000013416326     0.000008774065     0.000008861232
      11       -0.000035103433    -0.000048070863     0.000228590345
      12        0.000101778635    -0.000019329801    -0.000145013652
      13        0.000004156097    -0.000000072262    -0.000021407148
      14       -0.000062182069     0.000025020784     0.000057533163
      15       -0.000022416429    -0.000019295393     0.000067399686

  **** Optimization is complete! (in 7 steps) ****
    Final optimized geometry and variables:
    Molecular point group: c1

    Geometry (in Angstrom), charge = 0, multiplicity = 1:

    H            2.227265783046    -2.509671365818    -0.657994987864
    O            2.536528617099    -1.620669488390    -0.663137545980
    C            1.500535967195    -0.742248391825    -0.708435540337
    C            1.414907419337     0.134202778489    -1.775045421928
    C            0.562284898178    -0.699193594967     0.301600579439
    H            2.156381682238     0.081917450169    -2.547604224512
    C            0.394622774521     1.062157700453    -1.829358063997
    H            0.622077982639    -1.362128076778     1.138324515202
    C           -0.452987811442     0.229579052462     0.212708721959
    H            0.336544558901     1.741313562612    -2.656928405980
    C           -0.559210105926     1.119114697881    -0.831657116452
    N           -1.454631238616     0.270370698291     1.282701225134
    H           -1.358928217410     1.826921761428    -0.859412151968
    O           -1.354586702547    -0.521859133694     2.159226662154
    O           -2.305238963167     1.091820497292     1.206506687926

  Mulliken Charges: (a.u.)
   Center  Symbol    Alpha    Beta     Spin     Total
       1     H     0.38316  0.38316  0.00000  0.23368
       2     O     4.18351  4.18351  0.00000 -0.36702
       3     C     2.86233  2.86233  0.00000  0.27533
       4     C     3.09616  3.09616  0.00000 -0.19232
       5     C     3.11991  3.11991  0.00000 -0.23982
       6     H     0.41037  0.41037  0.00000  0.17926
       7     C     3.06366  3.06366  0.00000 -0.12731
       8     H     0.39540  0.39540  0.00000  0.20921
       9     C     2.98061  2.98061  0.00000  0.03877
      10     H     0.41532  0.41532  0.00000  0.16936
      11     C     3.08794  3.08794  0.00000 -0.17587
      12     N     3.25014  3.25014  0.00000  0.49972
      13     H     0.39889  0.39889  0.00000  0.20223
      14     O     4.17693  4.17693  0.00000 -0.35386
      15     O     4.17568  4.17568  0.00000 -0.35135

   Total alpha = 36.00000, Total beta = 36.00000, Total charge = -0.00000

*** Psi4 exiting successfully. Buy a developer a beer!
