  ==> Input File <==

--------------------------------------------------------------------------
set {
	reference rhf
	basis 6-31G*
}

set_num_threads( 1 )
memory 2 gb

molecule MOL {
0 1

H	 1.965324	 3.464140	 3.538673
C	 1.677461	 2.577766	 4.117550
C	 0.367448	 1.950627	 3.713601
O	 2.379589	 2.180129	 4.989703
C	 0.294607	 1.657273	 2.208645
H	 0.222338	 1.052238	 4.302285
H	 -0.419826	 2.654946	 3.979663
C	 1.272405	 0.572339	 1.750248
H	 -0.719697	 1.354648	 1.965973
H	 0.477680	 2.575310	 1.652363
C	 1.180775	 0.282413	 0.250794
H	 1.078487	 -0.340757	 2.309262
H	 2.291092	 0.865405	 1.997084
C	 2.148627	 -0.814315	 -0.201312
H	 0.159248	 0.000430	 0.008512
H	 1.387091	 1.195417	 -0.306200
C	 3.580890	 -0.659131	 0.322722
H	 2.166869	 -0.852443	 -1.289387
H	 1.762857	 -1.776509	 0.128956
C	 4.324889	 0.564933	 -0.213704
H	 4.142010	 -1.551473	 0.056605
H	 3.564836	 -0.624694	 1.410140
H	 4.342616	 0.565491	 -1.300421
H	 3.866655	 1.493402	 0.110242
H	 5.353900	 0.572371	 0.132816

	symmetry c1
}
set optking {
	frozen_dihedral = ("
		6 3 5 8,
		6 3 2 4,
		3 5 8 12,
		12 8 11 14,
		20 17 14 18
	")
}

ee = energy('scf')
oeprop('DIPOLE', 'QUADRUPOLE', 'MULLIKEN_CHARGES')
f=open( 'psi4out.xyz', 'w' )
f.write( "25  " )
f.write( str(ee) + "\n" )
f.write( MOL.save_string_xyz() )
f.close()
--------------------------------------------------------------------------

    Molecular point group: c1

    Geometry (in Angstrom), charge = 0, multiplicity = 1:

       Center              X                  Y                   Z               Mass
    ------------   -----------------  -----------------  -----------------  -----------------
           H          0.028737990665     2.533879521992     1.649545219871     1.007825032070
           C         -0.259125009335     1.647505521992     2.228422219871    12.000000000000
           C         -1.569138009335     1.020366521992     1.824473219871    12.000000000000
           O          0.443002990665     1.249868521992     3.100575219871    15.994914619560
           C         -1.641979009335     0.727012521992     0.319517219871    12.000000000000
           H         -1.714248009335     0.121977521992     2.413157219871     1.007825032070
           H         -2.356412009335     1.724685521992     2.090535219871     1.007825032070
           C         -0.664181009335    -0.357921478008    -0.138879780129    12.000000000000
           H         -2.656283009335     0.424387521992     0.076845219871     1.007825032070
           H         -1.458906009335     1.645049521992    -0.236764780129     1.007825032070
           C         -0.755811009335    -0.647847478008    -1.638333780129    12.000000000000
           H         -0.858099009335    -1.271017478008     0.420134219871     1.007825032070
           H          0.354505990665    -0.064855478008     0.107956219871     1.007825032070
           C          0.212040990665    -1.744575478008    -2.090439780129    12.000000000000
           H         -1.777338009335    -0.929830478008    -1.880615780129     1.007825032070
           H         -0.549495009335     0.265156521992    -2.195327780129     1.007825032070
           C          1.644303990665    -1.589391478008    -1.566405780129    12.000000000000
           H          0.230282990665    -1.782703478008    -3.178514780129     1.007825032070
           H         -0.173729009335    -2.706769478008    -1.760171780129     1.007825032070
           C          2.388302990665    -0.365327478008    -2.102831780129    12.000000000000
           H          2.205423990665    -2.481733478008    -1.832522780129     1.007825032070
           H          1.628249990665    -1.554954478008    -0.478987780129     1.007825032070
           H          2.406029990665    -0.364769478008    -3.189548780129     1.007825032070
           H          1.930068990665     0.563141521992    -1.778885780129     1.007825032070
           H          3.417313990665    -0.357889478008    -1.756311780129     1.007825032070

  Charge       = 0
  Multiplicity = 1
  Basis Set: 6-31G*
  Basis Set:

    Orbital Energies (a.u.)
    -----------------------

    Doubly Occupied:

       1A    -20.562198     2A    -11.326322     3A    -11.235181
       4A    -11.234554     5A    -11.222983     6A    -11.219675
       7A    -11.216750     8A    -11.215811     9A    -11.210467
      10A     -1.402201    11A     -1.105776    12A     -1.068998
      13A     -1.009339    14A     -0.944755    15A     -0.874324
      16A     -0.832373    17A     -0.788983    18A     -0.765753
      19A     -0.666307    20A     -0.662213    21A     -0.634003
      22A     -0.626534    23A     -0.609643    24A     -0.588251
      25A     -0.563100    26A     -0.559799    27A     -0.540097
      28A     -0.520838    29A     -0.513573    30A     -0.501754
      31A     -0.486814    32A     -0.479102    33A     -0.457101
      34A     -0.451941    35A     -0.445965    36A     -0.409576

  @DF-RHF Final Energy:  -387.11808387786925

   => Energetics <=

    Nuclear Repulsion Energy =            454.0071084321079979
    One-Electron Energy =               -1424.3443284806799056
    Two-Electron Energy =                 583.2191361707017450
    DFT Exchange-Correlation Energy =       0.0000000000000000
    Empirical Dispersion Energy =           0.0000000000000000
    PCM Polarization Energy =               0.0000000000000000
    EFP Energy =                            0.0000000000000000
    Total Energy =                       -387.1180838778701627

  Mulliken Charges: (a.u.)
   Center  Symbol    Alpha    Beta     Spin     Total
       1     H     0.43261  0.43261  0.00000  0.13477
       2     C     2.83090  2.83090  0.00000  0.33819
       3     C     3.20796  3.20796  0.00000 -0.41592
       4     O     4.23795  4.23795  0.00000 -0.47591
       5     C     3.16541  3.16541  0.00000 -0.33083
       6     H     0.39983  0.39983  0.00000  0.20034
       7     H     0.40672  0.40672  0.00000  0.18656
       8     C     3.16021  3.16021  0.00000 -0.32043
       9     H     0.41307  0.41307  0.00000  0.17386
      10     H     0.41981  0.41981  0.00000  0.16038
      11     C     3.15490  3.15490  0.00000 -0.30979
      12     H     0.41831  0.41831  0.00000  0.16339
      13     H     0.41542  0.41542  0.00000  0.16916
      14     C     3.15292  3.15292  0.00000 -0.30583
      15     H     0.42003  0.42003  0.00000  0.15994
      16     H     0.42230  0.42230  0.00000  0.15539
      17     C     3.16060  3.16060  0.00000 -0.32120
      18     H     0.42130  0.42130  0.00000  0.15740
      19     H     0.42136  0.42136  0.00000  0.15727
      20     C     3.24049  3.24049  0.00000 -0.48098
      21     H     0.41904  0.41904  0.00000  0.16191
      22     H     0.41715  0.41715  0.00000  0.16570
      23     H     0.42170  0.42170  0.00000  0.15659
      24     H     0.42272  0.42272  0.00000  0.15457
      25     H     0.41728  0.41728  0.00000  0.16544

   Total alpha = 36.00000, Total beta = 36.00000, Total charge = -0.00000
