  ==> Input File <==

--------------------------------------------------------------------------
set {
	reference rhf
	basis 6-31G*
}

set_num_threads( 1 )
memory 2 gb

molecule MOL {
0 1

H	 -2.263355	 1.149890	 2.188846
O	 -1.351424	 1.000246	 2.398228
C	 -0.563724	 1.396698	 1.313646
C	 -0.793441	 0.596080	 0.058728
H	 0.466673	 1.286889	 1.632124
H	 -0.710508	 2.453836	 1.094696
C	 -1.530462	 -0.493172	 -0.025500
H	 -0.295078	 0.974767	 -0.820313
H	 -1.092586	 -1.461565	 -0.186463
H	 -2.602122	 -0.450675	 0.050101

	symmetry c1
}
set optking {
	frozen_dihedral = ("
		5 3 2 1,
		5 3 4 7
	")
}

ee = energy('scf')
oeprop('DIPOLE', 'QUADRUPOLE', 'MULLIKEN_CHARGES')
f=open( 'psi4out.xyz', 'w' )
f.write( "10  " )
f.write( str(ee) + "\n" )
f.write( MOL.save_string_xyz() )
f.close()
--------------------------------------------------------------------------

    Molecular point group: c1

    Geometry (in Angstrom), charge = 0, multiplicity = 1:

       Center              X                  Y                   Z               Mass
    ------------   -----------------  -----------------  -----------------  -----------------
           H         -1.181114607761     0.495565798762     1.180747612408     1.007825032070
           O         -0.269183607761     0.345921798762     1.390129612408    15.994914619560
           C          0.518516392239     0.742373798762     0.305547612408    12.000000000000
           C          0.288799392239    -0.058244201238    -0.949370387592    12.000000000000
           H          1.548913392239     0.632564798762     0.624025612408     1.007825032070
           H          0.371732392239     1.799511798762     0.086597612408     1.007825032070
           C         -0.448221607761    -1.147496201238    -1.033598387592    12.000000000000
           H          0.787162392239     0.320442798762    -1.828411387592     1.007825032070
           H         -0.010345607761    -2.115889201238    -1.194561387592     1.007825032070
           H         -1.519881607761    -1.104999201238    -0.957997387592     1.007825032070

  Charge       = 0
  Multiplicity = 1
  Basis Set: 6-31G*
  Basis Set:

    Orbital Energies (a.u.)
    -----------------------

    Doubly Occupied:

       1A    -20.558241     2A    -11.281096     3A    -11.237196
       4A    -11.217862     5A     -1.367168     6A     -1.059890
       7A     -0.929347     8A     -0.769398     9A     -0.687979
      10A     -0.645208    11A     -0.612767    12A     -0.579315
      13A     -0.568428    14A     -0.498946    15A     -0.451289
      16A     -0.282510

  @DF-RHF Final Energy:  -191.80397398224750

   => Energetics <=

    Nuclear Repulsion Energy =            119.1754475008349345
    One-Electron Energy =                -496.4655816694757391
    Two-Electron Energy =                 185.4861601863934197
    DFT Exchange-Correlation Energy =       0.0000000000000000
    Empirical Dispersion Energy =           0.0000000000000000
    PCM Polarization Energy =               0.0000000000000000
    EFP Energy =                            0.0000000000000000
    Total Energy =                       -191.8039739822473848

  Mulliken Charges: (a.u.)
   Center  Symbol    Alpha    Beta     Spin     Total
       1     H     0.27979  0.27979  0.00000  0.44043
       2     O     4.36437  4.36437  0.00000 -0.72875
       3     C     2.99654  2.99654  0.00000  0.00691
       4     C     3.09419  3.09419  0.00000 -0.18839
       5     H     0.40161  0.40161  0.00000  0.19678
       6     H     0.43207  0.43207  0.00000  0.13586
       7     C     3.20830  3.20830  0.00000 -0.41660
       8     H     0.40674  0.40674  0.00000  0.18653
       9     H     0.40314  0.40314  0.00000  0.19372
      10     H     0.41324  0.41324  0.00000  0.17352

   Total alpha = 16.00000, Total beta = 16.00000, Total charge = -0.00000
