  ==> Input File <==

--------------------------------------------------------------------------
set {
	reference rhf
	basis 6-31G*
}

set_num_threads( 4 )
memory 2 gb

molecule MOL {
0 1

H	 3.893188	 0.355400	 -0.101367
N	 3.092854	 -0.246221	 -0.068770
C	 1.865559	 0.531981	 0.018834
H	 3.199514	 -0.826043	 0.741946
C	 0.645745	 -0.382037	 -0.029944
H	 1.841966	 1.207024	 -0.831236
H	 1.815756	 1.155410	 0.915079
C	 -0.679275	 0.379305	 0.025956
H	 0.698998	 -0.976915	 -0.937203
H	 0.693479	 -1.083846	 0.802235
C	 -0.631914	 1.605072	 0.940082
H	 -1.466341	 -0.290990	 0.368128
H	 -0.962023	 0.693017	 -0.977780
C	 -1.959232	 2.360452	 0.996096
H	 -0.350898	 1.293911	 1.943787
H	 0.151996	 2.277998	 0.599038
H	 -2.757573	 1.723324	 1.366280
H	 -1.893998	 3.223065	 1.652028
H	 -2.250637	 2.715145	 0.011379

	symmetry c1
}
set optking {
	frozen_dihedral = ("
		12 8 5 9
	")
}

ee = optimize('scf')
oeprop('DIPOLE', 'QUADRUPOLE', 'MULLIKEN_CHARGES')
f=open( 'psi4out.xyz', 'w' )
f.write( "19  " )
f.write( str(ee) + "\n" )
f.write( MOL.save_string_xyz() )
f.close()
--------------------------------------------------------------------------

    Molecular point group: c1
  Charge       = 0
  Multiplicity = 1
  Basis Set: 6-31G*
  Basis Set:
  @DF-RHF Final Energy:  -251.34440082690918
    Total Energy =                       -251.3444008269093501
    Molecular point group: c1
  Basis Set: 6-31G*
  Basis Set:
  Basis Set: 6-31G*
  Basis Set:
  @DF-RHF Final Energy:  -251.34517816901442
    Total Energy =                       -251.3451781690145594
  Basis Set: 6-31G*
  Basis Set:
  Basis Set: 6-31G*
  Basis Set:
  @DF-RHF Final Energy:  -251.34691874762629
    Total Energy =                       -251.3469187476264324
  Basis Set: 6-31G*
  Basis Set:
  Basis Set: 6-31G*
  Basis Set:
  @DF-RHF Final Energy:  -251.34711553965795
    Total Energy =                       -251.3471155396579206
  Basis Set: 6-31G*
  Basis Set:
  Basis Set: 6-31G*
  Basis Set:
  @DF-RHF Final Energy:  -251.34713319369123
    Total Energy =                       -251.3471331936913202
  Basis Set: 6-31G*
  Basis Set:
  Basis Set: 6-31G*
  Basis Set:
  @DF-RHF Final Energy:  -251.34714443042731
    Total Energy =                       -251.3471444304273064
  Basis Set: 6-31G*
  Basis Set:
  Charge       = 0
  Multiplicity = 1
  Basis Set: 6-31G*
  Basis Set:

    Orbital Energies (a.u.)
    -----------------------

    Doubly Occupied:

       1A    -15.532053     2A    -11.238830     3A    -11.214894
       4A    -11.213398     5A    -11.209990     6A    -11.208266
       7A     -1.176191     8A     -1.071923     9A     -0.995674
      10A     -0.898922    11A     -0.833159    12A     -0.771037
      13A     -0.656120    14A     -0.642722    15A     -0.626838
      16A     -0.585454    17A     -0.570925    18A     -0.543262
      19A     -0.528950    20A     -0.505176    21A     -0.486989
      22A     -0.460980    23A     -0.454661    24A     -0.448878
      25A     -0.380190

  @DF-RHF Final Energy:  -251.34714508826039

   => Energetics <=

    Nuclear Repulsion Energy =            249.6004068814067978
    One-Electron Energy =                -833.3841368190769572
    Two-Electron Energy =                 332.4365848494097690
    DFT Exchange-Correlation Energy =       0.0000000000000000
    Empirical Dispersion Energy =           0.0000000000000000
    PCM Polarization Energy =               0.0000000000000000
    EFP Energy =                            0.0000000000000000
    Total Energy =                       -251.3471450882603904
    Molecular point group: c1
  Basis Set: 6-31G*
  Basis Set:

  -Total Gradient:
     Atom            X                  Y                   Z
    ------   -----------------  -----------------  -----------------
       1       -0.000012206493     0.000009237993     0.000006363409
       2       -0.000009882148     0.000000064624     0.000035970038
       3       -0.000006977811     0.000036183398    -0.000116185112
       4        0.000010740848    -0.000010203656     0.000005184792
       5       -0.002821220765    -0.004646007878     0.004302888584
       6        0.000026419588     0.000023956018    -0.000004788750
       7       -0.000019962782    -0.000008994879     0.000014328844
       8       -0.000487208036    -0.000886772502    -0.006681050023
       9        0.002437780182     0.004033242178    -0.002558161151
      10       -0.000030415100    -0.000027252770    -0.000000051631
      11        0.000038685414     0.000026625222    -0.000034329674
      12        0.000845810321     0.001479177382     0.005010196069
      13        0.000021859298    -0.000013183344    -0.000009791248
      14       -0.000001788408    -0.000012253930     0.000024136592
      15        0.000017946392     0.000009310550     0.000010385196
      16       -0.000014894552    -0.000002650675    -0.000004799843
      17       -0.000002965249    -0.000006649677    -0.000009354311
      18       -0.000002409492    -0.000011538024     0.000008751963
      19        0.000010688794     0.000007709969     0.000000306255

  **** Optimization is complete! (in 7 steps) ****
    Final optimized geometry and variables:
    Molecular point group: c1

    Geometry (in Angstrom), charge = 0, multiplicity = 1:

    H            3.525222387444    -0.513114798937    -0.517402368404
    N            2.687377091093    -1.061207887459    -0.479551217618
    C            1.523152955154    -0.207008457486    -0.283168966776
    H            2.791565370362    -1.693222746041     0.291850934213
    C            0.250625471550    -1.054776150285    -0.284018234105
    H            1.488586071112     0.496363904397    -1.110422784628
    H            1.584432789388     0.383982015346     0.630860840991
    C           -1.066831747786    -0.260434031105    -0.290724559347
    H            0.303144702397    -1.661667690456    -1.182102945494
    H            0.273536787357    -1.727778986201     0.570915871882
    C           -1.106308660447     0.966595525811     0.629212836681
    H           -1.862805179162    -0.924027291866     0.039340170123
    H           -1.303799316795     0.049706936211    -1.305446311655
    C           -2.490134461910     1.614747404075     0.670823076052
    H           -0.816114149302     0.675025419901     1.636934022886
    H           -0.380643850013     1.706269185733     0.303302218678
    H           -3.239170596886     0.919016083632     1.038382790811
    H           -2.498547632789     2.484053424329     1.321211482071
    H           -2.800026855679     1.939377152047    -0.318667873092

  Mulliken Charges: (a.u.)
   Center  Symbol    Alpha    Beta     Spin     Total
       1     H     0.33266  0.33266  0.00000  0.33467
       2     N     3.92214  3.92214  0.00000 -0.84428
       3     C     3.06408  3.06408  0.00000 -0.12816
       4     H     0.33569  0.33569  0.00000  0.32862
       5     C     3.15462  3.15462  0.00000 -0.30924
       6     H     0.42145  0.42145  0.00000  0.15709
       7     H     0.43142  0.43142  0.00000  0.13715
       8     C     3.15458  3.15458  0.00000 -0.30915
       9     H     0.40982  0.40982  0.00000  0.18036
      10     H     0.42683  0.42683  0.00000  0.14634
      11     C     3.15633  3.15633  0.00000 -0.31266
      12     H     0.42168  0.42168  0.00000  0.15664
      13     H     0.42137  0.42137  0.00000  0.15726
      14     C     3.23890  3.23890  0.00000 -0.47779
      15     H     0.42387  0.42387  0.00000  0.15225
      16     H     0.42140  0.42140  0.00000  0.15719
      17     H     0.42191  0.42191  0.00000  0.15619
      18     H     0.41961  0.41961  0.00000  0.16078
      19     H     0.42163  0.42163  0.00000  0.15675

   Total alpha = 25.00000, Total beta = 25.00000, Total charge = -0.00000
