                              Psi4 1.0.54 Driver

  ==> Input File <==

--------------------------------------------------------------------------
set {
	reference rhf
	basis cc-pvtz
}

set_num_threads( 4 )
memory 2 gb

molecule MOL {
0 1

O	 3.219313	 0.959291	 -0.614106
C	 2.698710	 0.058177	 -0.050237
C	 1.246364	 -0.005813	 0.348416
O	 3.344101	 -1.038700	 0.312317
C	 0.453207	 1.232821	 -0.049003
H	 0.839270	 -0.907818	 -0.092281
H	 1.216683	 -0.160521	 1.422434
C	 -0.998367	 1.217982	 0.432195
H	 0.481498	 1.345443	 -1.127236
H	 0.951413	 2.105557	 0.354893
C	 -1.882951	 0.151251	 -0.211235
H	 -1.429490	 2.193659	 0.228843
H	 -1.019755	 1.099323	 1.513279
C	 -3.342450	 0.243269	 0.226009
H	 -1.826223	 0.246578	 -1.293162
H	 -1.508033	 -0.839650	 0.027695
C	 -4.234517	 -0.821434	 -0.405970
H	 -3.730149	 1.228245	 -0.022691
H	 -3.398860	 0.159952	 1.308941
C	 -3.450741	 -1.996860	 -0.980293
H	 -4.938087	 -1.186946	 0.337072
H	 -4.831603	 -0.368633	 -1.192937
H	 -4.113005	 -2.733283	 -1.420828
H	 -2.869854	 -2.493461	 -0.210185
H	 -2.761855	 -1.668486	 -1.751535
C	 4.720529	 -1.114346	 0.001449
H	 4.874321	 -1.055557	 -1.065852
H	 5.057824	 -2.067950	 0.373977
H	 5.264321	 -0.313596	 0.480350

	symmetry c1
}
set optking {
	frozen_dihedral = ("
		21 17 14 11
	")
}

ee,wfn = optimize('scf', return_wfn=True)
oeprop( wfn, 'DIPOLE', 'QUADRUPOLE', 'MULLIKEN_CHARGES')
f=open( 'psi4out.xyz', 'w' )
f.write( "29  " )
f.write( str(ee) + "\n" )
f.write( MOL.save_string_xyz() )
f.close()
--------------------------------------------------------------------------

    Molecular point group: c1
  Charge       = 0
  Multiplicity = 1
  Basis Set: CC-PVTZ
  Basis Set:
  @DF-RHF Final Energy:  -501.21308035770767
    Total Energy =                       -501.2130803577075540
    Molecular point group: c1
  Basis Set: CC-PVTZ
  Basis Set:
  Basis Set: CC-PVTZ
  Basis Set:
  @DF-RHF Final Energy:  -499.62679009642420
    Total Energy =                       -499.6267900964239743
  Basis Set: CC-PVTZ
  Basis Set:
  Basis Set: CC-PVTZ
  Basis Set:
  @DF-RHF Final Energy:  -499.90414488829265
    Total Energy =                       -499.9041448882933310
  Basis Set: CC-PVTZ
  Basis Set:
  Basis Set: CC-PVTZ
  Basis Set:
  @DF-RHF Final Energy:  -500.39050370362588
    Total Energy =                       -500.3905037036258818
  Basis Set: CC-PVTZ
  Basis Set:
  @DF-RHF Final Energy:  -500.81502777147546
    Total Energy =                       -500.8150277714762524
  @DF-RHF Final Energy:  -501.07285218648519
    Total Energy =                       -501.0728521864855338
  @DF-RHF Final Energy:  -501.19395459310681
    Total Energy =                       -501.1939545931074917
  @DF-RHF Final Energy:  -501.11432528451951
    Total Energy =                       -501.1143252845199640
  @DF-RHF Final Energy:  -501.20339064310213
    Total Energy =                       -501.2033906431017840
  @DF-RHF Final Energy:  -501.21618016531056
    Total Energy =                       -501.2161801653105613
  @DF-RHF Final Energy:  -501.21643471079858
    Total Energy =                       -501.2164347107982394
  @DF-RHF Final Energy:  -501.21539323011359
    Total Energy =                       -501.2153932301126815
  @DF-RHF Final Energy:  -501.21651038222763
    Total Energy =                       -501.2165103822275114
  Basis Set: CC-PVTZ
  Basis Set:
  @DF-RHF Final Energy:  -501.21651230438601
    Total Energy =                       -501.2165123043859012
  Basis Set: CC-PVTZ
  Basis Set:
  Basis Set: CC-PVTZ
  Basis Set:
  @DF-RHF Final Energy:  -501.21651423511196
    Total Energy =                       -501.2165142351118448
  Basis Set: CC-PVTZ
  Basis Set:
  Basis Set: CC-PVTZ
  Basis Set:
  @DF-RHF Final Energy:  -501.21651652320452
    Total Energy =                       -501.2165165232040636
  Basis Set: CC-PVTZ
  Basis Set:
  Charge       = 0
  Multiplicity = 1
  Basis Set: CC-PVTZ
  Basis Set:

    Orbital Energies (a.u.)
    -----------------------

    Doubly Occupied:

       1A    -20.595949     2A    -20.533799     3A    -11.364205
       4A    -11.278204     5A    -11.232907     6A    -11.216865
       7A    -11.215191     8A    -11.214697     9A    -11.213260
      10A    -11.212642    11A    -11.207113    12A     -1.471858
      13A     -1.365438    14A     -1.098426    15A     -1.065105
      16A     -1.018443    17A     -0.976437    18A     -0.928474
      19A     -0.874037    20A     -0.804989    21A     -0.774087
      22A     -0.764928    23A     -0.702867    24A     -0.685355
      25A     -0.676028    26A     -0.648917    27A     -0.630500
      28A     -0.604052    29A     -0.596849    30A     -0.592930
      31A     -0.558284    32A     -0.551043    33A     -0.540857
      34A     -0.525235    35A     -0.522063    36A     -0.509265
      37A     -0.501527    38A     -0.477869    39A     -0.473671
      40A     -0.460358    41A     -0.453973    42A     -0.449241
      43A     -0.444897    44A     -0.437697

  @DF-RHF Final Energy:  -501.21651679893387

   => Energetics <=

    Nuclear Repulsion Energy =            619.2385805714678781
    One-Electron Energy =               -1909.9691201938289851
    Two-Electron Energy =                 789.5140228234272399
    DFT Exchange-Correlation Energy =       0.0000000000000000
    Empirical Dispersion Energy =           0.0000000000000000
    PCM Polarization Energy =               0.0000000000000000
    EFP Energy =                            0.0000000000000000
    Total Energy =                       -501.2165167989337533
    Molecular point group: c1
  Basis Set: CC-PVTZ
  Basis Set:

  -Total Gradient:
     Atom            X                  Y                   Z
    ------   -----------------  -----------------  -----------------
       1        0.000021686988     0.000000053206     0.000045511099
       2       -0.000005528742    -0.000030671768    -0.000040123246
       3       -0.000000063460     0.000054846358    -0.000011536781
       4       -0.000000955119     0.000021609262    -0.000011106094
       5        0.000005166044    -0.000025260014     0.000014882893
       6       -0.000000081277    -0.000015210563    -0.000009719749
       7       -0.000001016462    -0.000018859907     0.000013652122
       8        0.000012950665     0.000023301351    -0.000002546112
       9        0.000004461656     0.000008016075     0.000003845806
      10       -0.000008013289     0.000002716769    -0.000003752854
      11        0.002482172017     0.002003107886     0.002514009880
      12        0.000004447602    -0.000000570558     0.000000352147
      13       -0.000000479723     0.000002188841    -0.000000549910
      14       -0.002484365534    -0.002911459712    -0.003329527194
      15       -0.000001474784     0.000000535801    -0.000000380299
      16       -0.000005905526    -0.000002459670     0.000006168744
      17       -0.005197675904     0.000777230106    -0.000661632414
      18       -0.000001338777    -0.000000310803    -0.000000502123
      19        0.000000060052    -0.000002131970    -0.000001035819
      20        0.000009541834    -0.000005847538    -0.000002248708
      21        0.005182028270     0.000112512755     0.001477878838
      22        0.000000784829     0.000006087122    -0.000005536428
      23        0.000002504110     0.000001199918    -0.000002208880
      24        0.000001118321     0.000001947323    -0.000001197690
      25       -0.000002342688     0.000000913079     0.000004393843
      26        0.000006790909    -0.000009003213    -0.000001238459
      27       -0.000009085580     0.000006534057     0.000002865746
      28       -0.000007258122     0.000000592342    -0.000000247544
      29       -0.000008128303    -0.000001606532     0.000001529185

  **** Optimization is complete! (in 17 steps) ****
    Final optimized geometry and variables:
    Molecular point group: c1

    Geometry (in Angstrom), charge = 0, multiplicity = 1:

    O            1.780042041554     0.218067737749    -2.732935502673
    C            1.944118560392     0.381825059813    -1.572249526648
    C            0.852506120566     0.564493220152    -0.548798267912
    O            3.141059442760     0.425280199078    -1.009586177885
    C           -0.549224793276     0.534936212653    -1.145146323496
    H            0.992212794407    -0.207128390054     0.198804291479
    H            1.042313834905     1.505845674089    -0.042896579674
    C           -1.659379470822     0.811266066465    -0.130109498433
    H           -0.716137296209    -0.425505827753    -1.620133922999
    H           -0.602427262750     1.272002152101    -1.937039491689
    C           -1.837315530592    -0.263423600373     0.942066159466
    H           -2.592971342598     0.916987380421    -0.674347783963
    H           -1.480446783427     1.771591108617     0.348679961407
    C           -3.017473358392     0.038992187569     1.865844979005
    H           -1.981199091118    -1.224446320151     0.453984814899
    H           -0.932051565359    -0.350571280001     1.530497180068
    C           -3.315133633611    -0.985702766120     2.986446933442
    H           -3.911432805542     0.171277031012     1.265332833373
    H           -2.828160427169     1.005734788763     2.324522760135
    C           -2.168260675088    -1.920224632505     3.376366527718
    H           -3.582723389145    -0.438255103824     3.883546696677
    H           -4.172885307559    -1.589448339434     2.712198967266
    H           -2.480248886368    -2.567949370450     4.187811961099
    H           -1.299873663766    -1.367635516042     3.718151622083
    H           -1.856353891981    -2.553665145438     2.555166134538
    C            4.261702013126     0.265818121591    -1.855543523778
    H            4.233667850395    -0.694491921267    -2.348747462734
    H            5.128056066107     0.331281337502    -1.217541550575
    H            4.289371553900     1.044924818875    -2.602858020915

  Mulliken Charges: (a.u.)
   Center  Symbol    Alpha    Beta     Spin     Total
       1     O     4.19700  4.19700  0.00000 -0.39400
       2     C     2.80477  2.80477  0.00000  0.39046
       3     C     3.10179  3.10179  0.00000 -0.20358
       4     O     4.14723  4.14723  0.00000 -0.29446
       5     C     3.09202  3.09202  0.00000 -0.18404
       6     H     0.43960  0.43960  0.00000  0.12081
       7     H     0.43981  0.43981  0.00000  0.12038
       8     C     3.10472  3.10472  0.00000 -0.20943
       9     H     0.44627  0.44627  0.00000  0.10746
      10     H     0.43982  0.43982  0.00000  0.12037
      11     C     3.09445  3.09445  0.00000 -0.18889
      12     H     0.44492  0.44492  0.00000  0.11017
      13     H     0.45393  0.45393  0.00000  0.09215
      14     C     3.09782  3.09782  0.00000 -0.19565
      15     H     0.45209  0.45209  0.00000  0.09581
      16     H     0.44959  0.44959  0.00000  0.10081
      17     C     3.08613  3.08613  0.00000 -0.17227
      18     H     0.44963  0.44963  0.00000  0.10074
      19     H     0.45378  0.45378  0.00000  0.09244
      20     C     3.15981  3.15981  0.00000 -0.31962
      21     H     0.45126  0.45126  0.00000  0.09748
      22     H     0.45141  0.45141  0.00000  0.09717
      23     H     0.44378  0.44378  0.00000  0.11243
      24     H     0.45421  0.45421  0.00000  0.09157
      25     H     0.45210  0.45210  0.00000  0.09579
      26     C     3.03821  3.03821  0.00000 -0.07642
      27     H     0.45435  0.45435  0.00000  0.09129
      28     H     0.44527  0.44527  0.00000  0.10945
      29     H     0.45421  0.45421  0.00000  0.09158

   Total alpha = 44.00000, Total beta = 44.00000, Total charge = -0.00000

*** Psi4 exiting successfully. Buy a developer a beer!
