  ==> Input File <==

--------------------------------------------------------------------------
set {
	reference rhf
	basis cc-pvtz
}

set_num_threads( 4 )
memory 2 gb

molecule MOL {
0 1

O	 -2.440701	 -0.934798	 -0.415053
C	 -1.922978	 0.063265	 -0.045005
C	 -2.632749	 1.372204	 0.158357
O	 -0.637375	 0.157174	 0.243149
H	 -2.187724	 2.129143	 -0.474664
H	 -3.677681	 1.257276	 -0.079438
H	 -2.516788	 1.693160	 1.185542
C	 0.162530	 -1.009518	 0.097799
C	 1.587210	 -0.664190	 0.477086
H	 0.096803	 -1.356267	 -0.924704
H	 -0.233803	 -1.785900	 0.736810
C	 2.256770	 0.342732	 -0.454344
H	 2.154716	 -1.590834	 0.479041
H	 1.598751	 -0.289614	 1.496104
C	 3.673843	 0.697163	 -0.016284
H	 2.281528	 -0.065213	 -1.461353
H	 1.655999	 1.243672	 -0.501518
H	 4.126578	 1.409382	 -0.696108
H	 4.308646	 -0.182395	 0.011913
H	 3.677850	 1.138213	 0.974916

	symmetry c1
}
set optking {
	frozen_dihedral = ("
		16 12 9 8
	")
}

ee = optimize('scf')
oeprop('DIPOLE', 'QUADRUPOLE', 'MULLIKEN_CHARGES')
f=open( 'psi4out.xyz', 'w' )
f.write( "20  " )
f.write( str(ee) + "\n" )
f.write( MOL.save_string_xyz() )
f.close()
--------------------------------------------------------------------------

    Molecular point group: c1
  Charge       = 0
  Multiplicity = 1
  Basis Set: CC-PVTZ
  Basis Set:
  @DF-RHF Final Energy:  -384.08755076321233
    Total Energy =                       -384.0875507632126755
    Molecular point group: c1
  Basis Set: CC-PVTZ
  Basis Set:
  Basis Set: CC-PVTZ
  Basis Set:
  @DF-RHF Final Energy:  -384.08754613746629
    Total Energy =                       -384.0875461374665747
  Basis Set: CC-PVTZ
  Basis Set:
  Basis Set: CC-PVTZ
  Basis Set:
  @DF-RHF Final Energy:  -384.08753711928961
    Total Energy =                       -384.0875371192900047
  Basis Set: CC-PVTZ
  Basis Set:
  Basis Set: CC-PVTZ
  Basis Set:
  @DF-RHF Final Energy:  -384.08755491352713
    Total Energy =                       -384.0875549135270148
  Basis Set: CC-PVTZ
  Basis Set:
  Charge       = 0
  Multiplicity = 1
  Basis Set: CC-PVTZ
  Basis Set:

    Orbital Energies (a.u.)
    -----------------------

    Doubly Occupied:

       1A    -20.594417     2A    -20.532673     3A    -11.366704
       4A    -11.280198     5A    -11.231722     6A    -11.223554
       7A    -11.218832     8A    -11.211570     9A     -1.471108
      10A     -1.365238    11A     -1.087220    12A     -1.029319
      13A     -0.982286    14A     -0.881264    15A     -0.812131
      16A     -0.777110    17A     -0.692622    18A     -0.686535
      19A     -0.670290    20A     -0.632654    21A     -0.602315
      22A     -0.594046    23A     -0.573150    24A     -0.551822
      25A     -0.545311    26A     -0.533222    27A     -0.513302
      28A     -0.484002    29A     -0.475561    30A     -0.474272
      31A     -0.451699    32A     -0.442134

  @DF-RHF Final Energy:  -384.08755504191777

   => Energetics <=

    Nuclear Repulsion Energy =            385.7331566622467562
    One-Electron Energy =               -1287.6648568493806124
    Two-Electron Energy =                 517.8441451452160891
    DFT Exchange-Correlation Energy =       0.0000000000000000
    Empirical Dispersion Energy =           0.0000000000000000
    PCM Polarization Energy =               0.0000000000000000
    EFP Energy =                            0.0000000000000000
    Total Energy =                       -384.0875550419177671
    Molecular point group: c1
  Basis Set: CC-PVTZ
  Basis Set:

  -Total Gradient:
     Atom            X                  Y                   Z
    ------   -----------------  -----------------  -----------------
       1       -0.000001025858    -0.000003501779     0.000003121178
       2        0.000005120938     0.000000829420    -0.000015532583
       3        0.000000991063     0.000003614251    -0.000005138798
       4        0.000014919675     0.000006584698    -0.000021419709
       5        0.000001276578    -0.000000356606     0.000005329989
       6        0.000000691595    -0.000001079041     0.000002192084
       7       -0.000003473034    -0.000000159066     0.000004506234
       8       -0.000134916523     0.000246569322     0.000263343167
       9        0.000257836318    -0.000407934570    -0.000278109126
      10       -0.000005390502     0.000008838945    -0.000009682698
      11        0.000008565745    -0.000004569931    -0.000008974870
      12       -0.000556412488     0.000337734565    -0.000029576227
      13       -0.000001661894     0.000000102883    -0.000003623933
      14       -0.000002060756    -0.000002110109     0.000000618262
      15       -0.000001042225     0.000007470843     0.000001907251
      16        0.000415462083    -0.000194852808     0.000089442004
      17       -0.000005859416     0.000000639376    -0.000001810243
      18        0.000002508889     0.000001264666     0.000001679467
      19        0.000000192487     0.000000124740    -0.000000511562
      20        0.000004277327     0.000000790202     0.000002240111

  **** Optimization is complete! (in 5 steps) ****
    Final optimized geometry and variables:
    Molecular point group: c1

    Geometry (in Angstrom), charge = 0, multiplicity = 1:

    O           -2.433912458994    -0.939191255650    -0.433005041651
    C           -1.919783257192     0.056519357188    -0.051921110650
    C           -2.632215253614     1.362904828491     0.156583019795
    O           -0.635865289113     0.149586853906     0.243790182361
    H           -2.185187241221     2.124212228682    -0.469702539014
    H           -3.675902781049     1.248185919635    -0.086741705096
    H           -2.521204537695     1.677297827956     1.186280381280
    C            0.165497110778    -1.015642439292     0.095143090188
    C            1.589857656476    -0.668900947226     0.474751681648
    H            0.099512610502    -1.359925157760    -0.928205747272
    H           -0.229289729184    -1.794211718844     0.732361264643
    C            2.259625358471     0.335868819583    -0.458812840330
    H            2.159071775339    -1.594278032414     0.482178699420
    H            1.597773714743    -0.289786678641     1.492138004892
    C            3.678190089419     0.687175842532    -0.022859174022
    H            2.285061207091    -0.074965170734    -1.464581921872
    H            1.661264347885     1.238160067817    -0.506466103776
    H            4.133581194326     1.393894999115    -0.706634879185
    H            4.309403826126    -0.194803493683     0.009717581655
    H            3.684122808807     1.133325443942     0.965989409821

  Mulliken Charges: (a.u.)
   Center  Symbol    Alpha    Beta     Spin     Total
       1     O     4.19726  4.19726  0.00000 -0.39453
       2     C     2.80884  2.80884  0.00000  0.38232
       3     C     3.13844  3.13844  0.00000 -0.27688
       4     O     4.15354  4.15354  0.00000 -0.30708
       5     H     0.44612  0.44612  0.00000  0.10777
       6     H     0.43777  0.43777  0.00000  0.12445
       7     H     0.44570  0.44570  0.00000  0.10859
       8     C     2.99315  2.99315  0.00000  0.01370
       9     C     3.08424  3.08424  0.00000 -0.16848
      10     H     0.45101  0.45101  0.00000  0.09798
      11     H     0.44456  0.44456  0.00000  0.11089
      12     C     3.08647  3.08647  0.00000 -0.17294
      13     H     0.45126  0.45126  0.00000  0.09747
      14     H     0.45224  0.45224  0.00000  0.09551
      15     C     3.15018  3.15018  0.00000 -0.30037
      16     H     0.45480  0.45480  0.00000  0.09039
      17     H     0.44729  0.44729  0.00000  0.10543
      18     H     0.44739  0.44739  0.00000  0.10522
      19     H     0.45545  0.45545  0.00000  0.08910
      20     H     0.45427  0.45427  0.00000  0.09145

   Total alpha = 32.00000, Total beta = 32.00000, Total charge =  0.00000
