  ==> Input File <==

--------------------------------------------------------------------------
set {
	reference rhf
	basis 6-31G*
}

set_num_threads( 4 )
memory 2 gb

molecule MOL {
0 1

O	 0.749854	 1.307668	 -0.000040
C	 0.576249	 0.131685	 -0.000108
C	 -0.766779	 -0.556801	 -0.000461
O	 1.568443	 -0.749345	 -0.000005
C	 -1.945214	 0.412366	 0.000161
H	 -0.796911	 -1.211249	 -0.867467
H	 -0.796854	 -1.212390	 0.865687
C	 -3.287791	 -0.317055	 0.000105
H	 -1.876087	 1.060580	 -0.866812
H	 -1.875822	 1.059691	 0.867761
H	 -3.394745	 -0.949193	 -0.877058
H	 -4.111778	 0.388953	 0.000015
H	 -3.394954	 -0.949187	 0.877259
C	 2.774488	 -0.358970	 0.631083
H	 3.188809	 0.515759	 0.150741
H	 3.446484	 -1.196477	 0.526823
H	 2.604096	 -0.143274	 1.676048

	symmetry c1
}
set optking {
	frozen_dihedral = ("
		14 4 2 1
	")
}

ee = optimize('scf')
oeprop('DIPOLE', 'QUADRUPOLE', 'MULLIKEN_CHARGES')
f=open( 'psi4out.xyz', 'w' )
f.write( "17  " )
f.write( str(ee) + "\n" )
f.write( MOL.save_string_xyz() )
f.close()
--------------------------------------------------------------------------

    Molecular point group: c1
  Charge       = 0
  Multiplicity = 1
  Basis Set: 6-31G*
  Basis Set:
  @DF-RHF Final Energy:  -344.90159854457721
    Total Energy =                       -344.9015985445772685
    Molecular point group: c1
  Basis Set: 6-31G*
  Basis Set:
  Basis Set: 6-31G*
  Basis Set:
  @DF-RHF Final Energy:  -344.89825550788214
    Total Energy =                       -344.8982555078820269
  Basis Set: 6-31G*
  Basis Set:
  Basis Set: 6-31G*
  Basis Set:
  @DF-RHF Final Energy:  -344.90202705717957
    Total Energy =                       -344.9020270571792253
  Basis Set: 6-31G*
  Basis Set:
  Basis Set: 6-31G*
  Basis Set:
  @DF-RHF Final Energy:  -344.90209528376329
    Total Energy =                       -344.9020952837632876
  Basis Set: 6-31G*
  Basis Set:
  Basis Set: 6-31G*
  Basis Set:
  @DF-RHF Final Energy:  -344.90210611756413
    Total Energy =                       -344.9021061175640170
  Basis Set: 6-31G*
  Basis Set:
  Basis Set: 6-31G*
  Basis Set:
  @DF-RHF Final Energy:  -344.90210910005129
    Total Energy =                       -344.9021091000514616
  Basis Set: 6-31G*
  Basis Set:
  Charge       = 0
  Multiplicity = 1
  Basis Set: 6-31G*
  Basis Set:

    Orbital Energies (a.u.)
    -----------------------

    Doubly Occupied:

       1A    -20.599597     2A    -20.548285     3A    -11.373397
       4A    -11.283263     5A    -11.236403     6A    -11.222196
       7A    -11.214815     8A     -1.466677     9A     -1.364063
      10A     -1.080544    11A     -0.999928    12A     -0.941339
      13A     -0.828443    14A     -0.766744    15A     -0.699778
      16A     -0.681135    17A     -0.672535    18A     -0.636414
      19A     -0.599635    20A     -0.576151    21A     -0.567171
      22A     -0.529326    23A     -0.522939    24A     -0.498080
      25A     -0.487382    26A     -0.478893    27A     -0.455151
      28A     -0.436987

  @DF-RHF Final Energy:  -344.90210985901774

   => Energetics <=

    Nuclear Repulsion Energy =            312.1771937698873671
    One-Electron Energy =               -1088.6240617735229534
    Two-Electron Energy =                 431.5447581446176741
    DFT Exchange-Correlation Energy =       0.0000000000000000
    Empirical Dispersion Energy =           0.0000000000000000
    PCM Polarization Energy =               0.0000000000000000
    EFP Energy =                            0.0000000000000000
    Total Energy =                       -344.9021098590179122
    Molecular point group: c1
  Basis Set: 6-31G*
  Basis Set:

  -Total Gradient:
     Atom            X                  Y                   Z
    ------   -----------------  -----------------  -----------------
       1       -0.000490158565     0.000397322237    -0.008744117760
       2       -0.000346262395    -0.002043418932     0.015982974439
       3        0.000062870571     0.000027651889    -0.000148032962
       4        0.002690313227     0.004696333418    -0.013166790261
       5        0.000010252406    -0.000041170779     0.000059353148
       6       -0.000002488329    -0.000014264197     0.000052936404
       7        0.000014615343    -0.000016748027     0.000056530266
       8        0.000001992096     0.000002103782    -0.000015617350
       9       -0.000003094545     0.000026440613    -0.000027885238
      10        0.000003649169    -0.000010636469    -0.000017622736
      11        0.000000734075    -0.000001527721     0.000003439430
      12        0.000007051513     0.000000647082    -0.000002328237
      13       -0.000000232816     0.000001194547     0.000005599493
      14       -0.002047924719    -0.003143469730     0.006080467465
      15        0.000044020464     0.000067854746    -0.000010488599
      16        0.000014898697    -0.000011691605    -0.000032362125
      17        0.000039763804     0.000063379141    -0.000076055378

  **** Optimization is complete! (in 7 steps) ****
    Final optimized geometry and variables:
    Molecular point group: c1

    Geometry (in Angstrom), charge = 0, multiplicity = 1:

    O            0.750150630402     1.331819627634     0.062747492725
    C            0.584851541625     0.158695633091    -0.013646763195
    C           -0.753781536125    -0.534516752268    -0.065232067038
    O            1.587073933107    -0.710455593280    -0.144436989095
    C           -1.936535694202     0.426361265671    -0.136646572610
    H           -0.739633889244    -1.210811195463    -0.914986428287
    H           -0.819238986876    -1.170026756348     0.815245495023
    C           -3.274207505387    -0.310937867108    -0.175193681568
    H           -1.834956991657     1.053433859295    -1.016377395977
    H           -1.906284544863     1.095276681852     0.716380773168
    H           -3.340826209575    -0.965491566445    -1.039750955820
    H           -4.100985087527     0.389785416994    -0.227688176694
    H           -3.415078905512    -0.921521789542     0.712446063673
    C            2.829229865472    -0.352520107846     0.434119140080
    H            3.257995093593     0.502179312049    -0.068264751354
    H            3.470341094290    -1.212544607927     0.318710349385
    H            2.702910303722    -0.123869911782     1.483999587185

  Mulliken Charges: (a.u.)
   Center  Symbol    Alpha    Beta     Spin     Total
       1     O     4.27927  4.27927  0.00000 -0.55854
       2     C     2.60577  2.60577  0.00000  0.78846
       3     C     3.20790  3.20790  0.00000 -0.41581
       4     O     4.30949  4.30949  0.00000 -0.61899
       5     C     3.15230  3.15230  0.00000 -0.30459
       6     H     0.39928  0.39928  0.00000  0.20143
       7     H     0.40322  0.40322  0.00000  0.19355
       8     C     3.24270  3.24270  0.00000 -0.48539
       9     H     0.41157  0.41157  0.00000  0.17686
      10     H     0.41005  0.41005  0.00000  0.17989
      11     H     0.42108  0.42108  0.00000  0.15784
      12     H     0.41507  0.41507  0.00000  0.16987
      13     H     0.42161  0.42161  0.00000  0.15679
      14     C     3.09325  3.09325  0.00000 -0.18650
      15     H     0.40498  0.40498  0.00000  0.19003
      16     H     0.40738  0.40738  0.00000  0.18524
      17     H     0.41507  0.41507  0.00000  0.16986

   Total alpha = 28.00000, Total beta = 28.00000, Total charge = -0.00000
