  ==> Input File <==

--------------------------------------------------------------------------
set {
	reference rhf
	basis cc-pvtz
}

set_num_threads( 4 )
memory 2 gb

molecule MOL {
0 1

O	 1.788080	 1.324979	 -1.602719
C	 0.777252	 1.168163	 -0.979540
C	 -0.371337	 2.142403	 -1.142119
N	 0.622280	 0.144970	 -0.099307
H	 -0.623776	 2.615247	 -0.201354
H	 -0.058252	 2.894970	 -1.846472
H	 -1.258042	 1.647653	 -1.518882
C	 1.664396	 -0.854993	 0.000772
C	 -0.638054	 -0.214549	 0.505720
H	 2.462727	 -0.615153	 -0.690869
H	 1.261798	 -1.821849	 -0.240651
H	 2.081615	 -0.891605	 1.003877
H	 -0.456889	 -0.610206	 1.496815
H	 -1.287735	 0.637540	 0.609418
H	 -1.160290	 -0.977679	 -0.066947

	symmetry c1
}
set optking {
	frozen_dihedral = ("
		2 4 8 10
	")
}

ee = optimize('scf')
oeprop('DIPOLE', 'QUADRUPOLE', 'MULLIKEN_CHARGES')
f=open( 'psi4out.xyz', 'w' )
f.write( "15  " )
f.write( str(ee) + "\n" )
f.write( MOL.save_string_xyz() )
f.close()
--------------------------------------------------------------------------

    Molecular point group: c1
  Charge       = 0
  Multiplicity = 1
  Basis Set: CC-PVTZ
  Basis Set:
  @DF-RHF Final Energy:  -286.13498873184119
    Total Energy =                       -286.1349887318414176
    Molecular point group: c1
  Basis Set: CC-PVTZ
  Basis Set:
  Basis Set: CC-PVTZ
  Basis Set:
  @DF-RHF Final Energy:  -286.13536075968159
    Total Energy =                       -286.1353607596815323
  Basis Set: CC-PVTZ
  Basis Set:
  Basis Set: CC-PVTZ
  Basis Set:
  @DF-RHF Final Energy:  -286.13522543176259
    Total Energy =                       -286.1352254317624215
  Basis Set: CC-PVTZ
  Basis Set:
  Basis Set: CC-PVTZ
  Basis Set:
  @DF-RHF Final Energy:  -286.13547868556418
    Total Energy =                       -286.1354786855640668
  Basis Set: CC-PVTZ
  Basis Set:
  @DF-RHF Final Energy:  -286.13552317782853
    Total Energy =                       -286.1355231778284747
  @DF-RHF Final Energy:  -286.13553449281710
    Total Energy =                       -286.1355344928167597
  @DF-RHF Final Energy:  -286.13554317822667
    Total Energy =                       -286.1355431782266123
  @DF-RHF Final Energy:  -286.13555447612327
    Total Energy =                       -286.1355544761232750
  @DF-RHF Final Energy:  -286.13556461500923
    Total Energy =                       -286.1355646150094003
  Basis Set: CC-PVTZ
  Basis Set:
  @DF-RHF Final Energy:  -286.13557268549619
    Total Energy =                       -286.1355726854962995
  Basis Set: CC-PVTZ
  Basis Set:
  Basis Set: CC-PVTZ
  Basis Set:
  @DF-RHF Final Energy:  -286.13557429973815
    Total Energy =                       -286.1355742997384937
  Basis Set: CC-PVTZ
  Basis Set:
  Basis Set: CC-PVTZ
  Basis Set:
  @DF-RHF Final Energy:  -286.13557568769784
    Total Energy =                       -286.1355756876976670
  Basis Set: CC-PVTZ
  Basis Set:
  Charge       = 0
  Multiplicity = 1
  Basis Set: CC-PVTZ
  Basis Set:

    Orbital Energies (a.u.)
    -----------------------

    Doubly Occupied:

       1A    -20.501762     2A    -15.579137     3A    -11.335485
       4A    -11.264184     5A    -11.246398     6A    -11.226451
       7A     -1.386139     8A     -1.246817     9A     -1.015064
      10A     -0.973684    11A     -0.922022    12A     -0.739809
      13A     -0.683454    14A     -0.662296    15A     -0.653995
      16A     -0.591317    17A     -0.577905    18A     -0.566341
      19A     -0.560845    20A     -0.548994    21A     -0.530593
      22A     -0.507714    23A     -0.412603    24A     -0.369431

  @DF-RHF Final Energy:  -286.13557637946883

   => Energetics <=

    Nuclear Repulsion Energy =            252.7537283144849596
    One-Electron Energy =                -889.5737214189193764
    Two-Electron Energy =                 350.6844167249654447
    DFT Exchange-Correlation Energy =       0.0000000000000000
    Empirical Dispersion Energy =           0.0000000000000000
    PCM Polarization Energy =               0.0000000000000000
    EFP Energy =                            0.0000000000000000
    Total Energy =                       -286.1355763794689437
    Molecular point group: c1
  Basis Set: CC-PVTZ
  Basis Set:

  -Total Gradient:
     Atom            X                  Y                   Z
    ------   -----------------  -----------------  -----------------
       1        0.000024474776    -0.000021709647    -0.000001123587
       2       -0.000022225484    -0.000016271973     0.000070407563
       3       -0.000001225094     0.000027073966     0.000014803488
       4       -0.000025705939     0.000014674375    -0.000071173296
       5       -0.000003635612    -0.000001117462    -0.000013837862
       6       -0.000001231111    -0.000005979421     0.000001464659
       7       -0.000001470141     0.000001495566    -0.000008675860
       8       -0.000006559237     0.000033007120     0.000067582491
       9        0.000015406876     0.000003548609    -0.000008884954
      10       -0.000013064748    -0.000022061969    -0.000049773525
      11        0.000012144377     0.000002412721     0.000003675068
      12       -0.000002408265     0.000005775466     0.000000171273
      13       -0.000003565971    -0.000001260789    -0.000021253922
      14        0.000025741431    -0.000032449206     0.000010934198
      15        0.000003324141     0.000012862646     0.000005684263

  **** Optimization is complete! (in 13 steps) ****
    Final optimized geometry and variables:
    Molecular point group: c1

    Geometry (in Angstrom), charge = 0, multiplicity = 1:

    O            1.169580210236     0.756736876409    -1.011064523839
    C            0.140367648357     0.565676831847    -0.427345081692
    C           -0.998191941413     1.556147851941    -0.567590516433
    N           -0.048582970743    -0.516923491388     0.366777436812
    H           -1.259932875875     1.995537855467     0.386845883561
    H           -0.665159475912     2.332780561792    -1.235616420747
    H           -1.883640589988     1.087431450257    -0.978331486071
    C            1.009974569986    -1.491535974095     0.515166918375
    C           -1.259012602358    -0.821360975311     1.088432840027
    H            1.859501624413    -1.193426586148    -0.071207957893
    H            0.672304829374    -2.468266961067     0.182930233497
    H            1.305230989867    -1.572360639584     1.556488041159
    H           -1.046452299604    -0.937575989085     2.146230682327
    H           -1.995969774485    -0.045716183932     0.982042862572
    H           -1.693720209786    -1.750986102542     0.733551806463

  Mulliken Charges: (a.u.)
   Center  Symbol    Alpha    Beta     Spin     Total
       1     O     4.22311  4.22311  0.00000 -0.44622
       2     C     2.84782  2.84782  0.00000  0.30436
       3     C     3.15990  3.15990  0.00000 -0.31980
       4     N     3.55715  3.55715  0.00000 -0.11430
       5     H     0.44984  0.44984  0.00000  0.10033
       6     H     0.42834  0.42834  0.00000  0.14333
       7     H     0.44984  0.44984  0.00000  0.10033
       8     C     3.10092  3.10092  0.00000 -0.20184
       9     C     3.09328  3.09328  0.00000 -0.18656
      10     H     0.42468  0.42468  0.00000  0.15064
      11     H     0.45745  0.45745  0.00000  0.08510
      12     H     0.45679  0.45679  0.00000  0.08641
      13     H     0.45279  0.45279  0.00000  0.09442
      14     H     0.44487  0.44487  0.00000  0.11025
      15     H     0.45322  0.45322  0.00000  0.09357

   Total alpha = 24.00000, Total beta = 24.00000, Total charge =  0.00000
