  ==> Input File <==

--------------------------------------------------------------------------
set {
	reference rhf
	basis 6-31G*
}

set_num_threads( 4 )
memory 2 gb

molecule MOL {
0 1

H	 -0.367348	 2.047014	 -0.308205
C	 0.352277	 1.337084	 0.083769
N	 -0.000016	 0.000074	 -0.335546
H	 1.328359	 1.600444	 -0.307950
H	 0.381933	 1.450534	 1.172486
C	 -1.426894	 -0.223047	 -0.285502
C	 0.551810	 -0.322561	 -1.631521
H	 -1.646842	 -1.254381	 -0.537146
H	 -1.792955	 -0.039067	 0.718298
H	 -1.985280	 0.420360	 -0.973336
H	 1.630034	 -0.211401	 -1.610309
H	 0.327544	 -1.353656	 -1.880493
H	 0.161381	 0.312635	 -2.433405

	symmetry c1
}
set optking {
	frozen_dihedral = ("
		6 3 2 1
	")
}

ee = optimize('scf')
oeprop('DIPOLE', 'QUADRUPOLE', 'MULLIKEN_CHARGES')
f=open( 'psi4out.xyz', 'w' )
f.write( "13  " )
f.write( str(ee) + "\n" )
f.write( MOL.save_string_xyz() )
f.close()
--------------------------------------------------------------------------

    Molecular point group: c1
  Charge       = 0
  Multiplicity = 1
  Basis Set: 6-31G*
  Basis Set:
  @DF-RHF Final Energy:  -173.26600405644612
    Total Energy =                       -173.2660040564462065
    Molecular point group: c1
  Basis Set: 6-31G*
  Basis Set:
  Basis Set: 6-31G*
  Basis Set:
  @DF-RHF Final Energy:  -173.26693941151620
    Total Energy =                       -173.2669394115161481
  Basis Set: 6-31G*
  Basis Set:
  Basis Set: 6-31G*
  Basis Set:
  @DF-RHF Final Energy:  -173.26703680254386
    Total Energy =                       -173.2670368025437995
  Basis Set: 6-31G*
  Basis Set:
  Charge       = 0
  Multiplicity = 1
  Basis Set: 6-31G*
  Basis Set:

    Orbital Energies (a.u.)
    -----------------------

    Doubly Occupied:

       1A    -15.543902     2A    -11.235706     3A    -11.235692
       4A    -11.235630     5A     -1.224228     6A     -0.951589
       7A     -0.950308     8A     -0.807368     9A     -0.640728
      10A     -0.630568    11A     -0.628555    12A     -0.548390
      13A     -0.542275    14A     -0.517141    15A     -0.500537
      16A     -0.498848    17A     -0.347417

  @DF-RHF Final Energy:  -173.26703938733954

   => Energetics <=

    Nuclear Repulsion Energy =            139.2276067795207837
    One-Electron Energy =                -508.9115292723572566
    Two-Electron Energy =                 196.4168831054968791
    DFT Exchange-Correlation Energy =       0.0000000000000000
    Empirical Dispersion Energy =           0.0000000000000000
    PCM Polarization Energy =               0.0000000000000000
    EFP Energy =                            0.0000000000000000
    Total Energy =                       -173.2670393873395938
    Molecular point group: c1
  Basis Set: 6-31G*
  Basis Set:

  -Total Gradient:
     Atom            X                  Y                   Z
    ------   -----------------  -----------------  -----------------
       1       -0.002895245274    -0.000487927366     0.004224181382
       2        0.003590733310     0.001057469819    -0.006745965241
       3       -0.000432072349    -0.001691328110     0.005991942174
       4       -0.000002738124    -0.000017721334    -0.000007340583
       5       -0.000002541669     0.000021428517     0.000000017936
       6       -0.000135270340     0.001126496300    -0.003607541398
       7       -0.000041031504    -0.000006546380     0.000187533052
       8       -0.000065624360    -0.000030641502    -0.000007392818
       9       -0.000025426052     0.000011250507     0.000001996386
      10        0.000011642415     0.000020702301    -0.000003752875
      11        0.000014762734     0.000013097996    -0.000007641616
      12       -0.000007495378    -0.000020621019    -0.000025371065
      13       -0.000009693410     0.000004340270    -0.000000665335

  **** Optimization is complete! (in 4 steps) ****
    Final optimized geometry and variables:
    Molecular point group: c1

    Geometry (in Angstrom), charge = 0, multiplicity = 1:

    H           -0.217391743780     1.882040220681     0.252559422200
    C            0.485709393413     1.137003922091     0.633945341538
    N            0.150907443773    -0.213981203776     0.226465891100
    H            1.486051445819     1.394493821461     0.310601106026
    H            0.457789199368     1.208473815493     1.717365694716
    C           -1.276433630064    -0.439024132986     0.276938695727
    C            0.679122722309    -0.537601625934    -1.082172858609
    H           -1.496690895567    -1.476640870432     0.052781475357
    H           -1.648168142813    -0.227989518225     1.273908841778
    H           -1.828578185525     0.188674165361    -0.429419206708
    H            1.757842015105    -0.432492279563    -1.081583698563
    H            0.446072027156    -1.568396233569    -1.324518872206
    H            0.275133510469     0.095371361414    -1.878784526205

  Mulliken Charges: (a.u.)
   Center  Symbol    Alpha    Beta     Spin     Total
       1     H     0.43261  0.43261  0.00000  0.13478
       2     C     3.14436  3.14436  0.00000 -0.28872
       3     N     3.76514  3.76514  0.00000 -0.53028
       4     H     0.41773  0.41773  0.00000  0.16453
       5     H     0.41560  0.41560  0.00000  0.16879
       6     C     3.14461  3.14461  0.00000 -0.28922
       7     C     3.14374  3.14374  0.00000 -0.28748
       8     H     0.41642  0.41642  0.00000  0.16716
       9     H     0.41649  0.41649  0.00000  0.16702
      10     H     0.43448  0.43448  0.00000  0.13104
      11     H     0.41645  0.41645  0.00000  0.16710
      12     H     0.41715  0.41715  0.00000  0.16569
      13     H     0.43521  0.43521  0.00000  0.12958

   Total alpha = 17.00000, Total beta = 17.00000, Total charge =  0.00000
