                              Psi4 1.0.54 Driver

  ==> Input File <==

--------------------------------------------------------------------------
set {
	reference rhf
	basis cc-pvtz
}

set_num_threads( 4 )
memory 2 gb

molecule MOL {
0 1

H	 -1.088256	 -1.364742	 0.152233
O	 -1.432053	 -0.565244	 -0.200812
C	 -0.727158	 0.534527	 0.310686
C	 0.680222	 0.664433	 -0.252229
H	 -1.306802	 1.408001	 0.044211
H	 -0.690821	 0.490158	 1.397609
C	 1.073045	 2.094322	 -0.611609
H	 1.381270	 0.262676	 0.471895
H	 0.745839	 0.038431	 -1.137929
H	 1.077392	 2.737562	 0.261517
H	 2.068422	 2.127908	 -1.037811
H	 0.388687	 2.519245	 -1.339654

	symmetry c1
}
set optking {
	frozen_dihedral = ("
		8 4 3 2
	")
}

ee,wfn = optimize('scf', return_wfn=True)
oeprop( wfn, 'DIPOLE', 'QUADRUPOLE', 'MULLIKEN_CHARGES')
f=open( 'psi4out.xyz', 'w' )
f.write( "12  " )
f.write( str(ee) + "\n" )
f.write( MOL.save_string_xyz() )
f.close()
--------------------------------------------------------------------------

    Molecular point group: c1
  Charge       = 0
  Multiplicity = 1
  Basis Set: CC-PVTZ
  Basis Set:
  @DF-RHF Final Energy:  -193.18599342843157
    Total Energy =                       -193.1859934284316296
    Molecular point group: c1
  Basis Set: CC-PVTZ
  Basis Set:
  Basis Set: CC-PVTZ
  Basis Set:
  @DF-RHF Final Energy:  -193.18565670674309
    Total Energy =                       -193.1856567067429182
  Basis Set: CC-PVTZ
  Basis Set:
  Basis Set: CC-PVTZ
  Basis Set:
  @DF-RHF Final Energy:  -193.18651412090534
    Total Energy =                       -193.1865141209055423
  Basis Set: CC-PVTZ
  Basis Set:
  Basis Set: CC-PVTZ
  Basis Set:
  @DF-RHF Final Energy:  -193.18654381449210
    Total Energy =                       -193.1865438144919835
  Basis Set: CC-PVTZ
  Basis Set:
  Basis Set: CC-PVTZ
  Basis Set:
  @DF-RHF Final Energy:  -193.18654625124188
    Total Energy =                       -193.1865462512417935
  Basis Set: CC-PVTZ
  Basis Set:
  Charge       = 0
  Multiplicity = 1
  Basis Set: CC-PVTZ
  Basis Set:

    Orbital Energies (a.u.)
    -----------------------

    Doubly Occupied:

       1A    -20.546006     2A    -11.265596     3A    -11.216542
       4A    -11.212525     5A     -1.363356     6A     -1.051461
       7A     -0.917896     8A     -0.819640     9A     -0.693243
      10A     -0.631562    11A     -0.609445    12A     -0.585741
      13A     -0.536492    14A     -0.510575    15A     -0.492664
      16A     -0.466818    17A     -0.431476

  @DF-RHF Final Energy:  -193.18654662380391

   => Energetics <=

    Nuclear Repulsion Energy =            131.0224070329031179
    One-Electron Energy =                -521.7158333214078993
    Two-Electron Energy =                 197.5068796647008753
    DFT Exchange-Correlation Energy =       0.0000000000000000
    Empirical Dispersion Energy =           0.0000000000000000
    PCM Polarization Energy =               0.0000000000000000
    EFP Energy =                            0.0000000000000000
    Total Energy =                       -193.1865466238039062
    Molecular point group: c1
  Basis Set: CC-PVTZ
  Basis Set:

  -Total Gradient:
     Atom            X                  Y                   Z
    ------   -----------------  -----------------  -----------------
       1        0.000010258588     0.000008139135     0.000013676926
       2       -0.001390517595     0.002274472508    -0.002485739774
       3        0.001930081567    -0.002085056537     0.003950103873
       4       -0.000661023599    -0.004118956492    -0.003726413871
       5       -0.000020911415    -0.000025378098    -0.000023322365
       6       -0.000000738111    -0.000024149099     0.000004710161
       7        0.000009234216    -0.000000672670    -0.000027294766
       8        0.000126287507     0.003946160477     0.002287738230
       9       -0.000000372430     0.000004484690     0.000000429807
      10        0.000002585854    -0.000010021931     0.000025503753
      11        0.000001401847     0.000016723390    -0.000006306238
      12       -0.000006286431     0.000014254629    -0.000013085737

  **** Optimization is complete! (in 6 steps) ****
    Final optimized geometry and variables:
    Molecular point group: c1

    Geometry (in Angstrom), charge = 0, multiplicity = 1:

    H           -0.784348434400    -2.082987817798     0.056782397863
    O           -1.229775768532    -1.282340517315    -0.153715563741
    C           -0.590092226469    -0.196099952458     0.462598206672
    C            0.820008140207     0.069008422380    -0.077763097497
    H           -1.224939987442     0.655249489937     0.255554538340
    H           -0.569704227452    -0.323469053633     1.541561394846
    C            1.117011681807     1.559435540733    -0.231051537059
    H            1.561066134159    -0.349227861387     0.597132006495
    H            0.919600071176    -0.425885559569    -1.036045959206
    H            0.997893087104     2.081982948808     0.712858390849
    H            2.133212483964     1.722864814906    -0.569794104740
    H            0.447018616285     2.018472869140    -0.949545766777

  Mulliken Charges: (a.u.)
   Center  Symbol    Alpha    Beta     Spin     Total
       1     H     0.39507  0.39507  0.00000  0.20986
       2     O     4.20060  4.20060  0.00000 -0.40121
       3     C     2.96483  2.96483  0.00000  0.07034
       4     C     3.09469  3.09469  0.00000 -0.18938
       5     H     0.46041  0.46041  0.00000  0.07918
       6     H     0.46930  0.46930  0.00000  0.06139
       7     C     3.15128  3.15128  0.00000 -0.30257
       8     H     0.45756  0.45756  0.00000  0.08488
       9     H     0.44934  0.44934  0.00000  0.10132
      10     H     0.45519  0.45519  0.00000  0.08963
      11     H     0.44911  0.44911  0.00000  0.10179
      12     H     0.45261  0.45261  0.00000  0.09477

   Total alpha = 17.00000, Total beta = 17.00000, Total charge =  0.00000

*** Psi4 exiting successfully. Buy a developer a beer!
