  ==> Input File <==

--------------------------------------------------------------------------
set {
	reference rhf
	basis 6-31G*
}

set_num_threads( 4 )
memory 2 gb

molecule MOL {
0 1

H	 -2.083319	 2.160726	 0.775881
C	 -1.700233	 1.211071	 0.452188
C	 -2.555953	 0.194038	 0.064459
C	 -0.339948	 0.991007	 0.418333
H	 -3.620117	 0.346108	 0.083719
C	 -2.048867	 -1.023270	 -0.349973
H	 0.347970	 1.756313	 0.711338
C	 0.154804	 -0.237046	 -0.000077
H	 -2.729356	 -1.799658	 -0.647047
C	 -0.681226	 -1.285630	 -0.398264
N	 1.611208	 -0.370857	 -0.000034
C	 -0.237593	 -2.653564	 -0.868238
O	 2.274126	 0.622059	 -0.008063
O	 2.068510	 -1.474748	 0.007823
H	 0.331778	 -3.169819	 -0.107695
H	 -1.111277	 -3.245717	 -1.109912
H	 0.390525	 -2.588016	 -1.745903

	symmetry c1
}
set optking {
	frozen_dihedral = ("
		4 8 11 13
	")
}

ee = optimize('scf')
oeprop('DIPOLE', 'QUADRUPOLE', 'MULLIKEN_CHARGES')
f=open( 'psi4out.xyz', 'w' )
f.write( "17  " )
f.write( str(ee) + "\n" )
f.write( MOL.save_string_xyz() )
f.close()
--------------------------------------------------------------------------

    Molecular point group: c1
  Charge       = 0
  Multiplicity = 1
  Basis Set: 6-31G*
  Basis Set:
  @DF-RHF Final Energy:  -473.20629074217800
    Total Energy =                       -473.2062907421778846
    Molecular point group: c1
  Basis Set: 6-31G*
  Basis Set:
  Basis Set: 6-31G*
  Basis Set:
  @DF-RHF Final Energy:  -473.20663202092578
    Total Energy =                       -473.2066320209255537
  Basis Set: 6-31G*
  Basis Set:
  Basis Set: 6-31G*
  Basis Set:
  @DF-RHF Final Energy:  -473.20522081826454
    Total Energy =                       -473.2052208182648201
  Basis Set: 6-31G*
  Basis Set:
  Basis Set: 6-31G*
  Basis Set:
  @DF-RHF Final Energy:  -473.20676527183934
    Total Energy =                       -473.2067652718390036
  Basis Set: 6-31G*
  Basis Set:
  Basis Set: 6-31G*
  Basis Set:
  @DF-RHF Final Energy:  -473.20677428088931
    Total Energy =                       -473.2067742808892490
  Basis Set: 6-31G*
  Basis Set:
  Charge       = 0
  Multiplicity = 1
  Basis Set: 6-31G*
  Basis Set:

    Orbital Energies (a.u.)
    -----------------------

    Doubly Occupied:

       1A    -20.599061     2A    -20.597180     3A    -15.852927
       4A    -11.300729     5A    -11.282465     6A    -11.266165
       7A    -11.264059     8A    -11.254042     9A    -11.253203
      10A    -11.233558    11A     -1.631915    12A     -1.414142
      13A     -1.199815    14A     -1.091548    15A     -1.071752
      16A     -0.979763    17A     -0.931037    18A     -0.847271
      19A     -0.822421    20A     -0.768871    21A     -0.731846
      22A     -0.725454    23A     -0.693244    24A     -0.662563
      25A     -0.637654    26A     -0.598160    27A     -0.590105
      28A     -0.563057    29A     -0.540828    30A     -0.520204
      31A     -0.519211    32A     -0.485172    33A     -0.478353
      34A     -0.447752    35A     -0.369168    36A     -0.353454

  @DF-RHF Final Energy:  -473.20677734351972

   => Energetics <=

    Nuclear Repulsion Energy =            509.8782805911394576
    One-Electron Energy =               -1655.0138162611410735
    Two-Electron Energy =                 671.9287583264817840
    DFT Exchange-Correlation Energy =       0.0000000000000000
    Empirical Dispersion Energy =           0.0000000000000000
    PCM Polarization Energy =               0.0000000000000000
    EFP Energy =                            0.0000000000000000
    Total Energy =                       -473.2067773435198887
    Molecular point group: c1
  Basis Set: 6-31G*
  Basis Set:

  -Total Gradient:
     Atom            X                  Y                   Z
    ------   -----------------  -----------------  -----------------
       1        0.000003056861     0.000005816093    -0.000015047011
       2        0.000013582713    -0.000005338127     0.000013398545
       3       -0.000004729006    -0.000008709517    -0.000030629506
       4       -0.000010061080     0.000094366919    -0.000189844296
       5       -0.000000881145    -0.000010447643     0.000018316349
       6       -0.000019245054     0.000026419547    -0.000033160153
       7       -0.000012695654    -0.000001600992    -0.000011273296
       8       -0.000036170122    -0.000176083730     0.000421890263
       9       -0.000002419337    -0.000006013714     0.000010505034
      10        0.000020372333     0.000015572218     0.000035739173
      11        0.000001375235     0.000132204707    -0.000484010046
      12       -0.000018770340    -0.000004892158    -0.000037960183
      13        0.000045529410    -0.000074876003     0.000278755152
      14        0.000019503357     0.000021344522    -0.000003651382
      15        0.000011310295    -0.000011359176     0.000015913734
      16        0.000000999123     0.000003161272    -0.000002871917
      17       -0.000010757591     0.000000435780     0.000013929540

  **** Optimization is complete! (in 6 steps) ****
    Final optimized geometry and variables:
    Molecular point group: c1

    Geometry (in Angstrom), charge = 0, multiplicity = 1:

    H           -2.037189895364     2.592769712628     0.858821731959
    C           -1.655448142819     1.642705022706     0.534655215923
    C           -2.514038063718     0.620229207435     0.167242118917
    C           -0.294430272075     1.428805343537     0.476037271330
    H           -3.578019901115     0.770362562032     0.201956638964
    C           -2.010947704624    -0.597705689487    -0.251825301745
    H            0.397882298695     2.200339809415     0.743841599588
    C            0.192275920851     0.195435899628     0.068722287300
    H           -2.693230020713    -1.374550085771    -0.544293597128
    C           -0.643700349097    -0.856986993072    -0.310431273875
    N            1.646384822431     0.055222614787     0.058050264537
    C           -0.187041987347    -2.216576661561    -0.791000360796
    O            2.299299208218     1.055459409325     0.032533035498
    O            2.108783892774    -1.045229384733     0.089618857623
    H            0.246362611709    -2.791399789100     0.016373187789
    H           -1.036730033727    -2.758661268001    -1.186718565922
    H            0.563208672090    -2.139258499793    -1.565922442149

  Mulliken Charges: (a.u.)
   Center  Symbol    Alpha    Beta     Spin     Total
       1     H     0.38938  0.38938  0.00000  0.22125
       2     C     3.11227  3.11227  0.00000 -0.22455
       3     C     3.08109  3.08109  0.00000 -0.16218
       4     C     3.08358  3.08358  0.00000 -0.16717
       5     H     0.38959  0.38959  0.00000  0.22082
       6     C     3.12541  3.12541  0.00000 -0.25083
       7     H     0.36465  0.36465  0.00000  0.27070
       8     C     2.93240  2.93240  0.00000  0.13521
       9     H     0.39271  0.39271  0.00000  0.21458
      10     C     2.96334  2.96334  0.00000  0.07332
      11     N     3.24967  3.24967  0.00000  0.50066
      12     C     3.23773  3.23773  0.00000 -0.47547
      13     O     4.23382  4.23382  0.00000 -0.46764
      14     O     4.23405  4.23405  0.00000 -0.46811
      15     H     0.39495  0.39495  0.00000  0.21011
      16     H     0.41462  0.41462  0.00000  0.17075
      17     H     0.40073  0.40073  0.00000  0.19854

   Total alpha = 36.00000, Total beta = 36.00000, Total charge =  0.00000
