  ==> Input File <==

--------------------------------------------------------------------------
set {
	reference rhf
	basis 6-31G*
}

set_num_threads( 4 )
memory 2 gb

molecule MOL {
0 1

H	 1.367966	 0.069849	 -1.630278
C	 0.778805	 -0.484033	 -0.928144
C	 0.773667	 -1.867295	 -0.922020
C	 0.000000	 0.183220	 0.000000
H	 1.371642	 -2.404452	 -1.634659
C	 0.000000	 -2.555744	 0.000000
N	 0.000000	 1.642018	 0.000000
C	 -0.778805	 -0.484034	 0.928144
H	 0.000000	 -3.630640	 0.000000
C	 -0.773667	 -1.867295	 0.922020
O	 1.057097	 2.196749	 0.000000
O	 -1.057097	 2.196749	 0.000000
H	 -1.367966	 0.069849	 1.630278
H	 -1.371642	 -2.404452	 1.634659

	symmetry c1
}
set optking {
	frozen_dihedral = ("
		2 4 7 11
	")
}

ee = optimize('scf')
oeprop('DIPOLE', 'QUADRUPOLE', 'MULLIKEN_CHARGES')
f=open( 'psi4out.xyz', 'w' )
f.write( "14  " )
f.write( str(ee) + "\n" )
f.write( MOL.save_string_xyz() )
f.close()
--------------------------------------------------------------------------

    Molecular point group: c1
  Charge       = 0
  Multiplicity = 1
  Basis Set: 6-31G*
  Basis Set:
  @DF-RHF Final Energy:  -434.16847401321456
    Total Energy =                       -434.1684740132149045
    Molecular point group: c1
  Basis Set: 6-31G*
  Basis Set:
  Basis Set: 6-31G*
  Basis Set:
  @DF-RHF Final Energy:  -434.16288188942099
    Total Energy =                       -434.1628818894211008
  Basis Set: 6-31G*
  Basis Set:
  Basis Set: 6-31G*
  Basis Set:
  @DF-RHF Final Energy:  -434.16885928658735
    Total Energy =                       -434.1688592865868941
  Basis Set: 6-31G*
  Basis Set:
  Basis Set: 6-31G*
  Basis Set:
  @DF-RHF Final Energy:  -434.16904309448978
    Total Energy =                       -434.1690430944900072
  Basis Set: 6-31G*
  Basis Set:
  Basis Set: 6-31G*
  Basis Set:
  @DF-RHF Final Energy:  -434.16904492408986
    Total Energy =                       -434.1690449240899170
  Basis Set: 6-31G*
  Basis Set:
  Charge       = 0
  Multiplicity = 1
  Basis Set: 6-31G*
  Basis Set:

    Orbital Energies (a.u.)
    -----------------------

    Doubly Occupied:

       1A    -20.604384     2A    -20.604309     3A    -15.855308
       4A    -11.306588     5A    -11.271622     6A    -11.271241
       7A    -11.265428     8A    -11.262568     9A    -11.262294
      10A     -1.635952    11A     -1.419792    12A     -1.202812
      13A     -1.095225    14A     -1.053869    15A     -0.957744
      16A     -0.869332    17A     -0.826258    18A     -0.781782
      19A     -0.733397    20A     -0.729603    21A     -0.713368
      22A     -0.650397    23A     -0.649442    24A     -0.624320
      25A     -0.557138    26A     -0.542477    27A     -0.531439
      28A     -0.491823    29A     -0.486299    30A     -0.450890
      31A     -0.370402    32A     -0.366426

  @DF-RHF Final Energy:  -434.16904552929441

   => Energetics <=

    Nuclear Repulsion Energy =            416.8385920378526635
    One-Electron Energy =               -1417.1274165019790416
    Two-Electron Energy =                 566.1197789348320839
    DFT Exchange-Correlation Energy =       0.0000000000000000
    Empirical Dispersion Energy =           0.0000000000000000
    PCM Polarization Energy =               0.0000000000000000
    EFP Energy =                            0.0000000000000000
    Total Energy =                       -434.1690455292942943
    Molecular point group: c1
  Basis Set: 6-31G*
  Basis Set:

  -Total Gradient:
     Atom            X                  Y                   Z
    ------   -----------------  -----------------  -----------------
       1        0.000005588015     0.000008780798    -0.000009145510
       2       -0.004239553400    -0.000178708428    -0.003332218996
       3       -0.000030702756     0.000028952585    -0.000031086675
       4        0.006125476485     0.000263146059     0.007208933548
       5        0.000004302229    -0.000000450933     0.000005891880
       6       -0.000012538780    -0.000002339534     0.000027838036
       7       -0.002132638788    -0.000283374424    -0.010164573076
       8        0.000067519834     0.000035083072    -0.000020228493
       9       -0.000000118956    -0.000001462688    -0.000003615705
      10        0.000048668838    -0.000017993984     0.000002871819
      11        0.000187463152     0.000135777913     0.006294363624
      12       -0.000012354342    -0.000001811205     0.000009708615
      13       -0.000007482672     0.000007807646     0.000014557828
      14       -0.000003628862     0.000006593115    -0.000003296891

  **** Optimization is complete! (in 6 steps) ****
    Final optimized geometry and variables:
    Molecular point group: c1

    Geometry (in Angstrom), charge = 0, multiplicity = 1:

    H            1.394261226838     0.074707829679    -1.612542942247
    C            0.793266232773    -0.480197054734    -0.918235850222
    C            0.770670433797    -1.864179492626    -0.925048222888
    C            0.027143732671     0.182634122517     0.018914854919
    H            1.354695590418    -2.402480300183    -1.648306914095
    C           -0.002200027741    -2.550585941251    -0.001120020910
    N           -0.002620074888     1.639197612043    -0.012177880624
    C           -0.780153582246    -0.476268585412     0.924085778855
    H           -0.009840454566    -3.625333394619    -0.005138939680
    C           -0.771468804196    -1.860133554297     0.923415909731
    O            1.046618823161     2.206653933897    -0.054598401054
    O           -1.070707673276     2.167493433819     0.050284155206
    H           -1.390733646057     0.080720889960     1.607817722128
    H           -1.373295391437    -2.396067201638     1.633746560258

  Mulliken Charges: (a.u.)
   Center  Symbol    Alpha    Beta     Spin     Total
       1     H     0.37205  0.37205  0.00000  0.25590
       2     C     3.08698  3.08698  0.00000 -0.17397
       3     C     3.10597  3.10597  0.00000 -0.21194
       4     C     2.90560  2.90560  0.00000  0.18881
       5     H     0.38848  0.38848  0.00000  0.22304
       6     C     3.08979  3.08979  0.00000 -0.17957
       7     N     3.25625  3.25625  0.00000  0.48750
       8     C     3.08539  3.08539  0.00000 -0.17077
       9     H     0.38955  0.38955  0.00000  0.22091
      10     C     3.10655  3.10655  0.00000 -0.21311
      11     O     4.22578  4.22578  0.00000 -0.45156
      12     O     4.22732  4.22732  0.00000 -0.45465
      13     H     0.37186  0.37186  0.00000  0.25629
      14     H     0.38844  0.38844  0.00000  0.22311

   Total alpha = 32.00000, Total beta = 32.00000, Total charge =  0.00000
