                              Psi4 1.0.54 Driver

  ==> Input File <==

--------------------------------------------------------------------------
set {
	reference rhf
	basis cc-pvtz
}

set_num_threads( 4 )
memory 2 gb

molecule MOL {
0 1

H	 2.342730	 0.877684	 -1.045694
C	 2.360424	 0.000000	 -0.411793
C	 1.173749	 0.000000	 0.526870
H	 3.286567	 0.000000	 0.151574
H	 2.342730	 -0.877684	 -1.045694
O	 0.000000	 0.000000	 -0.223739
H	 1.203779	 0.876757	 1.172538
H	 1.203779	 -0.876757	 1.172538
C	 -1.173749	 0.000000	 0.526870
C	 -2.351035	 0.222578	 -0.397112
H	 -1.133728	 0.783932	 1.282078
H	 -1.280760	 -0.948214	 1.052161
H	 -2.256304	 1.171199	 -0.910548
H	 -3.277018	 0.226367	 0.166505
H	 -2.403491	 -0.562778	 -1.140709

	symmetry c1
}
set optking {
	frozen_dihedral = ("
		11 9 6 3
	")
}

ee,wfn = optimize('scf', return_wfn=True)
oeprop( wfn, 'DIPOLE', 'QUADRUPOLE', 'MULLIKEN_CHARGES')
f=open( 'psi4out.xyz', 'w' )
f.write( "15  " )
f.write( str(ee) + "\n" )
f.write( MOL.save_string_xyz() )
f.close()
--------------------------------------------------------------------------

    Molecular point group: c1
  Charge       = 0
  Multiplicity = 1
  Basis Set: CC-PVTZ
  Basis Set:
  @DF-RHF Final Energy:  -232.23345984344635
    Total Energy =                       -232.2334598434461554
    Molecular point group: c1
  Basis Set: CC-PVTZ
  Basis Set:
  Basis Set: CC-PVTZ
  Basis Set:
  @DF-RHF Final Energy:  -232.23347098945180
    Total Energy =                       -232.2334709894516891
  Basis Set: CC-PVTZ
  Basis Set:
  Charge       = 0
  Multiplicity = 1
  Basis Set: CC-PVTZ
  Basis Set:

    Orbital Energies (a.u.)
    -----------------------

    Doubly Occupied:

       1A    -20.545406     2A    -11.266239     3A    -11.266154
       4A    -11.207407     5A    -11.207274     6A     -1.381426
       7A     -1.045125     8A     -0.983483     9A     -0.846987
      10A     -0.826815    11A     -0.679659    12A     -0.669313
      13A     -0.608586    14A     -0.598568    15A     -0.549865
      16A     -0.531742    17A     -0.523112    18A     -0.494073
      19A     -0.487343    20A     -0.466943    21A     -0.413698

  @DF-RHF Final Energy:  -232.23347289895216

   => Energetics <=

    Nuclear Repulsion Energy =            191.3034330427776979
    One-Electron Energy =                -693.8753743853301330
    Two-Electron Energy =                 270.3384684436002772
    DFT Exchange-Correlation Energy =       0.0000000000000000
    Empirical Dispersion Energy =           0.0000000000000000
    PCM Polarization Energy =               0.0000000000000000
    EFP Energy =                            0.0000000000000000
    Total Energy =                       -232.2334728989521864
    Molecular point group: c1
  Basis Set: CC-PVTZ
  Basis Set:

  -Total Gradient:
     Atom            X                  Y                   Z
    ------   -----------------  -----------------  -----------------
       1       -0.000001633761     0.000002647841    -0.000000855628
       2       -0.000026810547    -0.000011131373    -0.000015156615
       3        0.000032414723     0.001046007743     0.000054505837
       4       -0.000004547430    -0.000005919614     0.000008584878
       5        0.000006436271    -0.000004001458    -0.000008331907
       6        0.000158318952    -0.001625766748     0.000165178537
       7       -0.000008524762    -0.000006849082    -0.000005501103
       8       -0.000000817722    -0.000007280152    -0.000004486715
       9       -0.000674655137     0.001435049493    -0.000967247529
      10       -0.000018737987    -0.000002681276    -0.000047542523
      11        0.000517149549    -0.000862174401     0.000771716925
      12        0.000002648533     0.000022600480     0.000035212253
      13        0.000007664326     0.000023039225    -0.000014063922
      14        0.000015413868    -0.000009187405     0.000017290847
      15       -0.000004318874     0.000005646728     0.000010696665

  **** Optimization is complete! (in 3 steps) ****
    Final optimized geometry and variables:
    Molecular point group: c1

    Geometry (in Angstrom), charge = 0, multiplicity = 1:

    H            2.348064835168     0.817052191186    -1.049706795027
    C            2.359100555413    -0.059301478518    -0.413666862180
    C            1.172199567493    -0.047873583104     0.524665769482
    H            3.285077102188    -0.064814977903     0.150169939116
    H            2.335274454598    -0.938340201798    -1.045580772446
    O           -0.001057442773    -0.036079853432    -0.226303053620
    H            1.209645121492     0.828631659045     1.170005730695
    H            1.195047851035    -0.924905268677     1.170737231815
    C           -1.176493781244    -0.041211153747     0.521997265667
    C           -2.354129721121     0.182175279451    -0.400931349824
    H           -1.137050377645     0.733494446091     1.286341975460
    H           -1.280638650844    -0.992934677857     1.042247157574
    H           -2.269297552274     1.138871847157    -0.901151222912
    H           -3.281254733029     0.166675740820     0.160806286667
    H           -2.396142071386    -0.593437898999    -1.155431938605

  Mulliken Charges: (a.u.)
   Center  Symbol    Alpha    Beta     Spin     Total
       1     H     0.45160  0.45160  0.00000  0.09680
       2     C     3.13496  3.13496  0.00000 -0.26992
       3     C     2.96698  2.96698  0.00000  0.06604
       4     H     0.45890  0.45890  0.00000  0.08220
       5     H     0.45154  0.45154  0.00000  0.09692
       6     O     4.17894  4.17894  0.00000 -0.35788
       7     H     0.47267  0.47267  0.00000  0.05465
       8     H     0.47403  0.47403  0.00000  0.05195
       9     C     2.96731  2.96731  0.00000  0.06537
      10     C     3.13474  3.13474  0.00000 -0.26947
      11     H     0.47456  0.47456  0.00000  0.05088
      12     H     0.47171  0.47171  0.00000  0.05658
      13     H     0.45206  0.45206  0.00000  0.09588
      14     H     0.45887  0.45887  0.00000  0.08227
      15     H     0.45114  0.45114  0.00000  0.09772

   Total alpha = 21.00000, Total beta = 21.00000, Total charge =  0.00000

*** Psi4 exiting successfully. Buy a developer a beer!
