  ==> Input File <==

--------------------------------------------------------------------------
set {
	reference rhf
	basis 6-31G*
}

set_num_threads( 4 )
memory 2 gb

molecule MOL {
0 1

H	 -4.031818	 -0.453427	 -0.000094
C	 -2.967712	 -0.297022	 -0.000064
C	 -2.458620	 0.992929	 0.000032
C	 -2.109895	 -1.385637	 -0.000122
H	 -3.124998	 1.836319	 0.000077
C	 -1.090278	 1.193236	 0.000070
H	 -2.506361	 -2.384847	 -0.000198
C	 -0.739812	 -1.187531	 -0.000085
H	 -0.678594	 2.184290	 0.000146
C	 -0.226438	 0.104061	 0.000012
H	 -0.072310	 -2.027032	 -0.000131
C	 1.239129	 0.373821	 0.000060
O	 1.558615	 1.505700	 0.609471
O	 2.048566	 -0.347053	 -0.493915
C	 2.934131	 1.841013	 0.656299
H	 3.491135	 1.080600	 1.183854
H	 2.989640	 2.780521	 1.183649
H	 3.332044	 1.946596	 -0.342418

	symmetry c1
}
set optking {
	frozen_dihedral = ("
		13 12 10 6
	")
}

ee = optimize('scf')
oeprop('DIPOLE', 'QUADRUPOLE', 'MULLIKEN_CHARGES')
f=open( 'psi4out.xyz', 'w' )
f.write( "18  " )
f.write( str(ee) + "\n" )
f.write( MOL.save_string_xyz() )
f.close()
--------------------------------------------------------------------------

    Molecular point group: c1
  Charge       = 0
  Multiplicity = 1
  Basis Set: 6-31G*
  Basis Set:
  @DF-RHF Final Energy:  -457.34705419824689
    Total Energy =                       -457.3470541982469513
    Molecular point group: c1
  Basis Set: 6-31G*
  Basis Set:
  Basis Set: 6-31G*
  Basis Set:
  @DF-RHF Final Energy:  -457.34776481811144
    Total Energy =                       -457.3477648181115001
  Basis Set: 6-31G*
  Basis Set:
  Basis Set: 6-31G*
  Basis Set:
  @DF-RHF Final Energy:  -457.34633031402677
    Total Energy =                       -457.3463303140265452
  Basis Set: 6-31G*
  Basis Set:
  Basis Set: 6-31G*
  Basis Set:
  @DF-RHF Final Energy:  -457.34848361844104
    Total Energy =                       -457.3484836184411506
  Basis Set: 6-31G*
  Basis Set:
  Basis Set: 6-31G*
  Basis Set:
  @DF-RHF Final Energy:  -457.34849692177329
    Total Energy =                       -457.3484969217737444
  Basis Set: 6-31G*
  Basis Set:
  Charge       = 0
  Multiplicity = 1
  Basis Set: 6-31G*
  Basis Set:

    Orbital Energies (a.u.)
    -----------------------

    Doubly Occupied:

       1A    -20.608217     2A    -20.545705     3A    -11.378123
       4A    -11.283060     5A    -11.246588     6A    -11.244645
       7A    -11.244351     8A    -11.242317     9A    -11.238106
      10A    -11.237376    11A     -1.473118    12A     -1.364733
      13A     -1.165745    14A     -1.048410    15A     -1.025189
      16A     -0.978533    17A     -0.860155    18A     -0.835475
      19A     -0.778307    20A     -0.738995    21A     -0.683698
      22A     -0.677580    23A     -0.673377    24A     -0.630685
      25A     -0.625657    26A     -0.597569    27A     -0.586927
      28A     -0.557905    29A     -0.531173    30A     -0.516432
      31A     -0.504447    32A     -0.500392    33A     -0.458647
      34A     -0.444885    35A     -0.344331    36A     -0.341376

  @DF-RHF Final Energy:  -457.34849813768028

   => Energetics <=

    Nuclear Repulsion Energy =            492.7577704316356630
    One-Electron Energy =               -1599.7880737491395848
    Two-Electron Energy =                 649.6818051798235274
    DFT Exchange-Correlation Energy =       0.0000000000000000
    Empirical Dispersion Energy =           0.0000000000000000
    PCM Polarization Energy =               0.0000000000000000
    EFP Energy =                            0.0000000000000000
    Total Energy =                       -457.3484981376803944
    Molecular point group: c1
  Basis Set: 6-31G*
  Basis Set:

  -Total Gradient:
     Atom            X                  Y                   Z
    ------   -----------------  -----------------  -----------------
       1       -0.000000095425     0.000006861667    -0.000013215686
       2        0.000024154291    -0.000188550045     0.000033496544
       3        0.000149820428     0.000102541741    -0.000025455619
       4       -0.000196032437     0.000057941941     0.000019978910
       5       -0.000005643791    -0.000003774344     0.000005612115
       6       -0.000210323684    -0.000070805674    -0.003730913814
       7        0.000008543864    -0.000004208812    -0.000005389400
       8        0.000142806105     0.000127952035    -0.000024445160
       9        0.000015184115     0.000000629478    -0.000014858531
      10        0.000191994647    -0.000575825543     0.006653858375
      11       -0.000014078345    -0.000004055341     0.000000723737
      12       -0.000479757531     0.002239833426    -0.006073975922
      13        0.000321926448    -0.001787712107     0.003150316876
      14        0.000013377482     0.000070696741     0.000018178260
      15        0.000017026708     0.000034035445    -0.000002607788
      16       -0.000001064218    -0.000005605304     0.000003335106
      17        0.000019566847    -0.000000589284     0.000000033430
      18        0.000002594487     0.000000633978     0.000005328563

  **** Optimization is complete! (in 6 steps) ****
    Final optimized geometry and variables:
    Molecular point group: c1

    Geometry (in Angstrom), charge = 0, multiplicity = 1:

    H           -3.969148363083    -0.821930875009    -0.157896435838
    C           -2.910257720392    -0.636414690309    -0.127960249976
    C           -2.437775601637     0.666492907236    -0.106053840381
    C           -2.021769628966    -1.700809515266    -0.118278350631
    H           -3.127482365516     1.490829952290    -0.124824388901
    C           -1.075491479548     0.907691809306    -0.059575819514
    H           -2.388943385000    -2.710826077742    -0.141273262265
    C           -0.659440974076    -1.461660203301    -0.090991579957
    H           -0.704684575892     1.914640634059    -0.033952830807
    C           -0.183757726265    -0.157452255518    -0.040403581873
    H            0.041318103052    -2.274760647204    -0.108083383578
    C            1.291004197932     0.057980649146    -0.063792822216
    O            1.651962656754     1.195319420113     0.511245158445
    O            2.070997696934    -0.720183394003    -0.514864971255
    C            3.036764513121     1.494430208292     0.524590081598
    H            3.580222729584     0.738552188232     1.072313402177
    H            3.126044378393     2.450655918603     1.015849922962
    H            3.423086793616     1.551670390070    -0.482773493147

  Mulliken Charges: (a.u.)
   Center  Symbol    Alpha    Beta     Spin     Total
       1     H     0.39559  0.39559  0.00000  0.20881
       2     C     3.09131  3.09131  0.00000 -0.18261
       3     C     3.10590  3.10590  0.00000 -0.21181
       4     C     3.10606  3.10606  0.00000 -0.21211
       5     H     0.39618  0.39618  0.00000  0.20764
       6     C     3.09018  3.09018  0.00000 -0.18037
       7     H     0.39537  0.39537  0.00000  0.20926
       8     C     3.08876  3.08876  0.00000 -0.17752
       9     H     0.38357  0.38357  0.00000  0.23286
      10     C     3.05497  3.05497  0.00000 -0.10993
      11     H     0.37921  0.37921  0.00000  0.24159
      12     C     2.60073  2.60073  0.00000  0.79854
      13     O     4.30772  4.30772  0.00000 -0.61544
      14     O     4.28841  4.28841  0.00000 -0.57681
      15     C     3.09329  3.09329  0.00000 -0.18658
      16     H     0.40710  0.40710  0.00000  0.18580
      17     H     0.40755  0.40755  0.00000  0.18491
      18     H     0.40811  0.40811  0.00000  0.18378

   Total alpha = 36.00000, Total beta = 36.00000, Total charge =  0.00000
