  ==> Input File <==

--------------------------------------------------------------------------
set {
	reference rhf
	basis cc-pvtz
}

set_num_threads( 4 )
memory 2 gb

molecule MOL {
0 1

H	 -2.877032	 1.807640	 -1.071767
O	 -2.670061	 2.126204	 -0.211457
C	 -1.300350	 2.005328	 0.018554
C	 -0.793473	 0.591216	 0.050087
H	 -1.107561	 2.474673	 0.976077
H	 -0.731918	 2.565969	 -0.721221
C	 -1.534243	 -0.493009	 -0.013340
H	 0.276915	 0.499791	 0.134701
H	 -1.101195	 -1.466332	 -0.144046
H	 -2.604242	 -0.437780	 0.050785

	symmetry c1
}
set optking {
	frozen_dihedral = ("
		3 4 7 9
	")
}

ee = optimize('scf')
oeprop('DIPOLE', 'QUADRUPOLE', 'MULLIKEN_CHARGES')
f=open( 'psi4out.xyz', 'w' )
f.write( "10  " )
f.write( str(ee) + "\n" )
f.write( MOL.save_string_xyz() )
f.close()
--------------------------------------------------------------------------

    Molecular point group: c1
  Charge       = 0
  Multiplicity = 1
  Basis Set: CC-PVTZ
  Basis Set:
  @DF-RHF Final Energy:  -191.99690839234398
    Total Energy =                       -191.9969083923439825
    Molecular point group: c1
  Basis Set: CC-PVTZ
  Basis Set:
  Basis Set: CC-PVTZ
  Basis Set:
  @DF-RHF Final Energy:  -191.99771587094421
    Total Energy =                       -191.9977158709442051
  Basis Set: CC-PVTZ
  Basis Set:
  Basis Set: CC-PVTZ
  Basis Set:
  @DF-RHF Final Energy:  -191.99790217849764
    Total Energy =                       -191.9979021784974407
  Basis Set: CC-PVTZ
  Basis Set:
  Basis Set: CC-PVTZ
  Basis Set:
  @DF-RHF Final Energy:  -191.99790482647148
    Total Energy =                       -191.9979048264714834
  Basis Set: CC-PVTZ
  Basis Set:
  Charge       = 0
  Multiplicity = 1
  Basis Set: CC-PVTZ
  Basis Set:

    Orbital Energies (a.u.)
    -----------------------

    Doubly Occupied:

       1A    -20.554576     2A    -11.278540     3A    -11.231200
       4A    -11.217186     5A     -1.375171     6A     -1.062610
       7A     -0.932812     8A     -0.772144     9A     -0.692950
      10A     -0.665542    11A     -0.621191    12A     -0.574655
      13A     -0.539850    14A     -0.498463    15A     -0.452248
      16A     -0.369036

  @DF-RHF Final Energy:  -191.99790504833396

   => Energetics <=

    Nuclear Repulsion Energy =            119.5511576790687087
    One-Electron Energy =                -497.4217763276204778
    Two-Electron Energy =                 185.8727136002178781
    DFT Exchange-Correlation Energy =       0.0000000000000000
    Empirical Dispersion Energy =           0.0000000000000000
    PCM Polarization Energy =               0.0000000000000000
    EFP Energy =                            0.0000000000000000
    Total Energy =                       -191.9979050483339051
    Molecular point group: c1
  Basis Set: CC-PVTZ
  Basis Set:

  -Total Gradient:
     Atom            X                  Y                   Z
    ------   -----------------  -----------------  -----------------
       1        0.000001308437    -0.000010099363    -0.000001103470
       2        0.000000840992     0.000016550383    -0.000000784483
       3        0.000565370707     0.000021558000    -0.004707493180
       4       -0.000993157131     0.000231493889     0.005125692026
       5       -0.000001598030     0.000013735116     0.000004472919
       6       -0.000012973347    -0.000008069955     0.000004860516
       7        0.000571410645    -0.000918649257     0.005941604306
       8        0.000003585486    -0.000004516558     0.000026215814
       9       -0.000135974348     0.000643304500    -0.006335104639
      10        0.000001186588     0.000014693250    -0.000058359808

  **** Optimization is complete! (in 5 steps) ****
    Final optimized geometry and variables:
    Molecular point group: c1

    Geometry (in Angstrom), charge = 0, multiplicity = 1:

    H           -1.265407588303     0.664045894097    -0.982966546099
    O           -1.040765053975     1.015654390441    -0.140130688405
    C            0.331066873441     0.889933787673     0.071437150171
    C            0.829747208159    -0.526520771832     0.128870899746
    H            0.543862761524     1.395467508578     1.006100102098
    H            0.893182984781     1.414393073296    -0.699022342410
    C            0.089682182472    -1.609372420993     0.035633285333
    H            1.902260698977    -0.620565096600     0.177442904988
    H            0.535782396288    -2.579582721660    -0.072903257100
    H           -0.981429368001    -1.557505692248    -0.013988204385

  Mulliken Charges: (a.u.)
   Center  Symbol    Alpha    Beta     Spin     Total
       1     H     0.39110  0.39110  0.00000  0.21779
       2     O     4.19932  4.19932  0.00000 -0.39865
       3     C     2.94962  2.94962  0.00000  0.10076
       4     C     3.08339  3.08339  0.00000 -0.16677
       5     H     0.45349  0.45349  0.00000  0.09303
       6     H     0.46893  0.46893  0.00000  0.06214
       7     C     3.17743  3.17743  0.00000 -0.35485
       8     H     0.42359  0.42359  0.00000  0.15282
       9     H     0.42802  0.42802  0.00000  0.14396
      10     H     0.42511  0.42511  0.00000  0.14978

   Total alpha = 16.00000, Total beta = 16.00000, Total charge =  0.00000
