  ==> Input File <==

--------------------------------------------------------------------------
set {
	reference rhf
	basis 6-31G*
}

set_num_threads( 4 )
memory 2 gb

molecule MOL {
0 1

H	 0.000000	 0.069849	 2.128177
C	 0.000000	 -0.484033	 1.211606
C	 0.000000	 -1.867295	 1.203612
C	 0.000000	 0.183220	 0.000000
H	 0.000000	 -2.404452	 2.133896
C	 0.000000	 -2.555744	 0.000000
N	 0.000000	 1.642018	 0.000000
C	 -0.000000	 -0.484034	 -1.211606
H	 0.000000	 -3.630640	 0.000000
C	 -0.000000	 -1.867295	 -1.203612
O	 1.057097	 2.196749	 0.000000
O	 -1.057097	 2.196749	 0.000000
H	 -0.000000	 0.069849	 -2.128177
H	 -0.000000	 -2.404452	 -2.133896

	symmetry c1
}
set optking {
	frozen_dihedral = ("
		2 4 7 11
	")
}

ee = optimize('scf')
oeprop('DIPOLE', 'QUADRUPOLE', 'MULLIKEN_CHARGES')
f=open( 'psi4out.xyz', 'w' )
f.write( "14  " )
f.write( str(ee) + "\n" )
f.write( MOL.save_string_xyz() )
f.close()
--------------------------------------------------------------------------

    Molecular point group: c1
  Charge       = 0
  Multiplicity = 1
  Basis Set: 6-31G*
  Basis Set:
  @DF-RHF Final Energy:  -434.16203496081329
    Total Energy =                       -434.1620349608132301
    Molecular point group: c1
  Basis Set: 6-31G*
  Basis Set:
  Basis Set: 6-31G*
  Basis Set:
  @DF-RHF Final Energy:  -434.16222635746095
    Total Energy =                       -434.1622263574606677
  Basis Set: 6-31G*
  Basis Set:
  Basis Set: 6-31G*
  Basis Set:
  @DF-RHF Final Energy:  -434.16227182665324
    Total Energy =                       -434.1622718266535230
  Basis Set: 6-31G*
  Basis Set:
  Charge       = 0
  Multiplicity = 1
  Basis Set: 6-31G*
  Basis Set:

    Orbital Energies (a.u.)
    -----------------------

    Doubly Occupied:

       1A    -20.607388     2A    -20.607331     3A    -15.855915
       4A    -11.309935     5A    -11.270860     6A    -11.270827
       7A    -11.263932     8A    -11.263632     9A    -11.261154
      10A     -1.638914    11A     -1.422937    12A     -1.203160
      13A     -1.094686    14A     -1.054305    15A     -0.957152
      16A     -0.872388    17A     -0.827630    18A     -0.781019
      19A     -0.734117    20A     -0.731537    21A     -0.715937
      22A     -0.648782    23A     -0.646805    24A     -0.623927
      25A     -0.559536    26A     -0.547971    27A     -0.531956
      28A     -0.495538    29A     -0.482097    30A     -0.452693
      31A     -0.367597    32A     -0.366765

  @DF-RHF Final Energy:  -434.16227256305365

   => Energetics <=

    Nuclear Repulsion Energy =            416.0878691022869589
    One-Electron Energy =               -1415.5634416179325399
    Two-Electron Energy =                 565.3132999525921605
    DFT Exchange-Correlation Energy =       0.0000000000000000
    Empirical Dispersion Energy =           0.0000000000000000
    PCM Polarization Energy =               0.0000000000000000
    EFP Energy =                            0.0000000000000000
    Total Energy =                       -434.1622725630534205
    Molecular point group: c1
  Basis Set: 6-31G*
  Basis Set:

  -Total Gradient:
     Atom            X                  Y                   Z
    ------   -----------------  -----------------  -----------------
       1        0.000015318289    -0.000001534069     0.000000137952
       2        0.000010024515    -0.000026417659     0.000000166395
       3       -0.000002222680    -0.000035566655    -0.000000244061
       4       -0.000056791913    -0.000010105642     0.000001181451
       5       -0.000000037658    -0.000010082375    -0.000000045602
       6        0.000012105331    -0.000000541608     0.000000078548
       7       -0.000018171469     0.000029319942    -0.000000349441
       8        0.000008426306     0.000028473854    -0.000000870047
       9       -0.000011167359    -0.000000015732    -0.000000011469
      10       -0.000003423017     0.000034986819     0.000000132199
      11        0.000015522892    -0.000010571053     0.000028052835
      12        0.000015416555    -0.000009506865    -0.000028118979
      13        0.000015224390     0.000001392301    -0.000000163017
      14       -0.000000224179     0.000010168741     0.000000053238

  **** Optimization is complete! (in 4 steps) ****
    Final optimized geometry and variables:
    Molecular point group: c1

    Geometry (in Angstrom), charge = 0, multiplicity = 1:

    H           -0.073984138053    -2.131816928116    -0.000011578779
    C            0.477939332907    -1.210499366456    -0.000005351595
    C            1.862936767557    -1.202210501261    -0.000007465573
    C           -0.180360456091     0.000021024810     0.000005863486
    H            2.399100717376    -2.133189822124    -0.000014884421
    C            2.552738361380     0.000003539358    -0.000000651816
    N           -1.643946687883     0.000030947268    -0.000000245567
    C            0.477954661730     1.210533097511     0.000008462529
    H            3.627345139107    -0.000003214741    -0.000002515751
    C            1.862951872152     1.202226395385     0.000006637149
    O           -2.187325371262     0.000022397153     1.060626052835
    O           -2.187316573338    -0.000108082691    -1.060631059584
    H           -0.073957107625     2.131857636419     0.000012507761
    H            2.399127700632     2.133198868208     0.000010111996

  Mulliken Charges: (a.u.)
   Center  Symbol    Alpha    Beta     Spin     Total
       1     H     0.37703  0.37703  0.00000  0.24595
       2     C     3.08867  3.08867  0.00000 -0.17734
       3     C     3.10278  3.10278  0.00000 -0.20557
       4     C     2.89580  2.89580  0.00000  0.20840
       5     H     0.38859  0.38859  0.00000  0.22281
       6     C     3.09400  3.09400  0.00000 -0.18800
       7     N     3.25712  3.25712  0.00000  0.48575
       8     C     3.08868  3.08868  0.00000 -0.17735
       9     H     0.39029  0.39029  0.00000  0.21942
      10     C     3.10278  3.10278  0.00000 -0.20557
      11     O     4.22432  4.22432  0.00000 -0.44863
      12     O     4.22432  4.22432  0.00000 -0.44863
      13     H     0.37703  0.37703  0.00000  0.24595
      14     H     0.38859  0.38859  0.00000  0.22281

   Total alpha = 32.00000, Total beta = 32.00000, Total charge =  0.00000
