                              Psi4 1.0.54 Driver

  ==> Input File <==

--------------------------------------------------------------------------
set {
	reference rhf
	basis cc-pvtz
}

set_num_threads( 4 )
memory 2 gb

molecule MOL {
0 1

H	 -0.939693	 0.000281	 1.681345
O	 -0.046262	 -0.000157	 1.387678
C	 -0.000837	 0.000006	 -0.025491
C	 0.940884	 1.102155	 -0.506717
C	 0.466718	 -1.366662	 -0.522236
C	 -1.428783	 0.277101	 -0.475353
H	 0.968625	 1.150490	 -1.589162
H	 1.953250	 0.923143	 -0.157230
H	 0.618402	 2.063484	 -0.126827
H	 0.477041	 -1.408716	 -1.605247
H	 1.472585	 -1.579644	 -0.173030
H	 -0.189786	 -2.144681	 -0.153245
H	 -1.496388	 0.296846	 -1.556708
H	 -1.764067	 1.232033	 -0.090775
H	 -2.094883	 -0.490223	 -0.101537

	symmetry c1
}
set optking {
	frozen_dihedral = ("
		4 3 2 1
	")
}

ee,wfn = optimize('scf', return_wfn=True)
oeprop( wfn, 'DIPOLE', 'QUADRUPOLE', 'MULLIKEN_CHARGES')
f=open( 'psi4out.xyz', 'w' )
f.write( "15  " )
f.write( str(ee) + "\n" )
f.write( MOL.save_string_xyz() )
f.close()
--------------------------------------------------------------------------

    Molecular point group: c1
  Charge       = 0
  Multiplicity = 1
  Basis Set: CC-PVTZ
  Basis Set:
  @DF-RHF Final Energy:  -232.24294767093684
    Total Energy =                       -232.2429476709368714
    Molecular point group: c1
  Basis Set: CC-PVTZ
  Basis Set:
  Basis Set: CC-PVTZ
  Basis Set:
  @DF-RHF Final Energy:  -232.21512140911665
    Total Energy =                       -232.2151214091166480
  Basis Set: CC-PVTZ
  Basis Set:
  Basis Set: CC-PVTZ
  Basis Set:
  @DF-RHF Final Energy:  -232.24396800962438
    Total Energy =                       -232.2439680096246093
  Basis Set: CC-PVTZ
  Basis Set:
  Basis Set: CC-PVTZ
  Basis Set:
  @DF-RHF Final Energy:  -232.24484068968803
    Total Energy =                       -232.2448406896879192
  Basis Set: CC-PVTZ
  Basis Set:
  Basis Set: CC-PVTZ
  Basis Set:
  @DF-RHF Final Energy:  -232.24484603909170
    Total Energy =                       -232.2448460390914988
  Basis Set: CC-PVTZ
  Basis Set:
  Basis Set: CC-PVTZ
  Basis Set:
  @DF-RHF Final Energy:  -232.24485339102444
    Total Energy =                       -232.2448533910244350
  Basis Set: CC-PVTZ
  Basis Set:
  Charge       = 0
  Multiplicity = 1
  Basis Set: CC-PVTZ
  Basis Set:

    Orbital Energies (a.u.)
    -----------------------

    Doubly Occupied:

       1A    -20.540331     2A    -11.281136     3A    -11.216101
       4A    -11.203710     5A    -11.203302     6A     -1.362885
       7A     -1.065725     8A     -0.946127     9A     -0.936854
      10A     -0.778608    11A     -0.671861    12A     -0.624576
      13A     -0.622892    14A     -0.576401    15A     -0.557468
      16A     -0.534659    17A     -0.517069    18A     -0.511326
      19A     -0.503346    20A     -0.458068    21A     -0.426759

  @DF-RHF Final Energy:  -232.24485525628052

   => Energetics <=

    Nuclear Repulsion Energy =            200.5772461688397925
    One-Electron Energy =                -712.5657916746424689
    Two-Electron Energy =                 279.7436902495220465
    DFT Exchange-Correlation Energy =       0.0000000000000000
    Empirical Dispersion Energy =           0.0000000000000000
    PCM Polarization Energy =               0.0000000000000000
    EFP Energy =                            0.0000000000000000
    Total Energy =                       -232.2448552562806299
    Molecular point group: c1
  Basis Set: CC-PVTZ
  Basis Set:

  -Total Gradient:
     Atom            X                  Y                   Z
    ------   -----------------  -----------------  -----------------
       1        0.000066143471     0.000897228729     0.000294543573
       2       -0.000199600005    -0.000952831790    -0.000394427342
       3        0.000548821186    -0.000333421604     0.000013293245
       4       -0.000412235219     0.000392586508     0.000096825430
       5       -0.000000235272     0.000000100165    -0.000000360453
       6       -0.000035353139     0.000015002632     0.000004274288
       7        0.000000839467     0.000004988743    -0.000000598770
       8        0.000012002231     0.000003615818     0.000001131968
       9        0.000008577305     0.000001159485    -0.000001324338
      10        0.000003906698    -0.000005683374    -0.000006491967
      11        0.000003872334    -0.000009733890    -0.000002139355
      12       -0.000000260094    -0.000003771884    -0.000001829359
      13        0.000011225876     0.000003742995    -0.000013857801
      14       -0.000002197307    -0.000003614830     0.000007742464
      15       -0.000005507530    -0.000009367704     0.000003218418

  **** Optimization is complete! (in 7 steps) ****
    Final optimized geometry and variables:
    Molecular point group: c1

    Geometry (in Angstrom), charge = 0, multiplicity = 1:

    H           -1.054544205564    -0.441484000167     1.561602262691
    O           -0.149276024373    -0.433383367517     1.315070328548
    C            0.005530731082     0.005470483339    -0.024112601303
    C            1.070964965555     1.096371239746    -0.011376965341
    C            0.462528267563    -1.186957046218    -0.859805538006
    C           -1.317898514104     0.555712972036    -0.548572275063
    H            1.283265657669     1.448762993869    -1.014474139780
    H            1.988216068213     0.714336328925     0.419129151293
    H            0.743287553686     1.936593021062     0.588438706662
    H            0.644714201603    -0.900021820662    -1.889531155960
    H            1.376918708756    -1.597780056314    -0.450567642134
    H           -0.289488382434    -1.967322223183    -0.849457071351
    H           -1.215917888491     0.907904212782    -1.567519072627
    H           -1.655327571980     1.386376541535     0.061843717501
    H           -2.084908159608    -0.212582041224    -0.538703661150

  Mulliken Charges: (a.u.)
   Center  Symbol    Alpha    Beta     Spin     Total
       1     H     0.39193  0.39193  0.00000  0.21615
       2     O     4.21522  4.21522  0.00000 -0.43043
       3     C     2.88040  2.88040  0.00000  0.23920
       4     C     3.13949  3.13949  0.00000 -0.27898
       5     C     3.14031  3.14031  0.00000 -0.28062
       6     C     3.16286  3.16286  0.00000 -0.32572
       7     H     0.45960  0.45960  0.00000  0.08080
       8     H     0.44765  0.44765  0.00000  0.10470
       9     H     0.45287  0.45287  0.00000  0.09426
      10     H     0.45926  0.45926  0.00000  0.08148
      11     H     0.44814  0.44814  0.00000  0.10372
      12     H     0.45427  0.45427  0.00000  0.09147
      13     H     0.45048  0.45048  0.00000  0.09905
      14     H     0.44705  0.44705  0.00000  0.10591
      15     H     0.45049  0.45049  0.00000  0.09902

   Total alpha = 21.00000, Total beta = 21.00000, Total charge =  0.00000

*** Psi4 exiting successfully. Buy a developer a beer!
