                              Psi4 1.0.54 Driver

  ==> Input File <==

--------------------------------------------------------------------------
set {
	reference rhf
	basis cc-pvtz
}

set_num_threads( 4 )
memory 2 gb

molecule MOL {
0 1

H	 -2.910545	 0.722731	 1.174626
O	 -2.100774	 0.237882	 1.228575
C	 -1.605397	 0.107680	 0.001145
C	 -0.310616	 -0.658853	 0.000791
O	 -2.151548	 0.553336	 -0.948107
C	 0.926581	 0.227233	 0.000178
H	 -0.327628	 -1.313681	 -0.864448
H	 -0.327041	 -1.313334	 0.866298
C	 2.220156	 -0.582071	 -0.000088
H	 0.899945	 0.878221	 -0.866390
H	 0.900542	 0.878581	 0.866486
C	 3.466689	 0.296012	 -0.000457
H	 2.239073	 -1.234095	 -0.869382
H	 2.239505	 -1.233985	 0.869270
H	 3.493549	 0.935857	 -0.875887
H	 4.368821	 -0.304526	 -0.001199
H	 3.494559	 0.935166	 0.875458

	symmetry c1
}
set optking {
	frozen_dihedral = ("
		2 3 4 7
	")
}

ee,wfn = optimize('scf', return_wfn=True)
oeprop( wfn, 'DIPOLE', 'QUADRUPOLE', 'MULLIKEN_CHARGES')
f=open( 'psi4out.xyz', 'w' )
f.write( "17  " )
f.write( str(ee) + "\n" )
f.write( MOL.save_string_xyz() )
f.close()
--------------------------------------------------------------------------

    Molecular point group: c1
  Charge       = 0
  Multiplicity = 1
  Basis Set: CC-PVTZ
  Basis Set:
  @DF-RHF Final Energy:  -345.04663876413451
    Total Energy =                       -345.0466387641342862
    Molecular point group: c1
  Basis Set: CC-PVTZ
  Basis Set:
  Basis Set: CC-PVTZ
  Basis Set:
  @DF-RHF Final Energy:  -345.04723057861457
    Total Energy =                       -345.0472305786148013
  Basis Set: CC-PVTZ
  Basis Set:
  Basis Set: CC-PVTZ
  Basis Set:
  @DF-RHF Final Energy:  -345.04617947560530
    Total Energy =                       -345.0461794756051290
  Basis Set: CC-PVTZ
  Basis Set:
  Basis Set: CC-PVTZ
  Basis Set:
  @DF-RHF Final Energy:  -345.04740500925158
    Total Energy =                       -345.0474050092516336
  Basis Set: CC-PVTZ
  Basis Set:
  Basis Set: CC-PVTZ
  Basis Set:
  @DF-RHF Final Energy:  -345.04741727393173
    Total Energy =                       -345.0474172739317851
  Basis Set: CC-PVTZ
  Basis Set:
  Charge       = 0
  Multiplicity = 1
  Basis Set: CC-PVTZ
  Basis Set:

    Orbital Energies (a.u.)
    -----------------------

    Doubly Occupied:

       1A    -20.605667     2A    -20.537739     3A    -11.372540
       4A    -11.237385     5A    -11.230667     6A    -11.224323
       7A    -11.213766     8A     -1.477431     9A     -1.367732
      10A     -1.095964    11A     -1.020735    12A     -0.912829
      13A     -0.825669    14A     -0.804007    15A     -0.705934
      16A     -0.685938    17A     -0.654349    18A     -0.641888
      19A     -0.591051    20A     -0.586052    21A     -0.582300
      22A     -0.539284    23A     -0.516931    24A     -0.494497
      25A     -0.484900    26A     -0.479531    27A     -0.471889
      28A     -0.439691

  @DF-RHF Final Energy:  -345.04741773838668

   => Energetics <=

    Nuclear Repulsion Energy =            305.2489529855588444
    One-Electron Energy =               -1074.9913620681095381
    Two-Electron Energy =                 424.6949913441638955
    DFT Exchange-Correlation Energy =       0.0000000000000000
    Empirical Dispersion Energy =           0.0000000000000000
    PCM Polarization Energy =               0.0000000000000000
    EFP Energy =                            0.0000000000000000
    Total Energy =                       -345.0474177383867982
    Molecular point group: c1
  Basis Set: CC-PVTZ
  Basis Set:

  -Total Gradient:
     Atom            X                  Y                   Z
    ------   -----------------  -----------------  -----------------
       1       -0.000024962073    -0.000001629421     0.000001505103
       2       -0.000130043745    -0.000304890701    -0.000122224362
       3        0.000164347621     0.000333467177     0.000265885160
       4        0.000169362161     0.000313341993    -0.000316467033
       5        0.000029502690    -0.000003123098    -0.000049317546
       6       -0.000019680866    -0.000006721212     0.000007549434
       7       -0.000206458758    -0.000306202826     0.000221469618
       8        0.000006623070    -0.000012622393     0.000003186756
       9        0.000009163271    -0.000000646104    -0.000019850947
      10       -0.000001124424    -0.000008671196     0.000000822812
      11       -0.000001657605     0.000001978060    -0.000003861451
      12        0.000001888592    -0.000010274891     0.000013905480
      13        0.000002717744     0.000003884512     0.000001807362
      14        0.000002764256     0.000006941547    -0.000007879434
      15       -0.000005764757    -0.000009313226     0.000002357755
      16        0.000004611346     0.000003099044     0.000003737811
      17       -0.000001288524     0.000001382735    -0.000002626520

  **** Optimization is complete! (in 6 steps) ****
    Final optimized geometry and variables:
    Molecular point group: c1

    Geometry (in Angstrom), charge = 0, multiplicity = 1:

    H           -2.951557461695     0.791091566132     1.000691084683
    O           -2.196112952600     0.230567504449     1.098388234896
    C           -1.614154092968     0.100977180123    -0.089201286534
    C           -0.367274955978    -0.740093055942    -0.043852633858
    O           -2.042106240433     0.623808541099    -1.060580565089
    C            0.886600143087     0.141342932362    -0.017570957346
    H           -0.365783315884    -1.359321522615    -0.931055444778
    H           -0.395334451462    -1.380963245309     0.826728481466
    C            2.172816658093    -0.678746623188    -0.002341384999
    H            0.876562897198     0.792398676942    -0.884644721524
    H            0.856012921709     0.782676992044     0.858412121651
    C            3.426464091677     0.188752333291     0.023192240485
    H            2.196622919642    -1.322719816442    -0.876795309373
    H            2.170616480326    -1.336081287616     0.862513337061
    H            3.473178614274     0.833896871158    -0.847423802891
    H            4.322587533597    -0.420438352534     0.032377823049
    H            3.446971636204     0.821067496868     0.904358325030

  Mulliken Charges: (a.u.)
   Center  Symbol    Alpha    Beta     Spin     Total
       1     H     0.38029  0.38029  0.00000  0.23942
       2     O     4.16200  4.16200  0.00000 -0.32400
       3     C     2.80548  2.80548  0.00000  0.38905
       4     C     3.08708  3.08708  0.00000 -0.17416
       5     O     4.19978  4.19978  0.00000 -0.39955
       6     C     3.09834  3.09834  0.00000 -0.19669
       7     H     0.43936  0.43936  0.00000  0.12127
       8     H     0.44102  0.44102  0.00000  0.11796
       9     C     3.08753  3.08753  0.00000 -0.17507
      10     H     0.44139  0.44139  0.00000  0.11721
      11     H     0.44844  0.44844  0.00000  0.10311
      12     C     3.14932  3.14932  0.00000 -0.29864
      13     H     0.45229  0.45229  0.00000  0.09541
      14     H     0.45315  0.45315  0.00000  0.09369
      15     H     0.45305  0.45305  0.00000  0.09389
      16     H     0.44724  0.44724  0.00000  0.10552
      17     H     0.45422  0.45422  0.00000  0.09156

   Total alpha = 28.00000, Total beta = 28.00000, Total charge = -0.00000

*** Psi4 exiting successfully. Buy a developer a beer!
