  ==> Input File <==

--------------------------------------------------------------------------
set {
	reference rhf
	basis cc-pvtz
}

set_num_threads( 4 )
memory 2 gb

molecule MOL {
0 1

H	 -3.162190	 0.493205	 -0.000107
C	 -2.363908	 -0.234727	 0.000005
O	 -1.158738	 0.454634	 -0.000087
H	 -2.464314	 -0.863616	 -0.882153
H	 -2.464327	 -0.863359	 0.882345
C	 -0.028611	 -0.359694	 0.000037
C	 0.104884	 -1.028527	 -1.353194
H	 -0.110136	 -1.112241	 0.784680
H	 0.860092	 0.234157	 0.214954
C	 1.323603	 -1.940958	 -1.434084
H	 -0.799105	 -1.594382	 -1.549508
H	 0.163462	 -0.258690	 -2.114686
H	 1.273419	 -2.734107	 -0.695516
H	 1.394473	 -2.405186	 -2.410041
H	 2.242426	 -1.389446	 -1.264772

	symmetry c1
}
set optking {
	frozen_dihedral = ("
		8 6 3 2
	")
}

ee = optimize('scf')
oeprop('DIPOLE', 'QUADRUPOLE', 'MULLIKEN_CHARGES')
f=open( 'psi4out.xyz', 'w' )
f.write( "15  " )
f.write( str(ee) + "\n" )
f.write( MOL.save_string_xyz() )
f.close()
--------------------------------------------------------------------------

    Molecular point group: c1
  Charge       = 0
  Multiplicity = 1
  Basis Set: CC-PVTZ
  Basis Set:
  @DF-RHF Final Energy:  -232.22171599864768
    Total Energy =                       -232.2217159986475963
    Molecular point group: c1
  Basis Set: CC-PVTZ
  Basis Set:
  Basis Set: CC-PVTZ
  Basis Set:
  @DF-RHF Final Energy:  -232.22319103148746
    Total Energy =                       -232.2231910314873176
  Basis Set: CC-PVTZ
  Basis Set:
  Basis Set: CC-PVTZ
  Basis Set:
  @DF-RHF Final Energy:  -232.22506907004743
    Total Energy =                       -232.2250690700475388
  Basis Set: CC-PVTZ
  Basis Set:
  Basis Set: CC-PVTZ
  Basis Set:
  @DF-RHF Final Energy:  -232.22523519314743
    Total Energy =                       -232.2252351931475687
  Basis Set: CC-PVTZ
  Basis Set:
  Basis Set: CC-PVTZ
  Basis Set:
  @DF-RHF Final Energy:  -232.22524979687574
    Total Energy =                       -232.2252497968757439
  Basis Set: CC-PVTZ
  Basis Set:
  Charge       = 0
  Multiplicity = 1
  Basis Set: CC-PVTZ
  Basis Set:

    Orbital Energies (a.u.)
    -----------------------

    Doubly Occupied:

       1A    -20.545930     2A    -11.264275     3A    -11.260967
       4A    -11.215232     5A    -11.212904     6A     -1.378184
       7A     -1.057604     8A     -0.960147     9A     -0.883095
      10A     -0.805260    11A     -0.671028    12A     -0.659111
      13A     -0.636347    14A     -0.602962    15A     -0.565780
      16A     -0.532016    17A     -0.521292    18A     -0.498281
      19A     -0.484800    20A     -0.457212    21A     -0.409411

  @DF-RHF Final Energy:  -232.22525054200742

   => Energetics <=

    Nuclear Repulsion Energy =            191.7668949753646643
    One-Electron Energy =                -694.7406143802984388
    Two-Electron Energy =                 270.7484688629262450
    DFT Exchange-Correlation Energy =       0.0000000000000000
    Empirical Dispersion Energy =           0.0000000000000000
    PCM Polarization Energy =               0.0000000000000000
    EFP Energy =                            0.0000000000000000
    Total Energy =                       -232.2252505420075295
    Molecular point group: c1
  Basis Set: CC-PVTZ
  Basis Set:

  -Total Gradient:
     Atom            X                  Y                   Z
    ------   -----------------  -----------------  -----------------
       1       -0.000007241213    -0.000002904624    -0.000010598879
       2       -0.000033309443     0.000009176423    -0.000510282847
       3        0.000123659963     0.000066525715     0.000852683203
       4        0.000006581085    -0.000001287934     0.000004555559
       5       -0.000001424163    -0.000000487181     0.000005778625
       6       -0.000387768916    -0.000436133975    -0.000746247513
       7       -0.000035860838    -0.000025708775     0.000004726564
       8        0.000304391650     0.000383747917     0.000384743353
       9        0.000024286470    -0.000005369133     0.000017417133
      10        0.000016412266     0.000017109391    -0.000000007190
      11       -0.000004765045    -0.000005027755    -0.000013114892
      12        0.000003325175    -0.000002960400     0.000003536094
      13       -0.000008601671    -0.000002649162     0.000000819012
      14       -0.000006334402     0.000009283781     0.000002671900
      15        0.000006649082    -0.000003314287     0.000003319877

  **** Optimization is complete! (in 6 steps) ****
    Final optimized geometry and variables:
    Molecular point group: c1

    Geometry (in Angstrom), charge = 0, multiplicity = 1:

    H           -2.702391218995     1.252423568660     0.768273751637
    C           -1.973894273225     0.471514570871     0.603639479859
    O           -0.721928460873     1.073079972820     0.547089385100
    H           -2.227405698498    -0.044294572339    -0.317425010478
    H           -2.035386963704    -0.239363157450     1.425271626206
    C            0.375060665676     0.211363710989     0.502505347982
    C            0.577750527047    -0.471166941768    -0.843418803477
    H            0.295953141987    -0.533885014132     1.294073250513
    H            1.239925355877     0.823651191455     0.726292383026
    C            1.859222012872    -1.298146330913    -0.872057640049
    H           -0.267392386356    -1.112132473027    -1.069893859574
    H            0.609228658064     0.291961276755    -1.614060379536
    H            1.841562764585    -2.078929000628    -0.118787755554
    H            1.993226214146    -1.774448002537    -1.835587136001
    H            2.730632016651    -0.679546388669    -0.685655265230

  Mulliken Charges: (a.u.)
   Center  Symbol    Alpha    Beta     Spin     Total
       1     H     0.44478  0.44478  0.00000  0.11045
       2     C     3.03431  3.03431  0.00000 -0.06862
       3     O     4.17688  4.17688  0.00000 -0.35376
       4     H     0.47015  0.47015  0.00000  0.05970
       5     H     0.47265  0.47265  0.00000  0.05470
       6     C     2.97677  2.97677  0.00000  0.04646
       7     C     3.08826  3.08826  0.00000 -0.17651
       8     H     0.47194  0.47194  0.00000  0.05612
       9     H     0.44911  0.44911  0.00000  0.10179
      10     C     3.15276  3.15276  0.00000 -0.30553
      11     H     0.45666  0.45666  0.00000  0.08669
      12     H     0.45009  0.45009  0.00000  0.09983
      13     H     0.45532  0.45532  0.00000  0.08936
      14     H     0.44671  0.44671  0.00000  0.10659
      15     H     0.45363  0.45363  0.00000  0.09274

   Total alpha = 21.00000, Total beta = 21.00000, Total charge = -0.00000
