                              Psi4 1.0.54 Driver

  ==> Input File <==

--------------------------------------------------------------------------
set {
	reference rhf
	basis cc-pvtz
}

set_num_threads( 4 )
memory 2 gb

molecule MOL {
0 1

O	 -2.787056	 0.277867	 0.735007
C	 -1.922978	 0.063265	 -0.045005
C	 -2.141282	 -0.344131	 -1.474979
O	 -0.637375	 0.157174	 0.243149
H	 -1.672383	 -1.302941	 -1.655356
H	 -3.198435	 -0.404573	 -1.676007
H	 -1.676692	 0.378004	 -2.133952
C	 0.162530	 -1.009518	 0.097799
C	 1.587210	 -0.664190	 0.477086
H	 0.096803	 -1.356267	 -0.924704
H	 -0.233803	 -1.785900	 0.736810
C	 2.256770	 0.342732	 -0.454344
H	 2.154716	 -1.590834	 0.479041
H	 1.598751	 -0.289614	 1.496104
C	 3.698146	 0.643205	 -0.057145
H	 2.235038	 -0.042575	 -1.470299
H	 1.683491	 1.262594	 -0.461300
H	 4.150202	 1.356548	 -0.736242
H	 4.305463	 -0.255904	 -0.069842
H	 3.749130	 1.061068	 0.942759

	symmetry c1
}
set optking {
	frozen_dihedral = ("
		1 2 4 8
	")
}

ee,wfn = optimize('scf', return_wfn=True)
oeprop( wfn, 'DIPOLE', 'QUADRUPOLE', 'MULLIKEN_CHARGES')
f=open( 'psi4out.xyz', 'w' )
f.write( "20  " )
f.write( str(ee) + "\n" )
f.write( MOL.save_string_xyz() )
f.close()
--------------------------------------------------------------------------

    Molecular point group: c1
  Charge       = 0
  Multiplicity = 1
  Basis Set: CC-PVTZ
  Basis Set:
  @DF-RHF Final Energy:  -384.06481284905686
    Total Energy =                       -384.0648128490573754
    Molecular point group: c1
  Basis Set: CC-PVTZ
  Basis Set:
  Basis Set: CC-PVTZ
  Basis Set:
  @DF-RHF Final Energy:  -384.00581883590911
    Total Energy =                       -384.0058188359092810
  Basis Set: CC-PVTZ
  Basis Set:
  Basis Set: CC-PVTZ
  Basis Set:
  @DF-RHF Final Energy:  -384.01330162442741
    Total Energy =                       -384.0133016244274131
  Basis Set: CC-PVTZ
  Basis Set:
  Basis Set: CC-PVTZ
  Basis Set:
  @DF-RHF Final Energy:  -384.03423955049442
    Total Energy =                       -384.0342395504947604
  Basis Set: CC-PVTZ
  Basis Set:
  @DF-RHF Final Energy:  -384.06633967602755
    Total Energy =                       -384.0663396760274964
  @DF-RHF Final Energy:  -384.06763934988413
    Total Energy =                       -384.0676393498838479
  @DF-RHF Final Energy:  -384.06676185223347
    Total Energy =                       -384.0667618522334124
  @DF-RHF Final Energy:  -384.06876403440009
    Total Energy =                       -384.0687640344001466
  @DF-RHF Final Energy:  -384.06895201278326
    Total Energy =                       -384.0689520127828018
  @DF-RHF Final Energy:  -384.06897412385621
    Total Energy =                       -384.0689741238556962
  Basis Set: CC-PVTZ
  Basis Set:
  @DF-RHF Final Energy:  -384.06898988384563
    Total Energy =                       -384.0689898838455747
  Basis Set: CC-PVTZ
  Basis Set:
  Basis Set: CC-PVTZ
  Basis Set:
  @DF-RHF Final Energy:  -384.06900739292712
    Total Energy =                       -384.0690073929273467
  Basis Set: CC-PVTZ
  Basis Set:
  Basis Set: CC-PVTZ
  Basis Set:
  @DF-RHF Final Energy:  -384.06901357232198
    Total Energy =                       -384.0690135723219782
  Basis Set: CC-PVTZ
  Basis Set:
  Charge       = 0
  Multiplicity = 1
  Basis Set: CC-PVTZ
  Basis Set:

    Orbital Energies (a.u.)
    -----------------------

    Doubly Occupied:

       1A    -20.580258     2A    -20.540035     3A    -11.369388
       4A    -11.293535     5A    -11.237706     6A    -11.226911
       7A    -11.220456     8A    -11.212355     9A     -1.461568
      10A     -1.369714    11A     -1.086726    12A     -1.020549
      13A     -0.995616    14A     -0.886228    15A     -0.813921
      16A     -0.779042    17A     -0.697119    18A     -0.689353
      19A     -0.660484    20A     -0.634182    21A     -0.617743
      22A     -0.592583    23A     -0.581998    24A     -0.554416
      25A     -0.553604    26A     -0.536671    27A     -0.497544
      28A     -0.490674    29A     -0.479226    30A     -0.475860
      31A     -0.452312    32A     -0.438258

  @DF-RHF Final Energy:  -384.06901440198681

   => Energetics <=

    Nuclear Repulsion Energy =            384.8480580522808623
    One-Electron Energy =               -1285.7420742187796350
    Two-Electron Energy =                 516.8250017645119669
    DFT Exchange-Correlation Energy =       0.0000000000000000
    Empirical Dispersion Energy =           0.0000000000000000
    PCM Polarization Energy =               0.0000000000000000
    EFP Energy =                            0.0000000000000000
    Total Energy =                       -384.0690144019868058
    Molecular point group: c1
  Basis Set: CC-PVTZ
  Basis Set:

  -Total Gradient:
     Atom            X                  Y                   Z
    ------   -----------------  -----------------  -----------------
       1       -0.000880308885    -0.002953192261    -0.001074571011
       2        0.000723343093     0.003361611266     0.002441244374
       3        0.000020198835    -0.000018878120     0.000000193204
       4        0.001111616174     0.001390179971    -0.003090093730
       5       -0.000015148281    -0.000016362689    -0.000003532125
       6       -0.000046916690     0.000019782901    -0.000000433793
       7        0.000025716659     0.000018154386     0.000007276173
       8       -0.000926736257    -0.001821067887     0.001699920714
       9       -0.000003457103     0.000000678047    -0.000030945575
      10        0.000011237390    -0.000011637802     0.000012594157
      11       -0.000006534693     0.000009250942     0.000005346231
      12       -0.000010013769     0.000013692949     0.000034288797
      13       -0.000014313382    -0.000011468161     0.000002539973
      14        0.000002926654     0.000010949020    -0.000005022942
      15        0.000007355197    -0.000001504998    -0.000010771365
      16       -0.000002819677    -0.000010120636     0.000011371254
      17        0.000005925773     0.000016306649     0.000004903757
      18        0.000003929512    -0.000002506847    -0.000004134283
      19       -0.000002151066    -0.000000599778     0.000003312332
      20       -0.000003849489     0.000006733049    -0.000003486144

  **** Optimization is complete! (in 14 steps) ****
    Final optimized geometry and variables:
    Molecular point group: c1

    Geometry (in Angstrom), charge = 0, multiplicity = 1:

    O           -2.644214903990     0.617564996553     0.912886696450
    C           -1.832058505068     0.681397334063     0.064253598275
    C           -2.097077789713     1.274324069520    -1.296131118677
    O           -0.582772341183     0.239276690270     0.276133883963
    H           -2.158591538999     0.486706079629    -2.037756472782
    H           -3.035268363225     1.804517652009    -1.273835881428
    H           -1.292988704322     1.939758481145    -1.581610204776
    C           -0.066619411970    -0.800585453545    -0.535787353880
    C            1.265819679190    -1.241635292342     0.033360910397
    H            0.055326517598    -0.453110172951    -1.556572054215
    H           -0.765975248525    -1.629309807415    -0.536669721560
    C            2.344742355133    -0.163241576070    -0.008048401628
    H            1.592263646374    -2.108699367691    -0.534755486432
    H            1.111179060809    -1.572082960740     1.054790324054
    C            3.674734407581    -0.643164029526     0.562933699927
    H            2.489017407127     0.159305461546    -1.036213377941
    H            2.004234313865     0.704317059670     0.544186021056
    H            4.423208267374     0.139148886687     0.518710868911
    H            4.055340995171    -1.496817425765     0.011683801394
    H            3.568885013105    -0.940767005227     1.600558719075

  Mulliken Charges: (a.u.)
   Center  Symbol    Alpha    Beta     Spin     Total
       1     O     4.17050  4.17050  0.00000 -0.34099
       2     C     2.81140  2.81140  0.00000  0.37720
       3     C     3.16177  3.16177  0.00000 -0.32354
       4     O     4.15532  4.15532  0.00000 -0.31063
       5     H     0.44784  0.44784  0.00000  0.10432
       6     H     0.43050  0.43050  0.00000  0.13901
       7     H     0.44220  0.44220  0.00000  0.11561
       8     C     2.99449  2.99449  0.00000  0.01102
       9     C     3.08360  3.08360  0.00000 -0.16721
      10     H     0.45946  0.45946  0.00000  0.08109
      11     H     0.44894  0.44894  0.00000  0.10213
      12     C     3.08668  3.08668  0.00000 -0.17336
      13     H     0.45361  0.45361  0.00000  0.09277
      14     H     0.44650  0.44650  0.00000  0.10700
      15     C     3.15021  3.15021  0.00000 -0.30042
      16     H     0.45784  0.45784  0.00000  0.08432
      17     H     0.44319  0.44319  0.00000  0.11362
      18     H     0.44719  0.44719  0.00000  0.10562
      19     H     0.45628  0.45628  0.00000  0.08744
      20     H     0.45250  0.45250  0.00000  0.09500

   Total alpha = 32.00000, Total beta = 32.00000, Total charge = -0.00000

*** Psi4 exiting successfully. Buy a developer a beer!
