                              Psi4 1.0.54 Driver

  ==> Input File <==

--------------------------------------------------------------------------
set {
	reference rhf
	basis cc-pvtz
}

set_num_threads( 4 )
memory 2 gb

molecule MOL {
0 1

H	 -3.034176	 -0.667936	 0.004703
O	 -2.240734	 -1.171836	 0.000934
C	 -1.159812	 -0.364588	 0.000370
C	 -1.263659	 1.011493	 0.006022
C	 0.086260	 -0.972289	 -0.007305
H	 -2.228614	 1.484679	 0.009968
C	 -0.107306	 1.772455	 0.002554
H	 0.132191	 -2.044102	 -0.013840
C	 1.238324	 -0.211943	 -0.008358
H	 -0.184064	 2.843379	 0.003896
C	 1.132992	 1.175459	 -0.005395
C	 2.593550	 -0.872822	 0.007308
H	 2.019837	 1.780388	 -0.010675
H	 3.271982	 -0.384842	 -0.681479
H	 2.526143	 -1.916888	 -0.266788
H	 3.034766	 -0.816081	 0.996627

	symmetry c1
}
ee,wfn = energy('scf', return_wfn=True)
oeprop( wfn, 'DIPOLE', 'QUADRUPOLE', 'MULLIKEN_CHARGES')
oeprop( wfn, 'GRID_ESP')
f=open( 'psi4out.xyz', 'w' )
f.write( "16  " )
f.write( str(ee) + "\n" )
f.write( MOL.save_string_xyz() )
f.close()
--------------------------------------------------------------------------

    Molecular point group: c1

    Geometry (in Angstrom), charge = 0, multiplicity = 1:

       Center              X                  Y                   Z               Mass
    ------------   -----------------  -----------------  -----------------  -----------------
           H         -3.034039401644    -0.667848456457     0.004702674937     1.007825032070
           O         -2.240597401644    -1.171748456457     0.000933674937    15.994914619560
           C         -1.159675401644    -0.364500456457     0.000369674937    12.000000000000
           C         -1.263522401644     1.011580543543     0.006021674937    12.000000000000
           C          0.086396598356    -0.972201456457    -0.007305325063    12.000000000000
           H         -2.228477401644     1.484766543543     0.009967674937     1.007825032070
           C         -0.107169401644     1.772542543543     0.002553674937    12.000000000000
           H          0.132327598356    -2.044014456457    -0.013840325063     1.007825032070
           C          1.238460598356    -0.211855456457    -0.008358325063    12.000000000000
           H         -0.183927401644     2.843466543543     0.003895674937     1.007825032070
           C          1.133128598356     1.175546543543    -0.005395325063    12.000000000000
           C          2.593686598356    -0.872734456457     0.007307674937    12.000000000000
           H          2.019973598356     1.780475543543    -0.010675325063     1.007825032070
           H          3.272118598356    -0.384754456457    -0.681479325063     1.007825032070
           H          2.526279598356    -1.916800456457    -0.266788325063     1.007825032070
           H          3.034902598356    -0.815993456457     0.996626674937     1.007825032070

  Charge       = 0
  Multiplicity = 1
  Basis Set: CC-PVTZ
  Basis Set:

    Orbital Energies (a.u.)
    -----------------------

    Doubly Occupied:

       1A    -20.583136     2A    -11.295273     3A    -11.240592
       4A    -11.232784     5A    -11.219753     6A    -11.218844
       7A    -11.213827     8A    -11.212721     9A     -1.413883
      10A     -1.154059    11A     -1.046227    12A     -1.008629
      13A     -0.938665    14A     -0.828816    15A     -0.826403
      16A     -0.717493    17A     -0.684667    18A     -0.657484
      19A     -0.610108    20A     -0.596103    21A     -0.573258
      22A     -0.572134    23A     -0.570742    24A     -0.534525
      25A     -0.507174    26A     -0.484461    27A     -0.472823
      28A     -0.333479    29A     -0.310157

  @DF-RHF Final Energy:  -344.72082852350945

   => Energetics <=

    Nuclear Repulsion Energy =            346.4213507651203372
    One-Electron Energy =               -1154.1673718108404501
    Two-Electron Energy =                 463.0251925222107729
    DFT Exchange-Correlation Energy =       0.0000000000000000
    Empirical Dispersion Energy =           0.0000000000000000
    PCM Polarization Energy =               0.0000000000000000
    EFP Energy =                            0.0000000000000000
    Total Energy =                       -344.7208285235093399

  Mulliken Charges: (a.u.)
   Center  Symbol    Alpha    Beta     Spin     Total
       1     H     0.38745  0.38745  0.00000  0.22509
       2     O     4.17509  4.17509  0.00000 -0.35018
       3     C     2.83535  2.83535  0.00000  0.32929
       4     C     3.14935  3.14935  0.00000 -0.29870
       5     C     3.14131  3.14131  0.00000 -0.28261
       6     H     0.43550  0.43550  0.00000  0.12900
       7     C     3.05688  3.05688  0.00000 -0.11375
       8     H     0.42226  0.42226  0.00000  0.15548
       9     C     2.93486  2.93486  0.00000  0.13028
      10     H     0.42294  0.42294  0.00000  0.15413
      11     C     3.11914  3.11914  0.00000 -0.23828
      12     C     3.14654  3.14654  0.00000 -0.29308
      13     H     0.42792  0.42792  0.00000  0.14416
      14     H     0.44834  0.44834  0.00000  0.10332
      15     H     0.45018  0.45018  0.00000  0.09964
      16     H     0.44691  0.44691  0.00000  0.10618

   Total alpha = 29.00000, Total beta = 29.00000, Total charge =  0.00000

*** Psi4 exiting successfully. Buy a developer a beer!
