  ==> Input File <==

--------------------------------------------------------------------------
set {
	reference rhf
	basis 6-31G*
}

set_num_threads( 4 )
memory 2 gb

molecule MOL {
0 1

H	 3.049719	 -0.892465	 -0.833004
N	 3.092854	 -0.246221	 -0.068770
C	 1.865559	 0.531981	 0.018834
H	 3.877339	 0.353593	 -0.240927
C	 0.645745	 -0.382037	 -0.029944
H	 1.841966	 1.207024	 -0.831236
H	 1.815756	 1.155410	 0.915079
C	 -0.679275	 0.379305	 0.025956
H	 0.698998	 -0.976915	 -0.937203
H	 0.693479	 -1.083846	 0.802235
C	 -1.903357	 -0.536963	 -0.023547
H	 -0.726309	 1.082987	 -0.803784
H	 -0.717680	 0.977832	 0.934877
C	 -3.225172	 0.228290	 0.028445
H	 -1.867824	 -1.134999	 -0.931459
H	 -1.860449	 -1.239604	 0.805977
H	 -3.313397	 0.915643	 -0.808262
H	 -4.073500	 -0.448134	 -0.008893
H	 -3.306061	 0.809945	 0.942516

	symmetry c1
}
set optking {
	frozen_dihedral = ("
		1 2 3 6
	")
}

ee = optimize('scf')
oeprop('DIPOLE', 'QUADRUPOLE', 'MULLIKEN_CHARGES')
f=open( 'psi4out.xyz', 'w' )
f.write( "19  " )
f.write( str(ee) + "\n" )
f.write( MOL.save_string_xyz() )
f.close()
--------------------------------------------------------------------------

    Molecular point group: c1
  Charge       = 0
  Multiplicity = 1
  Basis Set: 6-31G*
  Basis Set:
  @DF-RHF Final Energy:  -251.34897431780530
    Total Energy =                       -251.3489743178051867
    Molecular point group: c1
  Basis Set: 6-31G*
  Basis Set:
  Basis Set: 6-31G*
  Basis Set:
  @DF-RHF Final Energy:  -251.35106010965288
    Total Energy =                       -251.3510601096528490
  Basis Set: 6-31G*
  Basis Set:
  Basis Set: 6-31G*
  Basis Set:
  @DF-RHF Final Energy:  -251.35133799847509
    Total Energy =                       -251.3513379984750031
  Basis Set: 6-31G*
  Basis Set:
  Basis Set: 6-31G*
  Basis Set:
  @DF-RHF Final Energy:  -251.35134092194102
    Total Energy =                       -251.3513409219409596
  Basis Set: 6-31G*
  Basis Set:
  Basis Set: 6-31G*
  Basis Set:
  @DF-RHF Final Energy:  -251.35134228275538
    Total Energy =                       -251.3513422827552972
  Basis Set: 6-31G*
  Basis Set:
  Charge       = 0
  Multiplicity = 1
  Basis Set: 6-31G*
  Basis Set:

    Orbital Energies (a.u.)
    -----------------------

    Doubly Occupied:

       1A    -15.531283     2A    -11.239359     3A    -11.214779
       4A    -11.213794     5A    -11.211722     6A    -11.208065
       7A     -1.175922     8A     -1.073819     9A     -0.999026
      10A     -0.900483    11A     -0.814286    12A     -0.790800
      13A     -0.660520    14A     -0.646033    15A     -0.616277
      16A     -0.591360    17A     -0.564496    18A     -0.546639
      19A     -0.533937    20A     -0.497849    21A     -0.482997
      22A     -0.466079    23A     -0.462251    24A     -0.449288
      25A     -0.379208

  @DF-RHF Final Energy:  -251.35134273508649

   => Energetics <=

    Nuclear Repulsion Energy =            245.7340416924334079
    One-Electron Energy =                -825.6302283779950812
    Two-Electron Energy =                 328.5448439504751263
    DFT Exchange-Correlation Energy =       0.0000000000000000
    Empirical Dispersion Energy =           0.0000000000000000
    PCM Polarization Energy =               0.0000000000000000
    EFP Energy =                            0.0000000000000000
    Total Energy =                       -251.3513427350865754
    Molecular point group: c1
  Basis Set: 6-31G*
  Basis Set:

  -Total Gradient:
     Atom            X                  Y                   Z
    ------   -----------------  -----------------  -----------------
       1       -0.000870157798    -0.001334351610     0.001151306520
       2        0.001325584254     0.002064432150    -0.001123577669
       3       -0.001268414885    -0.002017776639    -0.001086004522
       4       -0.000000519972    -0.000011076132    -0.000000912071
       5        0.000025379340     0.000034975331    -0.000001652306
       6        0.000805936872     0.001254228774     0.001046842332
       7       -0.000008841174     0.000002569020     0.000015452448
       8       -0.000016725389    -0.000007053676    -0.000007821588
       9        0.000002376138     0.000013776819     0.000014539020
      10        0.000007502580     0.000004931046     0.000001303343
      11       -0.000007997208     0.000005393714    -0.000012892095
      12        0.000011215697    -0.000007360253    -0.000003112702
      13       -0.000002337066    -0.000000650299    -0.000004123448
      14       -0.000002471429    -0.000003929330     0.000015614245
      15       -0.000001047345     0.000003879830    -0.000004138563
      16        0.000001994595    -0.000003144669    -0.000004675652
      17        0.000001899578    -0.000004859322    -0.000001306364
      18       -0.000001258433     0.000000499529     0.000004850524
      19       -0.000002118354     0.000005515715     0.000000308549

  **** Optimization is complete! (in 6 steps) ****
    Final optimized geometry and variables:
    Molecular point group: c1

    Geometry (in Angstrom), charge = 0, multiplicity = 1:

    H            3.104356832239    -0.891139508442    -0.776740339757
    N            3.094531778575    -0.246801636582    -0.009523860135
    C            1.865847056891     0.532984945154    -0.006087589466
    H            3.898676702253     0.342430217850    -0.101372594602
    C            0.646231503289    -0.380945559181    -0.033966855177
    H            1.809703722476     1.249498989496    -0.829356304168
    H            1.850578666668     1.119766832483     0.908017130970
    C           -0.678111178949     0.380894774228     0.030509458957
    H            0.671151144787    -0.982148932849    -0.942583041626
    H            0.718661564674    -1.075589362928     0.798295443487
    C           -1.902439777058    -0.535882887204     0.000419398913
    H           -0.735626449736     1.081651080958    -0.800918641112
    H           -0.704068505526     0.981934528243     0.937912835802
    C           -3.223380715484     0.229285392294     0.071791705900
    H           -1.881210565455    -1.134928048367    -0.907529184703
    H           -1.846324621278    -1.237421653036     0.829794163620
    H           -3.324986029659     0.915385934721    -0.764456940400
    H           -4.072016836784    -0.447417347479     0.048963513844
    H           -3.289873024433     0.812173756361     0.986147062558

  Mulliken Charges: (a.u.)
   Center  Symbol    Alpha    Beta     Spin     Total
       1     H     0.33520  0.33520  0.00000  0.32959
       2     N     3.92427  3.92427  0.00000 -0.84855
       3     C     3.05541  3.05541  0.00000 -0.11082
       4     H     0.33226  0.33226  0.00000  0.33547
       5     C     3.15639  3.15639  0.00000 -0.31278
       6     H     0.43511  0.43511  0.00000  0.12978
       7     H     0.42075  0.42075  0.00000  0.15851
       8     C     3.15435  3.15435  0.00000 -0.30869
       9     H     0.42779  0.42779  0.00000  0.14442
      10     H     0.41272  0.41272  0.00000  0.17455
      11     C     3.15108  3.15108  0.00000 -0.30217
      12     H     0.42435  0.42435  0.00000  0.15131
      13     H     0.42281  0.42281  0.00000  0.15438
      14     C     3.23939  3.23939  0.00000 -0.47877
      15     H     0.42331  0.42331  0.00000  0.15337
      16     H     0.42182  0.42182  0.00000  0.15636
      17     H     0.42214  0.42214  0.00000  0.15571
      18     H     0.41925  0.41925  0.00000  0.16149
      19     H     0.42159  0.42159  0.00000  0.15683

   Total alpha = 25.00000, Total beta = 25.00000, Total charge = -0.00000
