  ==> Input File <==

--------------------------------------------------------------------------
set {
	reference rhf
	basis 6-31G*
}

set_num_threads( 1 )
memory 2 gb

molecule MOL {
0 1

H	 -1.746691	 -0.962672	 0.080618
O	 -2.035884	 -0.060112	 0.102722
C	 -0.955155	 0.788182	 -0.092531
C	 0.353668	 0.040312	 -0.004810
H	 -0.985057	 1.290372	 -1.054184
H	 -0.974469	 1.533190	 0.688632
F	 0.394464	 -0.937475	 -0.903053
F	 1.368604	 0.853376	 -0.249821
F	 0.546173	 -0.502608	 1.179981

	symmetry c1
}
set optking {
	frozen_dihedral = ("
		7 4 3 5
	")
}

ee = energy('scf')
oeprop('DIPOLE', 'QUADRUPOLE', 'MULLIKEN_CHARGES')
f=open( 'psi4out.xyz', 'w' )
f.write( "9  " )
f.write( str(ee) + "\n" )
f.write( MOL.save_string_xyz() )
f.close()
--------------------------------------------------------------------------

    Molecular point group: c1

    Geometry (in Angstrom), charge = 0, multiplicity = 1:

       Center              X                  Y                   Z               Mass
    ------------   -----------------  -----------------  -----------------  -----------------
           H         -1.750240903607    -0.959766365708     0.073591318405     1.007825032070
           O         -2.039433903607    -0.057206365708     0.095695318405    15.994914619560
           C         -0.958704903607     0.791087634292    -0.099557681595    12.000000000000
           C          0.350118096393     0.043217634292    -0.011836681595    12.000000000000
           H         -0.988606903607     1.293277634292    -1.061210681595     1.007825032070
           H         -0.978018903607     1.536095634292     0.681605318405     1.007825032070
           F          0.390914096393    -0.934569365708    -0.910079681595    18.998403224000
           F          1.365054096393     0.856281634292    -0.256847681595    18.998403224000
           F          0.542623096393    -0.499702365708     1.172954318405    18.998403224000

  Charge       = 0
  Multiplicity = 1
  Basis Set: 6-31G*
  Basis Set:

    Orbital Energies (a.u.)
    -----------------------

    Doubly Occupied:

       1A    -26.351642     2A    -26.351428     3A    -26.349034
       4A    -20.587012     5A    -11.509439     6A    -11.309109
       7A     -1.749122     8A     -1.647501     9A     -1.645640
      10A     -1.401539    11A     -1.050762    12A     -0.929963
      13A     -0.838523    14A     -0.837866    15A     -0.816851
      16A     -0.723077    17A     -0.720035    18A     -0.681324
      19A     -0.673129    20A     -0.670889    21A     -0.651516
      22A     -0.643955    23A     -0.623454    24A     -0.526027
      25A     -0.476370

  @DF-RHF Final Energy:  -450.65803009756394

   => Energetics <=

    Nuclear Repulsion Energy =            277.7876767657874097
    One-Electron Energy =               -1177.3610066168298545
    Two-Electron Energy =                 448.9152997534788483
    DFT Exchange-Correlation Energy =       0.0000000000000000
    Empirical Dispersion Energy =           0.0000000000000000
    PCM Polarization Energy =               0.0000000000000000
    EFP Energy =                            0.0000000000000000
    Total Energy =                       -450.6580300975635964

  Mulliken Charges: (a.u.)
   Center  Symbol    Alpha    Beta     Spin     Total
       1     H     0.27046  0.27046  0.00000  0.45908
       2     O     4.36985  4.36985  0.00000 -0.73970
       3     C     3.02337  3.02337  0.00000 -0.04674
       4     C     2.48894  2.48894  0.00000  1.02213
       5     H     0.40641  0.40641  0.00000  0.18718
       6     H     0.40264  0.40264  0.00000  0.19472
       7     F     4.68307  4.68307  0.00000 -0.36614
       8     F     4.67997  4.67997  0.00000 -0.35994
       9     F     4.67529  4.67529  0.00000 -0.35058

   Total alpha = 25.00000, Total beta = 25.00000, Total charge =  0.00000
