                              Psi4 1.0.54 Driver

  ==> Input File <==

--------------------------------------------------------------------------
set {
	reference rhf
	basis cc-pvtz
}

set_num_threads( 4 )
memory 2 gb

molecule MOL {
0 1

O	 -1.510770	 1.240811	 -0.054933
C	 -1.081510	 0.147522	 0.122720
C	 0.327029	 -0.064006	 0.641890
C	 -1.903028	 -1.084121	 -0.174656
C	 1.349460	 -0.017068	 -0.500215
H	 0.399029	 -1.014606	 1.159950
H	 0.538021	 0.726928	 1.350471
C	 2.683024	 -0.646386	 -0.113809
H	 0.949573	 -0.527743	 -1.371501
H	 1.499988	 1.016873	 -0.787676
H	 3.389739	 -0.589969	 -0.933200
H	 2.563062	 -1.691883	 0.149435
H	 3.121078	 -0.138192	 0.738082
H	 -1.341891	 -1.779207	 -0.789259
H	 -2.820449	 -0.808163	 -0.671328
H	 -2.133314	 -1.593056	 0.755831

	symmetry c1
}
set optking {
	frozen_dihedral = ("
		9 5 3 2
	")
}

ee,wfn = optimize('scf', return_wfn=True)
oeprop( wfn, 'DIPOLE', 'QUADRUPOLE', 'MULLIKEN_CHARGES')
f=open( 'psi4out.xyz', 'w' )
f.write( "16  " )
f.write( str(ee) + "\n" )
f.write( MOL.save_string_xyz() )
f.close()
--------------------------------------------------------------------------

    Molecular point group: c1
  Charge       = 0
  Multiplicity = 1
  Basis Set: CC-PVTZ
  Basis Set:
  @DF-RHF Final Energy:  -270.12814546493144
    Total Energy =                       -270.1281454649313218
    Molecular point group: c1
  Basis Set: CC-PVTZ
  Basis Set:
  Basis Set: CC-PVTZ
  Basis Set:
  @DF-RHF Final Energy:  -270.12827199378205
    Total Energy =                       -270.1282719937821639
  Basis Set: CC-PVTZ
  Basis Set:
  Basis Set: CC-PVTZ
  Basis Set:
  @DF-RHF Final Energy:  -270.12724059339723
    Total Energy =                       -270.1272405933974596
  Basis Set: CC-PVTZ
  Basis Set:
  Basis Set: CC-PVTZ
  Basis Set:
  @DF-RHF Final Energy:  -270.12832859324686
    Total Energy =                       -270.1283285932470335
  Basis Set: CC-PVTZ
  Basis Set:
  Basis Set: CC-PVTZ
  Basis Set:
  @DF-RHF Final Energy:  -270.12834249883815
    Total Energy =                       -270.1283424988382080
  Basis Set: CC-PVTZ
  Basis Set:
  Basis Set: CC-PVTZ
  Basis Set:
  @DF-RHF Final Energy:  -270.12834578303011
    Total Energy =                       -270.1283457830302268
  Basis Set: CC-PVTZ
  Basis Set:
  Basis Set: CC-PVTZ
  Basis Set:
  @DF-RHF Final Energy:  -270.12834720052865
    Total Energy =                       -270.1283472005284239
  Basis Set: CC-PVTZ
  Basis Set:
  Charge       = 0
  Multiplicity = 1
  Basis Set: CC-PVTZ
  Basis Set:

    Orbital Energies (a.u.)
    -----------------------

    Doubly Occupied:

       1A    -20.537214     2A    -11.319728     3A    -11.232364
       4A    -11.228602     5A    -11.227346     6A    -11.218826
       7A     -1.397158     8A     -1.084372     9A     -1.014007
      10A     -0.951309    11A     -0.830960    12A     -0.736938
      13A     -0.658696    14A     -0.653226    15A     -0.614588
      16A     -0.607112    17A     -0.579443    18A     -0.561157
      19A     -0.534919    20A     -0.522613    21A     -0.506363
      22A     -0.483703    23A     -0.475277    24A     -0.400387

  @DF-RHF Final Energy:  -270.12834750875800

   => Energetics <=

    Nuclear Repulsion Energy =            237.6715399521788470
    One-Electron Energy =                -836.8471595697392331
    Two-Electron Energy =                 329.0472721088025310
    DFT Exchange-Correlation Energy =       0.0000000000000000
    Empirical Dispersion Energy =           0.0000000000000000
    PCM Polarization Energy =               0.0000000000000000
    EFP Energy =                            0.0000000000000000
    Total Energy =                       -270.1283475087578836
    Molecular point group: c1
  Basis Set: CC-PVTZ
  Basis Set:

  -Total Gradient:
     Atom            X                  Y                   Z
    ------   -----------------  -----------------  -----------------
       1        0.000005052470    -0.000006783455    -0.000003310397
       2       -0.000278013292    -0.002289395255    -0.000248128657
       3        0.000030959439     0.003799074907     0.000075648282
       4        0.000008169675    -0.000010010218     0.000005936887
       5        0.001509428693    -0.004284443090     0.001293108311
       6        0.000003102879     0.000002554210     0.000003771862
       7        0.000007963404     0.000000861648    -0.000008190435
       8       -0.000016375386     0.000005922935    -0.000009171878
       9       -0.001269912328     0.002786768644    -0.001109312496
      10        0.000000017337     0.000002058721     0.000003860642
      11       -0.000001902853     0.000000887007     0.000002562357
      12        0.000002947572    -0.000001145286     0.000000726679
      13        0.000001045190    -0.000004030769    -0.000000246234
      14        0.000000835793     0.000002300909    -0.000002076724
      15       -0.000003307499    -0.000006645301    -0.000001967352
      16       -0.000000011098     0.000002024392    -0.000003210847

  **** Optimization is complete! (in 8 steps) ****
    Final optimized geometry and variables:
    Molecular point group: c1

    Geometry (in Angstrom), charge = 0, multiplicity = 1:

    O           -1.517378285653     1.321139421883     0.001433381602
    C           -1.066117473284     0.230841194672     0.138990678313
    C            0.338613639511     0.019209446699     0.664585147282
    C           -1.861057578030    -1.004131277912    -0.215197265607
    C            1.363582719655     0.028393280752    -0.480666193416
    H            0.387929773044    -0.930394496835     1.188200348362
    H            0.563151895978     0.807593931893     1.370388957734
    C            2.708941671098    -0.561382505853    -0.078182117074
    H            0.964498378694    -0.498620507980    -1.342214883845
    H            1.495321821236     1.053622070434    -0.807612263568
    H            3.420145995314    -0.497973720358    -0.893119119716
    H            2.613091454720    -1.605470032336     0.199575128067
    H            3.128117072253    -0.030603654446     0.769756967961
    H           -1.269458588189    -1.691561787347    -0.808529485228
    H           -2.756611031406    -0.727587033333    -0.750042510310
    H           -2.133585207340    -1.521525775723     0.699236432562

  Mulliken Charges: (a.u.)
   Center  Symbol    Alpha    Beta     Spin     Total
       1     O     4.17649  4.17649  0.00000 -0.35298
       2     C     2.85817  2.85817  0.00000  0.28367
       3     C     3.09785  3.09785  0.00000 -0.19570
       4     C     3.15549  3.15549  0.00000 -0.31098
       5     C     3.09094  3.09094  0.00000 -0.18189
       6     H     0.45208  0.45208  0.00000  0.09583
       7     H     0.43800  0.43800  0.00000  0.12400
       8     C     3.14927  3.14927  0.00000 -0.29853
       9     H     0.45171  0.45171  0.00000  0.09658
      10     H     0.44210  0.44210  0.00000  0.11580
      11     H     0.44614  0.44614  0.00000  0.10773
      12     H     0.45513  0.45513  0.00000  0.08974
      13     H     0.45193  0.45193  0.00000  0.09613
      14     H     0.45085  0.45085  0.00000  0.09830
      15     H     0.43593  0.43593  0.00000  0.12814
      16     H     0.44792  0.44792  0.00000  0.10415

   Total alpha = 24.00000, Total beta = 24.00000, Total charge =  0.00000

*** Psi4 exiting successfully. Buy a developer a beer!
