  ==> Input File <==

--------------------------------------------------------------------------
set {
	reference rhf
	basis 6-31G*
}

set_num_threads( 4 )
memory 2 gb

molecule MOL {
0 1

O	 1.671227	 -0.386960	 -0.592595
C	 0.861134	 0.272526	 -0.014869
C	 -0.623889	 -0.118271	 -0.003699
C	 1.298636	 1.526686	 0.721121
C	 -0.895332	 -1.256461	 -1.002431
C	 -1.473649	 1.103340	 -0.370799
C	 -0.983900	 -0.581483	 1.422328
H	 -0.615301	 -0.972064	 -2.012700
H	 -1.954261	 -1.493213	 -1.010207
H	 -0.360539	 -2.164946	 -0.747760
H	 -1.227476	 1.468527	 -1.361691
H	 -2.526716	 0.838935	 -0.358521
H	 -1.314819	 1.915855	 0.325860
H	 -2.039679	 -0.828001	 1.472951
H	 -0.427637	 -1.464071	 1.720694
H	 -0.789023	 0.202493	 2.147048
H	 1.369918	 1.315835	 1.784099
H	 2.276487	 1.816111	 0.361738
H	 0.604294	 2.348839	 0.597929

	symmetry c1
}
set optking {
	frozen_dihedral = ("
		1 2 3 5
	")
}

ee = optimize('scf')
oeprop('DIPOLE', 'QUADRUPOLE', 'MULLIKEN_CHARGES')
f=open( 'psi4out.xyz', 'w' )
f.write( "19  " )
f.write( str(ee) + "\n" )
f.write( MOL.save_string_xyz() )
f.close()
--------------------------------------------------------------------------

    Molecular point group: c1
  Charge       = 0
  Multiplicity = 1
  Basis Set: 6-31G*
  Basis Set:
  @DF-RHF Final Energy:  -309.06060632962669
    Total Energy =                       -309.0606063296269213
    Molecular point group: c1
  Basis Set: 6-31G*
  Basis Set:
  Basis Set: 6-31G*
  Basis Set:
  @DF-RHF Final Energy:  -309.06028295732887
    Total Energy =                       -309.0602829573291501
  Basis Set: 6-31G*
  Basis Set:
  Basis Set: 6-31G*
  Basis Set:
  @DF-RHF Final Energy:  -309.06097517827038
    Total Energy =                       -309.0609751782703825
  Basis Set: 6-31G*
  Basis Set:
  Basis Set: 6-31G*
  Basis Set:
  @DF-RHF Final Energy:  -309.06216857184592
    Total Energy =                       -309.0621685718455183
  Basis Set: 6-31G*
  Basis Set:
  @DF-RHF Final Energy:  -309.06233122332941
    Total Energy =                       -309.0623312233294087
  @DF-RHF Final Energy:  -309.06240319264509
    Total Energy =                       -309.0624031926452062
  @DF-RHF Final Energy:  -309.06242370120145
    Total Energy =                       -309.0624237012012827
  @DF-RHF Final Energy:  -309.06244244081824
    Total Energy =                       -309.0624424408184723
  @DF-RHF Final Energy:  -309.06249800694292
    Total Energy =                       -309.0624980069429739
  @DF-RHF Final Energy:  -309.06247784773063
    Total Energy =                       -309.0624778477309746
  @DF-RHF Final Energy:  -309.06205377618932
    Total Energy =                       -309.0620537761893729
  @DF-RHF Final Energy:  -309.06253424973465
    Total Energy =                       -309.0625342497347674
  @DF-RHF Final Energy:  -309.06255747219200
    Total Energy =                       -309.0625574721919975
  @DF-RHF Final Energy:  -309.06262449229263
    Total Energy =                       -309.0626244922925707
  @DF-RHF Final Energy:  -309.06268060163006
    Total Energy =                       -309.0626806016299497
  @DF-RHF Final Energy:  -309.06272351776386
    Total Energy =                       -309.0627235177638568
  @DF-RHF Final Energy:  -309.06280019670976
    Total Energy =                       -309.0628001967098726
  @DF-RHF Final Energy:  -309.06286661536757
    Total Energy =                       -309.0628666153670565
  @DF-RHF Final Energy:  -309.06296118923774
    Total Energy =                       -309.0629611892380808
  Basis Set: 6-31G*
  Basis Set:
  @DF-RHF Final Energy:  -309.06304086891117
    Total Energy =                       -309.0630408689115711
  Basis Set: 6-31G*
  Basis Set:
  Basis Set: 6-31G*
  Basis Set:
  @DF-RHF Final Energy:  -309.06308223381262
    Total Energy =                       -309.0630822338127928
  Basis Set: 6-31G*
  Basis Set:
  Basis Set: 6-31G*
  Basis Set:
  @DF-RHF Final Energy:  -309.06309092626628
    Total Energy =                       -309.0630909262663977
  Basis Set: 6-31G*
  Basis Set:
  Charge       = 0
  Multiplicity = 1
  Basis Set: 6-31G*
  Basis Set:

    Orbital Energies (a.u.)
    -----------------------

    Doubly Occupied:

       1A    -20.548309     2A    -11.322751     3A    -11.246475
       4A    -11.226676     5A    -11.224685     6A    -11.224481
       7A    -11.208018     8A     -1.394622     9A     -1.109714
      10A     -1.001723    11A     -0.947058    12A     -0.934617
      13A     -0.835267    14A     -0.703556    15A     -0.664441
      16A     -0.631561    17A     -0.619512    18A     -0.598223
      19A     -0.592371    20A     -0.564690    21A     -0.546299
      22A     -0.544050    23A     -0.523576    24A     -0.512970
      25A     -0.498255    26A     -0.471470    27A     -0.466561
      28A     -0.392731

  @DF-RHF Final Energy:  -309.06309128166947

   => Energetics <=

    Nuclear Repulsion Energy =            326.2665689476415309
    One-Electron Energy =               -1065.5499957528263621
    Two-Electron Energy =                 430.2203355235154731
    DFT Exchange-Correlation Energy =       0.0000000000000000
    Empirical Dispersion Energy =           0.0000000000000000
    PCM Polarization Energy =               0.0000000000000000
    EFP Energy =                            0.0000000000000000
    Total Energy =                       -309.0630912816693581
    Molecular point group: c1
  Basis Set: 6-31G*
  Basis Set:

  -Total Gradient:
     Atom            X                  Y                   Z
    ------   -----------------  -----------------  -----------------
       1       -0.000083075424     0.000262948273    -0.000340594598
       2        0.000113352239    -0.000383111141     0.000559239746
       3       -0.000141052304     0.000388881401    -0.000445823527
       4        0.000009000308    -0.000085254457    -0.000019363287
       5        0.000077190866    -0.000231771297     0.000222712619
       6        0.000003464004    -0.000015814444     0.000001222996
       7        0.000004884930    -0.000012255293     0.000025764949
       8       -0.000003735555    -0.000005525489    -0.000003178373
       9        0.000001357435    -0.000000047261    -0.000001485133
      10       -0.000000341287     0.000005532084    -0.000000799343
      11       -0.000006229347     0.000009164983    -0.000007931459
      12        0.000007131922     0.000003304062     0.000000372283
      13       -0.000006730466    -0.000000722227    -0.000012666979
      14       -0.000000210726     0.000006576681    -0.000006579413
      15        0.000000708380     0.000000555677     0.000001058339
      16        0.000005819884     0.000010695506     0.000006473177
      17        0.000008332593    -0.000016022876     0.000012511167
      18        0.000006183239     0.000004922010     0.000014937806
      19        0.000003949308     0.000057943810    -0.000005870970

  **** Optimization is complete! (in 23 steps) ****
    Final optimized geometry and variables:
    Molecular point group: c1

    Geometry (in Angstrom), charge = 0, multiplicity = 1:

    O            1.669897135307    -0.452744704302    -0.678173268161
    C            0.879282909860     0.195299602978    -0.061739925008
    C           -0.604476592619    -0.195474747631    -0.005939122753
    C            1.342141511679     1.441233312077     0.673399096659
    C           -0.874190881379    -1.311458441147    -1.021031847220
    C           -1.489088579384     1.022549200833    -0.324671766192
    C           -0.921072076647    -0.711133256504     1.412293136567
    H           -0.648320534171    -0.987160396386    -2.030375717036
    H           -1.919975642069    -1.601418889490    -0.982714702954
    H           -0.268123690025    -2.184104222481    -0.815209637037
    H           -1.264616646188     1.427890855090    -1.307125823239
    H           -2.533708199362     0.728958928179    -0.321265851090
    H           -1.371605899751     1.818086102531     0.403140544843
    H           -1.954037635462    -1.040589055870     1.460170983938
    H           -0.290368879406    -1.556030338272     1.670316386117
    H           -0.787583007959     0.054157331005     2.169354269370
    H            0.848357645995     1.579053704201     1.627120172632
    H            2.411680216004     1.380008216663     0.819884892633
    H            1.129313224114     2.315436734112     0.064731488902

  Mulliken Charges: (a.u.)
   Center  Symbol    Alpha    Beta     Spin     Total
       1     O     4.26388  4.26388  0.00000 -0.52776
       2     C     2.72516  2.72516  0.00000  0.54967
       3     C     3.07055  3.07055  0.00000 -0.14109
       4     C     3.28868  3.28868  0.00000 -0.57737
       5     C     3.22582  3.22582  0.00000 -0.45165
       6     C     3.24176  3.24176  0.00000 -0.48352
       7     C     3.24124  3.24124  0.00000 -0.48248
       8     H     0.41398  0.41398  0.00000  0.17205
       9     H     0.42388  0.42388  0.00000  0.15223
      10     H     0.40807  0.40807  0.00000  0.18386
      11     H     0.41447  0.41447  0.00000  0.17107
      12     H     0.41328  0.41328  0.00000  0.17344
      13     H     0.41704  0.41704  0.00000  0.16592
      14     H     0.41290  0.41290  0.00000  0.17421
      15     H     0.41061  0.41061  0.00000  0.17878
      16     H     0.41839  0.41839  0.00000  0.16322
      17     H     0.41070  0.41070  0.00000  0.17861
      18     H     0.39607  0.39607  0.00000  0.20785
      19     H     0.40352  0.40352  0.00000  0.19295

   Total alpha = 28.00000, Total beta = 28.00000, Total charge = -0.00000
