                              Psi4 1.0.54 Driver

  ==> Input File <==

--------------------------------------------------------------------------
set {
	reference rhf
	basis cc-pvtz
}

set_num_threads( 4 )
memory 2 gb

molecule MOL {
0 1

H	 -3.046473	 -0.343355	 2.056922
C	 -3.224430	 -0.450585	 0.978164
C	 -2.717721	 0.688717	 0.136066
O	 -3.786091	 -1.404401	 0.563337
C	 -1.248971	 1.023023	 0.412990
H	 -2.882304	 0.446653	 -0.905880
H	 -3.332792	 1.552171	 0.379865
C	 -0.278283	 -0.071585	 -0.024937
H	 -1.005151	 1.947160	 -0.099710
H	 -1.119335	 1.223319	 1.473778
C	 1.181757	 0.280428	 0.247371
H	 -0.412727	 -0.260914	 -1.086627
H	 -0.522269	 -1.003160	 0.479114
C	 2.151032	 -0.811012	 -0.202643
H	 1.416906	 1.215482	 -0.251351
H	 1.314974	 0.459700	 1.311990
C	 3.580021	 -0.656538	 0.320835
H	 2.170545	 -0.847575	 -1.289412
H	 1.766632	 -1.772905	 0.124928
C	 4.327657	 0.562694	 -0.213579
H	 4.138806	 -1.549270	 0.057813
H	 3.561991	 -0.620783	 1.406976
H	 4.355973	 0.557257	 -1.298551
H	 3.867136	 1.491650	 0.100501
H	 5.351524	 0.571613	 0.142204

	symmetry c1
}
set optking {
	frozen_dihedral = ("
		8 11 14 18
	")
}

ee,wfn = optimize('scf', return_wfn=True)
oeprop( wfn, 'DIPOLE', 'QUADRUPOLE', 'MULLIKEN_CHARGES')
f=open( 'psi4out.xyz', 'w' )
f.write( "25  " )
f.write( str(ee) + "\n" )
f.write( MOL.save_string_xyz() )
f.close()
--------------------------------------------------------------------------

    Molecular point group: c1
  Charge       = 0
  Multiplicity = 1
  Basis Set: CC-PVTZ
  Basis Set:
  @DF-RHF Final Energy:  -387.26008374700535
    Total Energy =                       -387.2600837470055239
    Molecular point group: c1
  Basis Set: CC-PVTZ
  Basis Set:
  Basis Set: CC-PVTZ
  Basis Set:
  @DF-RHF Final Energy:  -387.25997045389533
    Total Energy =                       -387.2599704538955621
  Basis Set: CC-PVTZ
  Basis Set:
  Basis Set: CC-PVTZ
  Basis Set:
  @DF-RHF Final Energy:  -387.26014223767891
    Total Energy =                       -387.2601422376791334
  Basis Set: CC-PVTZ
  Basis Set:
  Basis Set: CC-PVTZ
  Basis Set:
  @DF-RHF Final Energy:  -387.26014533995027
    Total Energy =                       -387.2601453399506681
  Basis Set: CC-PVTZ
  Basis Set:
  Basis Set: CC-PVTZ
  Basis Set:
  @DF-RHF Final Energy:  -387.26013624838419
    Total Energy =                       -387.2601362483841285
  Basis Set: CC-PVTZ
  Basis Set:
  Basis Set: CC-PVTZ
  Basis Set:
  @DF-RHF Final Energy:  -387.26014636374759
    Total Energy =                       -387.2601463637477082
  Basis Set: CC-PVTZ
  Basis Set:
  Charge       = 0
  Multiplicity = 1
  Basis Set: CC-PVTZ
  Basis Set:

    Orbital Energies (a.u.)
    -----------------------

    Doubly Occupied:

       1A    -20.551412     2A    -11.321012     3A    -11.233814
       4A    -11.232847     5A    -11.221771     6A    -11.217819
       7A    -11.216090     8A    -11.214996     9A    -11.208826
      10A     -1.406425    11A     -1.105345    12A     -1.071099
      13A     -1.014487    14A     -0.943285    15A     -0.876113
      16A     -0.821359    17A     -0.788780    18A     -0.781362
      19A     -0.668411    20A     -0.662965    21A     -0.636155
      22A     -0.626965    23A     -0.602586    24A     -0.596040
      25A     -0.576836    26A     -0.551183    27A     -0.535779
      28A     -0.528520    29A     -0.509652    30A     -0.496984
      31A     -0.492179    32A     -0.480063    33A     -0.464265
      34A     -0.459878    35A     -0.442585    36A     -0.411923

  @DF-RHF Final Energy:  -387.26014655174924

   => Energetics <=

    Nuclear Repulsion Energy =            439.8451677974109089
    One-Electron Energy =               -1396.2710032801664966
    Two-Electron Energy =                 569.1656889310058887
    DFT Exchange-Correlation Energy =       0.0000000000000000
    Empirical Dispersion Energy =           0.0000000000000000
    PCM Polarization Energy =               0.0000000000000000
    EFP Energy =                            0.0000000000000000
    Total Energy =                       -387.2601465517496990
    Molecular point group: c1
  Basis Set: CC-PVTZ
  Basis Set:

  -Total Gradient:
     Atom            X                  Y                   Z
    ------   -----------------  -----------------  -----------------
       1        0.000015402719    -0.000009353082     0.000003681901
       2       -0.000046424990     0.000034183567     0.000009179773
       3        0.000015739581    -0.000007995215    -0.000006808025
       4        0.000013427747    -0.000013895353    -0.000003798459
       5       -0.000001605877     0.000002352992     0.000001680101
       6        0.000001999036    -0.000002179917    -0.000004834250
       7        0.000000023670     0.000002172168    -0.000000547258
       8       -0.000081171968    -0.000521039435     0.001082493896
       9       -0.000004257519     0.000007260691     0.000000617565
      10       -0.000001350262    -0.000004488985     0.000002215053
      11        0.000395636730     0.000979522046    -0.001507240460
      12        0.000001542204    -0.000001709470     0.000000550174
      13        0.000008198222    -0.000002533152     0.000001045553
      14       -0.001539368384    -0.001555990247     0.000438696700
      15       -0.000002668254     0.000000115972     0.000001647642
      16       -0.000000326299    -0.000002987604    -0.000002668192
      17        0.000017865367    -0.000010569555    -0.000001999408
      18        0.001233379103     0.001098993227     0.000000450164
      19        0.000003956996     0.000001375412    -0.000005898416
      20       -0.000008638985     0.000007707025    -0.000000436485
      21       -0.000009727008     0.000006947926     0.000011238676
      22       -0.000006449630     0.000002557995    -0.000015995595
      23       -0.000001920736     0.000003926041    -0.000000278594
      24        0.000006163397    -0.000006303375    -0.000004117354
      25       -0.000009424864    -0.000008069675     0.000001125298

  **** Optimization is complete! (in 7 steps) ****
    Final optimized geometry and variables:
    Molecular point group: c1

    Geometry (in Angstrom), charge = 0, multiplicity = 1:

    H           -3.050313786980    -0.206767944993     1.814809011028
    C           -3.228232802197    -0.330536185987     0.737794349257
    C           -2.713282287725     0.791321875879    -0.122576117327
    O           -3.795753158093    -1.287378507075     0.338197137660
    C           -1.243033750140     1.121391090472     0.151083822362
    H           -2.877760082097     0.532829621489    -1.160602617883
    H           -3.323610900331     1.662362544498     0.105676162634
    C           -0.278351557799     0.014307040105    -0.268185885397
    H           -0.993084172428     2.035926565408    -0.375631506812
    H           -1.113560517712     1.337487788353     1.208846020412
    C            1.183042115934     0.358670019832     0.006819292074
    H           -0.410995765808    -0.188957314335    -1.327783523365
    H           -0.529515262497    -0.908535267435     0.247828531708
    C            2.149593098215    -0.733597715886    -0.451229108119
    H            1.426696982307     1.298404919269    -0.478654225457
    H            1.310767279500     0.524416394251     1.074493552175
    C            3.582313735049    -0.570445008201     0.059788491179
    H            2.168493425029    -0.761302991580    -1.538167792579
    H            1.774008373423    -1.698160559321    -0.122908352659
    C            4.299283306369     0.677908479380    -0.448341896199
    H            4.153500713167    -1.445331298573    -0.234831247148
    H            3.576329061000    -0.564891375108     1.146566678395
    H            4.314282657467     0.704110624574    -1.533339062055
    H            3.822675856550     1.587409096058    -0.102399471096
    H            5.326977503141     0.698221690277    -0.104369670140

  Mulliken Charges: (a.u.)
   Center  Symbol    Alpha    Beta     Spin     Total
       1     H     0.46422  0.46422  0.00000  0.07156
       2     C     2.90482  2.90482  0.00000  0.19035
       3     C     3.08916  3.08916  0.00000 -0.17832
       4     O     4.16628  4.16628  0.00000 -0.33255
       5     C     3.11618  3.11618  0.00000 -0.23236
       6     H     0.44289  0.44289  0.00000  0.11423
       7     H     0.44050  0.44050  0.00000  0.11899
       8     C     3.08963  3.08963  0.00000 -0.17925
       9     H     0.44306  0.44306  0.00000  0.11389
      10     H     0.44986  0.44986  0.00000  0.10027
      11     C     3.09435  3.09435  0.00000 -0.18869
      12     H     0.44980  0.44980  0.00000  0.10040
      13     H     0.44785  0.44785  0.00000  0.10430
      14     C     3.09532  3.09532  0.00000 -0.19065
      15     H     0.45070  0.45070  0.00000  0.09861
      16     H     0.45431  0.45431  0.00000  0.09138
      17     C     3.09060  3.09060  0.00000 -0.18120
      18     H     0.45277  0.45277  0.00000  0.09447
      19     H     0.44773  0.44773  0.00000  0.10454
      20     C     3.15294  3.15294  0.00000 -0.30587
      21     H     0.44790  0.44790  0.00000  0.10420
      22     H     0.45470  0.45470  0.00000  0.09060
      23     H     0.45466  0.45466  0.00000  0.09068
      24     H     0.45399  0.45399  0.00000  0.09201
      25     H     0.44579  0.44579  0.00000  0.10842

   Total alpha = 36.00000, Total beta = 36.00000, Total charge =  0.00000

*** Psi4 exiting successfully. Buy a developer a beer!
