  ==> Input File <==

--------------------------------------------------------------------------
set {
	reference rhf
	basis cc-pvtz
}

set_num_threads( 4 )
memory 2 gb

molecule MOL {
0 1

O	 1.164704	 1.386407	 -0.291176
C	 0.973604	 0.360173	 -0.849195
C	 -0.315188	 -0.420877	 -0.828222
O	 1.892138	 -0.247755	 -1.582062
C	 -1.413045	 0.229353	 0.001137
H	 -0.627165	 -0.552590	 -1.859145
H	 -0.081837	 -1.414989	 -0.461139
C	 -2.702562	 -0.586401	 0.000228
H	 -1.608170	 1.225161	 -0.380742
H	 -1.062678	 0.361381	 1.018661
C	 -3.953810	 0.284959	 -0.000782
H	 -2.717793	 -1.238567	 -0.869075
H	 -2.719108	 -1.238472	 0.869576
H	 -3.983727	 0.924403	 -0.876454
H	 -4.852989	 -0.320147	 -0.001515
H	 -3.985140	 0.924399	 0.874841
C	 3.155103	 0.377366	 -1.689123
H	 3.059870	 1.355080	 -2.137714
H	 3.752177	 -0.263652	 -2.317189
H	 3.613946	 0.478994	 -0.716828

	symmetry c1
}
set optking {
	frozen_dihedral = ("
		9 5 8 12
	")
}

ee = optimize('scf')
oeprop('DIPOLE', 'QUADRUPOLE', 'MULLIKEN_CHARGES')
f=open( 'psi4out.xyz', 'w' )
f.write( "20  " )
f.write( str(ee) + "\n" )
f.write( MOL.save_string_xyz() )
f.close()
--------------------------------------------------------------------------

    Molecular point group: c1
  Charge       = 0
  Multiplicity = 1
  Basis Set: CC-PVTZ
  Basis Set:
  @DF-RHF Final Energy:  -384.07930248732612
    Total Energy =                       -384.0793024873263448
    Molecular point group: c1
  Basis Set: CC-PVTZ
  Basis Set:
  Basis Set: CC-PVTZ
  Basis Set:
  @DF-RHF Final Energy:  -384.07963956956661
    Total Energy =                       -384.0796395695671208
  Basis Set: CC-PVTZ
  Basis Set:
  Basis Set: CC-PVTZ
  Basis Set:
  @DF-RHF Final Energy:  -384.07939073765169
    Total Energy =                       -384.0793907376514653
  Basis Set: CC-PVTZ
  Basis Set:
  Basis Set: CC-PVTZ
  Basis Set:
  @DF-RHF Final Energy:  -384.07969887223112
    Total Energy =                       -384.0796988722314609
  Basis Set: CC-PVTZ
  Basis Set:
  Basis Set: CC-PVTZ
  Basis Set:
  @DF-RHF Final Energy:  -384.07970080058345
    Total Energy =                       -384.0797008005832822
  Basis Set: CC-PVTZ
  Basis Set:
  Charge       = 0
  Multiplicity = 1
  Basis Set: CC-PVTZ
  Basis Set:

    Orbital Energies (a.u.)
    -----------------------

    Doubly Occupied:

       1A    -20.596495     2A    -20.534367     3A    -11.364740
       4A    -11.278619     5A    -11.234592     6A    -11.218119
       7A    -11.216936     8A    -11.209497     9A     -1.472407
      10A     -1.366010    11A     -1.088521    12A     -1.025322
      13A     -0.970178    14A     -0.886780    15A     -0.805437
      16A     -0.769832    17A     -0.700662    18A     -0.686218
      19A     -0.676324    20A     -0.640544    21A     -0.598780
      22A     -0.597347    23A     -0.579122    24A     -0.543759
      25A     -0.533929    26A     -0.524284    27A     -0.506324
      28A     -0.479643    29A     -0.474717    30A     -0.466354
      31A     -0.457885    32A     -0.439863

  @DF-RHF Final Energy:  -384.07970085412012

   => Energetics <=

    Nuclear Repulsion Energy =            381.6517977332780447
    One-Electron Energy =               -1279.5757813031930255
    Two-Electron Energy =                 513.8442827157948614
    DFT Exchange-Correlation Energy =       0.0000000000000000
    Empirical Dispersion Energy =           0.0000000000000000
    PCM Polarization Energy =               0.0000000000000000
    EFP Energy =                            0.0000000000000000
    Total Energy =                       -384.0797008541201194
    Molecular point group: c1
  Basis Set: CC-PVTZ
  Basis Set:

  -Total Gradient:
     Atom            X                  Y                   Z
    ------   -----------------  -----------------  -----------------
       1       -0.000015755541     0.000004524200     0.000003755229
       2        0.000009539729     0.000003843058     0.000002499401
       3        0.000005396409    -0.000010745586     0.000000169161
       4        0.000000597237    -0.000013497997    -0.000006645162
       5        0.001524318048    -0.002560898624    -0.004631363846
       6        0.000001198993     0.000007360542    -0.000001452413
       7       -0.000002705043     0.000004531146    -0.000002347784
       8       -0.002812151981     0.004287078134    -0.001877616221
       9       -0.000812758439     0.001442816366     0.004157557205
      10       -0.000005837407    -0.000001181337     0.000010223834
      11       -0.000003336518     0.000010415309    -0.000003475452
      12        0.002109563480    -0.003158822223     0.002340445320
      13        0.000000299037    -0.000009696554     0.000004465865
      14        0.000000908096    -0.000000980988     0.000002621090
      15        0.000005582379    -0.000001810709    -0.000000996523
      16        0.000003024991    -0.000003032823    -0.000001781528
      17       -0.000003589542     0.000001588773     0.000005409641
      18       -0.000000853447     0.000000215380    -0.000000528779
      19       -0.000004101276    -0.000001966251    -0.000000315367
      20        0.000000660790     0.000000260183    -0.000000623668

  **** Optimization is complete! (in 6 steps) ****
    Final optimized geometry and variables:
    Molecular point group: c1

    Geometry (in Angstrom), charge = 0, multiplicity = 1:

    O            1.284993310213     1.203243868043     0.371946691386
    C            1.096533630304     0.178249320014    -0.189174834319
    C           -0.199221844270    -0.591643836185    -0.194723712986
    O            2.024237511101    -0.438105436812    -0.903232340461
    C           -1.309333565261     0.068145917449     0.607909182200
    H           -0.489929380699    -0.724324169684    -1.231517469067
    H            0.016593037039    -1.586795082375     0.180933902787
    C           -2.599830383255    -0.763881361400     0.643503434693
    H           -1.512130629268     1.061264209894     0.224078007952
    H           -0.959978505536     0.234156830382     1.620402672873
    C           -3.864697041106     0.081781278452     0.720607076455
    H           -2.641122605262    -1.427498888509    -0.215636488628
    H           -2.565034167707    -1.428029391220     1.502562259163
    H           -3.969109980794     0.708963248867    -0.158171666188
    H           -4.749616763271    -0.539800237666     0.793647544454
    H           -3.844262321121     0.732683529135     1.588334428139
    C            3.294220705062     0.176317917432    -0.985887793756
    H            3.216017892539     1.154374343767    -1.437023468318
    H            3.898155637275    -0.470252548493    -1.601579850109
    H            3.734694923572     0.275033519303    -0.004830431046

  Mulliken Charges: (a.u.)
   Center  Symbol    Alpha    Beta     Spin     Total
       1     O     4.19659  4.19659  0.00000 -0.39318
       2     C     2.80725  2.80725  0.00000  0.38550
       3     C     3.09991  3.09991  0.00000 -0.19982
       4     O     4.14677  4.14677  0.00000 -0.29354
       5     C     3.08521  3.08521  0.00000 -0.17041
       6     H     0.43986  0.43986  0.00000  0.12029
       7     H     0.43907  0.43907  0.00000  0.12185
       8     C     3.08780  3.08780  0.00000 -0.17559
       9     H     0.44716  0.44716  0.00000  0.10568
      10     H     0.44552  0.44552  0.00000  0.10896
      11     C     3.14741  3.14741  0.00000 -0.29483
      12     H     0.45654  0.45654  0.00000  0.08691
      13     H     0.45270  0.45270  0.00000  0.09460
      14     H     0.45490  0.45490  0.00000  0.09020
      15     H     0.44915  0.44915  0.00000  0.10169
      16     H     0.45252  0.45252  0.00000  0.09496
      17     C     3.03765  3.03765  0.00000 -0.07530
      18     H     0.45434  0.45434  0.00000  0.09132
      19     H     0.44531  0.44531  0.00000  0.10937
      20     H     0.45432  0.45432  0.00000  0.09135

   Total alpha = 32.00000, Total beta = 32.00000, Total charge = -0.00000
