                              Psi4 1.0.54 Driver

  ==> Input File <==

--------------------------------------------------------------------------
set {
	reference rhf
	basis cc-pvtz
}

set_num_threads( 4 )
memory 2 gb

molecule MOL {
0 1

H	 -3.556121	 0.399419	 0.386883
O	 -3.096687	 -0.299633	 -0.042771
C	 -1.770286	 -0.103384	 -0.012028
C	 -1.202985	 1.011388	 0.592860
C	 -0.967645	 -1.060151	 -0.610815
H	 -1.832260	 1.749332	 1.055329
C	 0.163225	 1.163557	 0.595842
H	 -1.425321	 -1.912284	 -1.071708
C	 0.398705	 -0.892886	 -0.599177
H	 0.613174	 2.019113	 1.059177
C	 0.981121	 0.213562	 0.000000
H	 1.022362	 -1.634535	 -1.063425
C	 2.447402	 0.371303	 0.000000
O	 3.227427	 -0.521847	 0.000000
H	 2.796538	 1.409525	 0.000000

	symmetry c1
}
set optking {
	frozen_dihedral = ("
		7 11 13 14
	")
}

ee,wfn = optimize('scf', return_wfn=True)
oeprop( wfn, 'DIPOLE', 'QUADRUPOLE', 'MULLIKEN_CHARGES')
f=open( 'psi4out.xyz', 'w' )
f.write( "15  " )
f.write( str(ee) + "\n" )
f.write( MOL.save_string_xyz() )
f.close()
--------------------------------------------------------------------------

    Molecular point group: c1
  Charge       = 0
  Multiplicity = 1
  Basis Set: CC-PVTZ
  Basis Set:
  @DF-RHF Final Energy:  -418.43859187261290
    Total Energy =                       -418.4385918726127329
    Molecular point group: c1
  Basis Set: CC-PVTZ
  Basis Set:
  Basis Set: CC-PVTZ
  Basis Set:
  @DF-RHF Final Energy:  -418.43757860457737
    Total Energy =                       -418.4375786045777659
  Basis Set: CC-PVTZ
  Basis Set:
  Basis Set: CC-PVTZ
  Basis Set:
  @DF-RHF Final Energy:  -418.43908093385295
    Total Energy =                       -418.4390809338528925
  Basis Set: CC-PVTZ
  Basis Set:
  Basis Set: CC-PVTZ
  Basis Set:
  @DF-RHF Final Energy:  -418.43943405683063
    Total Energy =                       -418.4394340568309190
  Basis Set: CC-PVTZ
  Basis Set:
  Basis Set: CC-PVTZ
  Basis Set:
  @DF-RHF Final Energy:  -418.43944936171391
    Total Energy =                       -418.4394493617141961
  Basis Set: CC-PVTZ
  Basis Set:
  Charge       = 0
  Multiplicity = 1
  Basis Set: CC-PVTZ
  Basis Set:

    Orbital Energies (a.u.)
    -----------------------

    Doubly Occupied:

       1A    -20.603522     2A    -20.548441     3A    -11.324102
       4A    -11.320749     5A    -11.259616     6A    -11.251676
       7A    -11.242084     8A    -11.237853     9A    -11.235734
      10A     -1.436482    11A     -1.404253    12A     -1.174751
      13A     -1.045911    14A     -1.039867    15A     -0.896437
      16A     -0.861460    17A     -0.806071    18A     -0.760851
      19A     -0.699898    20A     -0.690686    21A     -0.644242
      22A     -0.630285    23A     -0.614022    24A     -0.611023
      25A     -0.590150    26A     -0.562319    27A     -0.550050
      28A     -0.508789    29A     -0.491394    30A     -0.422512
      31A     -0.361082    32A     -0.331258

  @DF-RHF Final Energy:  -418.43945187559996

   => Energetics <=

    Nuclear Repulsion Energy =            402.2974788610338237
    One-Electron Energy =               -1367.1587201241395633
    Two-Electron Energy =                 546.4217893875057825
    DFT Exchange-Correlation Energy =       0.0000000000000000
    Empirical Dispersion Energy =           0.0000000000000000
    PCM Polarization Energy =               0.0000000000000000
    EFP Energy =                            0.0000000000000000
    Total Energy =                       -418.4394518755999570
    Molecular point group: c1
  Basis Set: CC-PVTZ
  Basis Set:

  -Total Gradient:
     Atom            X                  Y                   Z
    ------   -----------------  -----------------  -----------------
       1        0.000005596048    -0.000003255854    -0.000005058882
       2       -0.000016309156     0.000030159787     0.000014728950
       3        0.000048005931    -0.000245031987    -0.000103492566
       4        0.000174686297     0.000154169126     0.000021284898
       5       -0.000207139118     0.000092451342     0.000071744512
       6       -0.000019334395    -0.000011835970    -0.000010221458
       7       -0.000145625077    -0.002657242373     0.004377010652
       8        0.000022466700    -0.000010277712    -0.000006899138
       9        0.000136064708     0.000187328933     0.000042942704
      10        0.000004973938    -0.000004532273    -0.000014635627
      11       -0.000135575010     0.003547191981    -0.003516570835
      12       -0.000007128593    -0.000015407803    -0.000008538745
      13        0.000358761114    -0.000738569675    -0.007135475657
      14       -0.000240683303    -0.000387374372     0.006243976525
      15        0.000021239913     0.000062226848     0.000029204667

  **** Optimization is complete! (in 6 steps) ****
    Final optimized geometry and variables:
    Molecular point group: c1

    Geometry (in Angstrom), charge = 0, multiplicity = 1:

    H           -3.555630048537     0.403367175396     0.438742638568
    O           -3.096106966867    -0.290986828592     0.001490776303
    C           -1.771006907396    -0.079842745377     0.009979211472
    C           -1.202063043232     1.034887411327     0.598229788811
    C           -0.969297655208    -1.037192947403    -0.601729534875
    H           -1.822131297804     1.768176547539     1.079761351150
    C            0.169438388234     1.195994639137     0.560282888913
    H           -1.432787960970    -1.895020484679    -1.046607622304
    C            0.392190565234    -0.873333682879    -0.612290404391
    H            0.608285822679     2.066022541589     1.013236692655
    C            0.978229325425     0.256716650053    -0.048974136704
    H            1.021711948472    -1.617987559892    -1.058302112369
    C            2.448398630757     0.393977664799     0.024216844286
    O            3.210955052729    -0.512765070749     0.014859872648
    H            2.811432991401     1.420118743405     0.150547920055

  Mulliken Charges: (a.u.)
   Center  Symbol    Alpha    Beta     Spin     Total
       1     H     0.38587  0.38587  0.00000  0.22825
       2     O     4.16659  4.16659  0.00000 -0.33319
       3     C     2.84619  2.84619  0.00000  0.30763
       4     C     3.13432  3.13432  0.00000 -0.26864
       5     C     3.10390  3.10390  0.00000 -0.20780
       6     H     0.43217  0.43217  0.00000  0.13566
       7     C     3.07616  3.07616  0.00000 -0.15232
       8     H     0.41585  0.41585  0.00000  0.16831
       9     C     3.06314  3.06314  0.00000 -0.12627
      10     H     0.42161  0.42161  0.00000  0.15679
      11     C     2.99196  2.99196  0.00000  0.01607
      12     H     0.41015  0.41015  0.00000  0.17970
      13     C     2.91887  2.91887  0.00000  0.16226
      14     O     4.17279  4.17279  0.00000 -0.34557
      15     H     0.46044  0.46044  0.00000  0.07913

   Total alpha = 32.00000, Total beta = 32.00000, Total charge = -0.00000

*** Psi4 exiting successfully. Buy a developer a beer!
