  ==> Input File <==

--------------------------------------------------------------------------
set {
	reference rhf
	basis 6-31G*
}

set_num_threads( 1 )
memory 2 gb

molecule MOL {
0 1

O	 -0.682937	 1.318834	 -0.186099
C	 -0.860635	 0.152188	 -0.042321
C	 -2.173363	 -0.477127	 0.338347
O	 0.083258	 -0.765189	 -0.202595
H	 -2.477673	 -1.180929	 -0.427595
H	 -2.923125	 0.290956	 0.455536
H	 -2.058825	 -1.029004	 1.264191
C	 -0.302248	 -2.064933	 -0.644010
C	 -0.432749	 -2.123567	 -2.154698
H	 -1.225132	 -2.345084	 -0.159303
H	 0.489057	 -2.714332	 -0.298153
H	 -0.651989	 -3.140578	 -2.465104
H	 -1.235365	 -1.482906	 -2.497814
H	 0.491940	 -1.814201	 -2.629734

	symmetry c1
}
set optking {
	frozen_dihedral = ("
		10 8 4 2
	")
}

ee = energy('scf')
oeprop('DIPOLE', 'QUADRUPOLE', 'MULLIKEN_CHARGES')
f=open( 'psi4out.xyz', 'w' )
f.write( "14  " )
f.write( str(ee) + "\n" )
f.write( MOL.save_string_xyz() )
f.close()
--------------------------------------------------------------------------

    Molecular point group: c1

    Geometry (in Angstrom), charge = 0, multiplicity = 1:

       Center              X                  Y                   Z               Mass
    ------------   -----------------  -----------------  -----------------  -----------------
           O          0.049421181739     1.986922581689     0.302929740816    15.994914619560
           C         -0.128276818261     0.820276581689     0.446707740816    12.000000000000
           C         -1.441004818261     0.190961581689     0.827375740816    12.000000000000
           O          0.815616181739    -0.097100418311     0.286433740816    15.994914619560
           H         -1.745314818261    -0.512840418311     0.061433740816     1.007825032070
           H         -2.190766818261     0.959044581689     0.944564740816     1.007825032070
           H         -1.326466818261    -0.360915418311     1.753219740816     1.007825032070
           C          0.430110181739    -1.396844418311    -0.154981259184    12.000000000000
           C          0.299609181739    -1.455478418311    -1.665669259184    12.000000000000
           H         -0.492773818261    -1.676995418311     0.329725740816     1.007825032070
           H          1.221415181739    -2.046243418311     0.190875740816     1.007825032070
           H          0.080369181739    -2.472489418311    -1.976075259184     1.007825032070
           H         -0.503006818261    -0.814817418311    -2.008785259184     1.007825032070
           H          1.224298181739    -1.146112418311    -2.140705259184     1.007825032070

  Charge       = 0
  Multiplicity = 1
  Basis Set: 6-31G*
  Basis Set:

    Orbital Energies (a.u.)
    -----------------------

    Doubly Occupied:

       1A    -20.600907     2A    -20.546019     3A    -11.377588
       4A    -11.299978     5A    -11.238871     6A    -11.234448
       7A     -1.465269     8A     -1.368731     9A     -1.052107
      10A     -1.024218    11A     -0.899595    12A     -0.772774
      13A     -0.703523    14A     -0.694314    15A     -0.669073
      16A     -0.620116    17A     -0.596214    18A     -0.584320
      19A     -0.555930    20A     -0.542441    21A     -0.528927
      22A     -0.501815    23A     -0.449584    24A     -0.433707

  @DF-RHF Final Energy:  -305.84721285435216

   => Energetics <=

    Nuclear Repulsion Energy =            250.9430778859421025
    One-Electron Energy =                -914.0595654671794819
    Two-Electron Energy =                 357.2692747268846460
    DFT Exchange-Correlation Energy =       0.0000000000000000
    Empirical Dispersion Energy =           0.0000000000000000
    PCM Polarization Energy =               0.0000000000000000
    EFP Energy =                            0.0000000000000000
    Total Energy =                       -305.8472128543527333

  Mulliken Charges: (a.u.)
   Center  Symbol    Alpha    Beta     Spin     Total
       1     O     4.26735  4.26735  0.00000 -0.53469
       2     C     2.60779  2.60779  0.00000  0.78443
       3     C     3.32023  3.32023  0.00000 -0.64046
       4     O     4.30037  4.30037  0.00000 -0.60074
       5     H     0.40268  0.40268  0.00000  0.19465
       6     H     0.39012  0.39012  0.00000  0.21977
       7     H     0.39771  0.39771  0.00000  0.20458
       8     C     3.02000  3.02000  0.00000 -0.04000
       9     C     3.24898  3.24898  0.00000 -0.49796
      10     H     0.41084  0.41084  0.00000  0.17832
      11     H     0.40218  0.40218  0.00000  0.19564
      12     H     0.41511  0.41511  0.00000  0.16979
      13     H     0.41488  0.41488  0.00000  0.17025
      14     H     0.40179  0.40179  0.00000  0.19643

   Total alpha = 24.00000, Total beta = 24.00000, Total charge =  0.00000
