                              Psi4 1.0.54 Driver

  ==> Input File <==

--------------------------------------------------------------------------
set {
	reference rhf
	basis cc-pvtz
}

set_num_threads( 4 )
memory 2 gb

molecule MOL {
0 1

O	 -2.071633	 -1.227563	 -0.223463
C	 -1.652164	 -0.152425	 0.058082
C	 -0.327811	 0.006324	 0.778296
C	 -2.402515	 1.108629	 -0.298924
C	 0.843231	 -0.001575	 -0.211665
H	 -0.319484	 0.928173	 1.350354
H	 -0.227804	 -0.823091	 1.466705
C	 2.197693	 0.138030	 0.476937
H	 0.722944	 0.805202	 -0.930230
H	 0.813976	 -0.926978	 -0.776588
C	 2.887416	 1.462059	 0.166465
H	 2.067471	 0.041656	 1.551310
H	 2.838913	 -0.683675	 0.171685
H	 2.285291	 2.303637	 0.492390
H	 3.059748	 1.572577	 -0.898643
H	 3.846896	 1.529345	 0.665735
H	 -3.240910	 0.874416	 -0.936711
H	 -1.747554	 1.818823	 -0.790984
H	 -2.760419	 1.579708	 0.610998

	symmetry c1
}
set optking {
	frozen_dihedral = ("
		11 8 5 9
	")
}

ee,wfn = optimize('scf', return_wfn=True)
oeprop( wfn, 'DIPOLE', 'QUADRUPOLE', 'MULLIKEN_CHARGES')
f=open( 'psi4out.xyz', 'w' )
f.write( "19  " )
f.write( str(ee) + "\n" )
f.write( MOL.save_string_xyz() )
f.close()
--------------------------------------------------------------------------

    Molecular point group: c1
  Charge       = 0
  Multiplicity = 1
  Basis Set: CC-PVTZ
  Basis Set:
  @DF-RHF Final Energy:  -309.17149360995762
    Total Energy =                       -309.1714936099573379
    Molecular point group: c1
  Basis Set: CC-PVTZ
  Basis Set:
  Basis Set: CC-PVTZ
  Basis Set:
  @DF-RHF Final Energy:  -309.17173761292423
    Total Energy =                       -309.1717376129241757
  Basis Set: CC-PVTZ
  Basis Set:
  Basis Set: CC-PVTZ
  Basis Set:
  @DF-RHF Final Energy:  -309.17173387521638
    Total Energy =                       -309.1717338752164324
  Basis Set: CC-PVTZ
  Basis Set:
  Basis Set: CC-PVTZ
  Basis Set:
  @DF-RHF Final Energy:  -309.17178366813050
    Total Energy =                       -309.1717836681303879
  Basis Set: CC-PVTZ
  Basis Set:
  Basis Set: CC-PVTZ
  Basis Set:
  @DF-RHF Final Energy:  -309.17170091092260
    Total Energy =                       -309.1717009109225955
  Basis Set: CC-PVTZ
  Basis Set:
  Basis Set: CC-PVTZ
  Basis Set:
  @DF-RHF Final Energy:  -309.17184166132125
    Total Energy =                       -309.1718416613209683
  Basis Set: CC-PVTZ
  Basis Set:
  Charge       = 0
  Multiplicity = 1
  Basis Set: CC-PVTZ
  Basis Set:

    Orbital Energies (a.u.)
    -----------------------

    Doubly Occupied:

       1A    -20.536992     2A    -11.319252     3A    -11.228870
       4A    -11.228226     5A    -11.227036     6A    -11.223070
       7A    -11.215348     8A     -1.396975     9A     -1.091029
      10A     -1.029705    11A     -0.984610    12A     -0.892847
      13A     -0.806992    14A     -0.736288    15A     -0.662091
      16A     -0.647470    17A     -0.620178    18A     -0.614579
      19A     -0.595163    20A     -0.570252    21A     -0.556627
      22A     -0.533062    23A     -0.520298    24A     -0.503528
      25A     -0.483647    26A     -0.469788    27A     -0.468974
      28A     -0.398948

  @DF-RHF Final Energy:  -309.17184200480580

   => Energetics <=

    Nuclear Repulsion Energy =            303.0289148923820335
    One-Electron Energy =               -1019.2778192207829306
    Two-Electron Energy =                 407.0770623235952144
    DFT Exchange-Correlation Energy =       0.0000000000000000
    Empirical Dispersion Energy =           0.0000000000000000
    PCM Polarization Energy =               0.0000000000000000
    EFP Energy =                            0.0000000000000000
    Total Energy =                       -309.1718420048056259
    Molecular point group: c1
  Basis Set: CC-PVTZ
  Basis Set:

  -Total Gradient:
     Atom            X                  Y                   Z
    ------   -----------------  -----------------  -----------------
       1       -0.000043737074    -0.000107852207    -0.000007586063
       2        0.000064450944     0.000093810502    -0.000028859296
       3       -0.000010089074    -0.000001010864     0.000012246916
       4       -0.000020976684     0.000001272092     0.000044265407
       5        0.001143046505    -0.001508565163    -0.002008957565
       6       -0.000005604832     0.000024086843     0.000022257543
       7       -0.000002095797    -0.000023461409     0.000018470272
       8       -0.000954741085     0.000989748191     0.001777808597
       9       -0.000762922341     0.001041968072     0.001279668421
      10        0.000007759886    -0.000014907479    -0.000008792764
      11        0.000582511065    -0.000523576750    -0.001071450246
      12       -0.000002463609    -0.000021694180     0.000010918104
      13       -0.000017121220    -0.000014181361    -0.000006489171
      14       -0.000012424984     0.000036689833    -0.000010433243
      15        0.000025981538     0.000006420414    -0.000023149400
      16        0.000006098535    -0.000001668369     0.000029914165
      17       -0.000015389744    -0.000007596452    -0.000015244463
      18        0.000014177884     0.000019773823    -0.000010470303
      19        0.000003540088     0.000010744462    -0.000004116914

  **** Optimization is complete! (in 7 steps) ****
    Final optimized geometry and variables:
    Molecular point group: c1

    Geometry (in Angstrom), charge = 0, multiplicity = 1:

    O           -2.022650899823    -1.414031534265    -0.322479809454
    C           -1.585716202850    -0.345803923568    -0.040560429690
    C           -0.258276075400    -0.209517793637     0.678229899441
    C           -2.316921965253     0.927232664830    -0.395110670734
    C            0.913279839167    -0.232798403324    -0.314315507072
    H           -0.234366150174     0.711332959284     1.252204683039
    H           -0.169139746795    -1.041603231156     1.364703032189
    C            2.283271011673    -0.067993942046     0.374314291800
    H            0.774907725307     0.566274077737    -1.036284614864
    H            0.872378545907    -1.163216544324    -0.865533863056
    C            2.964319905777     1.261570599362     0.062389384641
    H            2.168224616282    -0.169833483991     1.448170829454
    H            2.939710579940    -0.874598076852     0.067867702691
    H            2.345933988123     2.101658616646     0.363175266275
    H            3.157280048642     1.358804963099    -1.000426410665
    H            3.912091050071     1.347756861289     0.581191585834
    H           -3.156315692529     0.707263249640    -1.036708843074
    H           -1.650983322398     1.631050864835    -0.881521452868
    H           -2.671923637073     1.398714317723     0.515789647700

  Mulliken Charges: (a.u.)
   Center  Symbol    Alpha    Beta     Spin     Total
       1     O     4.17691  4.17691  0.00000 -0.35382
       2     C     2.85922  2.85922  0.00000  0.28156
       3     C     3.09944  3.09944  0.00000 -0.19889
       4     C     3.15539  3.15539  0.00000 -0.31078
       5     C     3.10480  3.10480  0.00000 -0.20960
       6     H     0.44896  0.44896  0.00000  0.10208
       7     H     0.43844  0.43844  0.00000  0.12312
       8     C     3.09023  3.09023  0.00000 -0.18047
       9     H     0.45247  0.45247  0.00000  0.09505
      10     H     0.43498  0.43498  0.00000  0.13003
      11     C     3.14794  3.14794  0.00000 -0.29588
      12     H     0.45275  0.45275  0.00000  0.09450
      13     H     0.44625  0.44625  0.00000  0.10750
      14     H     0.45633  0.45633  0.00000  0.08733
      15     H     0.45320  0.45320  0.00000  0.09361
      16     H     0.44736  0.44736  0.00000  0.10528
      17     H     0.43595  0.43595  0.00000  0.12809
      18     H     0.45100  0.45100  0.00000  0.09800
      19     H     0.44836  0.44836  0.00000  0.10329

   Total alpha = 28.00000, Total beta = 28.00000, Total charge = -0.00000

*** Psi4 exiting successfully. Buy a developer a beer!
