  ==> Input File <==

--------------------------------------------------------------------------
set {
	reference rhf
	basis 6-31G*
}

set_num_threads( 4 )
memory 2 gb

molecule MOL {
0 1

H	 -2.034644	 -0.819910	 -1.213768
O	 -2.310168	 -0.871793	 -0.309793
C	 -2.026376	 0.340750	 0.341611
C	 -0.673256	 0.843270	 -0.132153
H	 -2.792215	 1.080697	 0.115987
H	 -2.013526	 0.200402	 1.421792
C	 0.486613	 -0.083066	 0.235839
H	 -0.715586	 0.970948	 -1.210718
H	 -0.508072	 1.829858	 0.297090
C	 1.840406	 0.433480	 -0.254303
H	 0.300215	 -1.068318	 -0.178947
H	 0.519509	 -0.203625	 1.318070
C	 3.000220	 -0.489290	 0.118523
H	 1.809207	 0.553576	 -1.335192
H	 2.021860	 1.424500	 0.157276
H	 2.864959	 -1.479103	 -0.307933
H	 3.946603	 -0.099227	 -0.243630
H	 3.080049	 -0.602997	 1.196117

	symmetry c1
}
set optking {
	frozen_dihedral = ("
		1 2 3 4
	")
}

ee = optimize('scf')
oeprop('DIPOLE', 'QUADRUPOLE', 'MULLIKEN_CHARGES')
f=open( 'psi4out.xyz', 'w' )
f.write( "18  " )
f.write( str(ee) + "\n" )
f.write( MOL.save_string_xyz() )
f.close()
--------------------------------------------------------------------------

    Molecular point group: c1
  Charge       = 0
  Multiplicity = 1
  Basis Set: 6-31G*
  Basis Set:
  @DF-RHF Final Energy:  -271.17692619489446
    Total Energy =                       -271.1769261948945768
    Molecular point group: c1
  Basis Set: 6-31G*
  Basis Set:
  Basis Set: 6-31G*
  Basis Set:
  @DF-RHF Final Energy:  -271.17846610220073
    Total Energy =                       -271.1784661022010141
  Basis Set: 6-31G*
  Basis Set:
  Basis Set: 6-31G*
  Basis Set:
  @DF-RHF Final Energy:  -271.17889974709806
    Total Energy =                       -271.1788997470978302
  Basis Set: 6-31G*
  Basis Set:
  Basis Set: 6-31G*
  Basis Set:
  @DF-RHF Final Energy:  -271.17890331392834
    Total Energy =                       -271.1789033139285152
  Basis Set: 6-31G*
  Basis Set:
  Charge       = 0
  Multiplicity = 1
  Basis Set: 6-31G*
  Basis Set:

    Orbital Energies (a.u.)
    -----------------------

    Doubly Occupied:

       1A    -20.552276     2A    -11.267439     3A    -11.222067
       4A    -11.218316     5A    -11.216215     6A    -11.210250
       7A     -1.359393     8A     -1.081975     9A     -1.012747
      10A     -0.919021    11A     -0.832848    12A     -0.795838
      13A     -0.669215    14A     -0.654561    15A     -0.626798
      16A     -0.610840    17A     -0.575488    18A     -0.555032
      19A     -0.541308    20A     -0.496651    21A     -0.487093
      22A     -0.479656    23A     -0.467050    24A     -0.459793
      25A     -0.424278

  @DF-RHF Final Energy:  -271.17890409522744

   => Energetics <=

    Nuclear Repulsion Energy =            248.9284035605936083
    One-Electron Energy =                -860.7423201245828750
    Two-Electron Energy =                 340.6350124687619427
    DFT Exchange-Correlation Energy =       0.0000000000000000
    Empirical Dispersion Energy =           0.0000000000000000
    PCM Polarization Energy =               0.0000000000000000
    EFP Energy =                            0.0000000000000000
    Total Energy =                       -271.1789040952273808
    Molecular point group: c1
  Basis Set: 6-31G*
  Basis Set:

  -Total Gradient:
     Atom            X                  Y                   Z
    ------   -----------------  -----------------  -----------------
       1        0.002107617663    -0.000794385841     0.000665337110
       2       -0.002808983580     0.001493076631    -0.001142783746
       3        0.001409421316    -0.001266834899     0.001649005117
       4       -0.000687596998     0.000587187939    -0.001202399837
       5       -0.000038908128    -0.000051321904    -0.000053898705
       6        0.000013046126    -0.000039066742    -0.000009485429
       7        0.000013373450     0.000062724364    -0.000000536386
       8        0.000002172397    -0.000015427597     0.000038098297
       9        0.000013575328     0.000007204256     0.000041529944
      10        0.000010279447     0.000002768934     0.000016205753
      11       -0.000019875567     0.000008883274     0.000006582916
      12       -0.000004456752     0.000021169292     0.000011281926
      13       -0.000006080324    -0.000017500488    -0.000036191447
      14       -0.000010117665     0.000012714628     0.000009536203
      15        0.000006898582    -0.000005266250     0.000018346315
      16        0.000003883922    -0.000011719161     0.000004496442
      17        0.000000414297    -0.000005682801    -0.000010752558
      18       -0.000004663510     0.000011476367    -0.000004371912

  **** Optimization is complete! (in 5 steps) ****
    Final optimized geometry and variables:
    Molecular point group: c1

    Geometry (in Angstrom), charge = 0, multiplicity = 1:

    H           -2.123563669800    -0.895172893507    -1.167786411048
    O           -2.386710795098    -0.890931354474    -0.258097618397
    C           -2.032076339242     0.336452125500     0.326693750354
    C           -0.668768342943     0.848173475233    -0.124133138493
    H           -2.791003708813     1.085154766590     0.106522222778
    H           -2.039218854620     0.172569242195     1.397389894261
    C            0.490942025622    -0.080347083930     0.241094750600
    H           -0.689824789456     1.005684260204    -1.203266308759
    H           -0.508648688589     1.828923543193     0.319143450397
    C            1.848485278653     0.435648672420    -0.239067349679
    H            0.310030188804    -1.067633037143    -0.174791611755
    H            0.515534827830    -0.208013331665     1.321853870641
    C            3.003182626629    -0.495612316881     0.128200622479
    H            1.822688323337     0.568719370201    -1.318829324747
    H            2.031177996737     1.421200217409     0.184269807091
    H            2.865883977746    -1.480916757325    -0.308087802238
    H            3.951790366806    -0.105410094756    -0.227346484736
    H            3.078940102537    -0.619856433749     1.204667930974

  Mulliken Charges: (a.u.)
   Center  Symbol    Alpha    Beta     Spin     Total
       1     H     0.28289  0.28289  0.00000  0.43423
       2     O     4.37112  4.37112  0.00000 -0.74224
       3     C     2.98586  2.98586  0.00000  0.02829
       4     C     3.18034  3.18034  0.00000 -0.36067
       5     H     0.42772  0.42772  0.00000  0.14456
       6     H     0.41804  0.41804  0.00000  0.16391
       7     C     3.15020  3.15020  0.00000 -0.30041
       8     H     0.42695  0.42695  0.00000  0.14611
       9     H     0.41907  0.41907  0.00000  0.16186
      10     C     3.15156  3.15156  0.00000 -0.30312
      11     H     0.41698  0.41698  0.00000  0.16605
      12     H     0.42166  0.42166  0.00000  0.15669
      13     C     3.23917  3.23917  0.00000 -0.47834
      14     H     0.42415  0.42415  0.00000  0.15169
      15     H     0.42320  0.42320  0.00000  0.15361
      16     H     0.42104  0.42104  0.00000  0.15792
      17     H     0.41917  0.41917  0.00000  0.16167
      18     H     0.42090  0.42090  0.00000  0.15820

   Total alpha = 25.00000, Total beta = 25.00000, Total charge = -0.00000
