                              Psi4 1.0.54 Driver

  ==> Input File <==

--------------------------------------------------------------------------
set {
	reference rhf
	basis cc-pvtz
}

set_num_threads( 4 )
memory 2 gb

molecule MOL {
0 1

H	 -0.939693	 0.000281	 1.681345
O	 -0.046262	 -0.000157	 1.387678
C	 -0.000837	 0.000006	 -0.025491
C	 -0.909700	 -1.102025	 -0.566456
C	 -0.435535	 1.366792	 -0.550923
C	 1.453055	 -0.276997	 -0.382783
H	 -0.867867	 -1.150110	 -1.648460
H	 -1.942422	 -0.923086	 -0.282666
H	 -0.612274	 -2.063444	 -0.166862
H	 -0.376284	 1.409095	 -1.632351
H	 -1.461753	 1.579701	 -0.266987
H	 0.195910	 2.144721	 -0.140353
H	 1.589966	 -0.296493	 -1.457568
H	 1.762956	 -1.232020	 0.022314
H	 2.093767	 0.490236	 0.033217

	symmetry c1
}
set optking {
	frozen_dihedral = ("
		4 3 2 1
	")
}

ee,wfn = optimize('scf', return_wfn=True)
oeprop( wfn, 'DIPOLE', 'QUADRUPOLE', 'MULLIKEN_CHARGES')
f=open( 'psi4out.xyz', 'w' )
f.write( "15  " )
f.write( str(ee) + "\n" )
f.write( MOL.save_string_xyz() )
f.close()
--------------------------------------------------------------------------

    Molecular point group: c1
  Charge       = 0
  Multiplicity = 1
  Basis Set: CC-PVTZ
  Basis Set:
  @DF-RHF Final Energy:  -232.24663559057646
    Total Energy =                       -232.2466355905763180
    Molecular point group: c1
  Basis Set: CC-PVTZ
  Basis Set:
  Basis Set: CC-PVTZ
  Basis Set:
  @DF-RHF Final Energy:  -232.24664377923801
    Total Energy =                       -232.2466437792378429
  Basis Set: CC-PVTZ
  Basis Set:
  Basis Set: CC-PVTZ
  Basis Set:
  @DF-RHF Final Energy:  -232.24664680961988
    Total Energy =                       -232.2466468096197332
  Basis Set: CC-PVTZ
  Basis Set:
  Charge       = 0
  Multiplicity = 1
  Basis Set: CC-PVTZ
  Basis Set:

    Orbital Energies (a.u.)
    -----------------------

    Doubly Occupied:

       1A    -20.542089     2A    -11.280819     3A    -11.211179
       4A    -11.207496     5A    -11.203888     6A     -1.364850
       7A     -1.065240     8A     -0.942894     9A     -0.939697
      10A     -0.778516    11A     -0.672624    12A     -0.624418
      13A     -0.622724    14A     -0.576049    15A     -0.557498
      16A     -0.532941    17A     -0.517047    18A     -0.511363
      19A     -0.504486    20A     -0.459008    21A     -0.428435

  @DF-RHF Final Energy:  -232.24664728270406

   => Energetics <=

    Nuclear Repulsion Energy =            200.6714097725621571
    One-Electron Energy =                -712.7495922648749911
    Two-Electron Energy =                 279.8315352096087736
    DFT Exchange-Correlation Energy =       0.0000000000000000
    Empirical Dispersion Energy =           0.0000000000000000
    PCM Polarization Energy =               0.0000000000000000
    EFP Energy =                            0.0000000000000000
    Total Energy =                       -232.2466472827040889
    Molecular point group: c1
  Basis Set: CC-PVTZ
  Basis Set:

  -Total Gradient:
     Atom            X                  Y                   Z
    ------   -----------------  -----------------  -----------------
       1        0.000017107827    -0.000965740767    -0.000021620878
       2       -0.000131652896     0.001324001747     0.000000799132
       3        0.000580228849    -0.000737752915     0.000016398971
       4       -0.000435376908     0.000373712084    -0.000017662735
       5       -0.000009537869     0.000010728758    -0.000012583790
       6       -0.000020703577    -0.000034427907     0.000029909250
       7       -0.000001167999     0.000006016009     0.000015333682
       8       -0.000014370747     0.000012474214     0.000000096255
       9        0.000011606622    -0.000023235870    -0.000005672592
      10        0.000009640574     0.000018313584    -0.000033160485
      11        0.000020151034    -0.000010369678     0.000007638373
      12       -0.000011941229     0.000018820462     0.000007455871
      13       -0.000016412757     0.000013990039     0.000011224342
      14        0.000016272319    -0.000008258296    -0.000000463719
      15       -0.000013843240     0.000001728536     0.000002308323

  **** Optimization is complete! (in 4 steps) ****
    Final optimized geometry and variables:
    Molecular point group: c1

    Geometry (in Angstrom), charge = 0, multiplicity = 1:

    H           -0.939152503220     0.007932148137     1.681760464744
    O           -0.046038484212     0.002977903858     1.387963524831
    C            0.000394444785     0.000493911620    -0.025401983126
    C           -0.911900738869    -1.097188095161    -0.568382347320
    C           -0.434082727750     1.368881945646    -0.548279572019
    C            1.453872510374    -0.276019452418    -0.383853730193
    H           -0.869300186303    -1.142461462223    -1.650184622470
    H           -1.944680641290    -0.913872679840    -0.286611543164
    H           -0.619035760902    -2.061723048687    -0.172167240408
    H           -0.375573965102     1.414344176655    -1.629875856249
    H           -1.458832853092     1.581577869628    -0.260614411961
    H            0.198314748720     2.144804376017    -0.135623956888
    H            1.593809993459    -0.276100514815    -1.458420930789
    H            1.760567116377    -1.238577129580     0.005533553271
    H            2.095235257785     0.482438049596     0.047056022010

  Mulliken Charges: (a.u.)
   Center  Symbol    Alpha    Beta     Spin     Total
       1     H     0.39549  0.39549  0.00000  0.20903
       2     O     4.21133  4.21133  0.00000 -0.42267
       3     C     2.87840  2.87840  0.00000  0.24320
       4     C     3.15219  3.15219  0.00000 -0.30438
       5     C     3.14838  3.14838  0.00000 -0.29676
       6     C     3.14282  3.14282  0.00000 -0.28564
       7     H     0.45450  0.45450  0.00000  0.09101
       8     H     0.45628  0.45628  0.00000  0.08744
       9     H     0.44591  0.44591  0.00000  0.10818
      10     H     0.45646  0.45646  0.00000  0.08708
      11     H     0.45546  0.45546  0.00000  0.08909
      12     H     0.44715  0.44715  0.00000  0.10571
      13     H     0.45877  0.45877  0.00000  0.08246
      14     H     0.44923  0.44923  0.00000  0.10155
      15     H     0.44764  0.44764  0.00000  0.10472

   Total alpha = 21.00000, Total beta = 21.00000, Total charge =  0.00000

*** Psi4 exiting successfully. Buy a developer a beer!
