  ==> Input File <==

--------------------------------------------------------------------------
set {
	reference rhf
	basis 6-31G*
}

set_num_threads( 4 )
memory 2 gb

molecule MOL {
0 1

H	 2.344647	 -1.822804	 -1.564362
O	 2.692914	 -1.028441	 -1.183053
C	 1.717963	 -0.291878	 -0.613735
C	 2.090992	 0.906498	 -0.013163
C	 0.393787	 -0.685177	 -0.611066
H	 3.126456	 1.190113	 -0.028483
C	 1.138955	 1.704726	 0.586440
H	 0.078338	 -1.603244	 -1.066227
C	 -0.536158	 0.140425	 0.000000
H	 1.435731	 2.628294	 1.047746
C	 -0.198304	 1.331460	 0.602361
N	 -1.935604	 -0.280333	 0.000000
H	 -0.948257	 1.940008	 1.063496
O	 -2.161694	 -1.452901	 0.000000
O	 -2.770341	 0.571417	 0.000000

	symmetry c1
}
set optking {
	frozen_dihedral = ("
		11 9 12 14
	")
}

ee = optimize('scf')
oeprop('DIPOLE', 'QUADRUPOLE', 'MULLIKEN_CHARGES')
f=open( 'psi4out.xyz', 'w' )
f.write( "15  " )
f.write( str(ee) + "\n" )
f.write( MOL.save_string_xyz() )
f.close()
--------------------------------------------------------------------------

    Molecular point group: c1
  Charge       = 0
  Multiplicity = 1
  Basis Set: 6-31G*
  Basis Set:
  @DF-RHF Final Energy:  -509.02594012213990
    Total Energy =                       -509.0259401221400140
    Molecular point group: c1
  Basis Set: 6-31G*
  Basis Set:
  Basis Set: 6-31G*
  Basis Set:
  @DF-RHF Final Energy:  -509.01895039290275
    Total Energy =                       -509.0189503929030934
  Basis Set: 6-31G*
  Basis Set:
  Basis Set: 6-31G*
  Basis Set:
  @DF-RHF Final Energy:  -509.02595412139999
    Total Energy =                       -509.0259541214004457
  Basis Set: 6-31G*
  Basis Set:
  Basis Set: 6-31G*
  Basis Set:
  @DF-RHF Final Energy:  -509.02616012556308
    Total Energy =                       -509.0261601255627966
  Basis Set: 6-31G*
  Basis Set:
  Basis Set: 6-31G*
  Basis Set:
  @DF-RHF Final Energy:  -509.02616105131136
    Total Energy =                       -509.0261610513114192
  Basis Set: 6-31G*
  Basis Set:
  Basis Set: 6-31G*
  Basis Set:
  @DF-RHF Final Energy:  -509.02616222742671
    Total Energy =                       -509.0261622274260844
  Basis Set: 6-31G*
  Basis Set:
  Charge       = 0
  Multiplicity = 1
  Basis Set: 6-31G*
  Basis Set:

    Orbital Energies (a.u.)
    -----------------------

    Doubly Occupied:

       1A    -20.616437     2A    -20.606346     3A    -20.605912
       4A    -15.859096     5A    -11.331460     6A    -11.312294
       7A    -11.267944     8A    -11.267467     9A    -11.264079
      10A    -11.259639    11A     -1.638654    12A     -1.437227
      13A     -1.422289    14A     -1.201384    15A     -1.095584
      16A     -1.047304    17A     -0.966234    18A     -0.880409
      19A     -0.828921    20A     -0.790279    21A     -0.756078
      22A     -0.735467    23A     -0.721813    24A     -0.709481
      25A     -0.672066    26A     -0.635391    27A     -0.616590
      28A     -0.594336    29A     -0.560381    30A     -0.546283
      31A     -0.520357    32A     -0.491429    33A     -0.489924
      34A     -0.454136    35A     -0.376399    36A     -0.343246

  @DF-RHF Final Energy:  -509.02616226774506

   => Energetics <=

    Nuclear Repulsion Energy =            503.4212425958294830
    One-Electron Energy =               -1693.0501392699004555
    Two-Electron Energy =                 680.6027344063256805
    DFT Exchange-Correlation Energy =       0.0000000000000000
    Empirical Dispersion Energy =           0.0000000000000000
    PCM Polarization Energy =               0.0000000000000000
    EFP Energy =                            0.0000000000000000
    Total Energy =                       -509.0261622677453488
    Molecular point group: c1
  Basis Set: 6-31G*
  Basis Set:

  -Total Gradient:
     Atom            X                  Y                   Z
    ------   -----------------  -----------------  -----------------
       1       -0.000001249087     0.000003910644    -0.000005110517
       2       -0.000001431014     0.000000745313     0.000010228794
       3        0.000009340143    -0.000001282217     0.000001668830
       4       -0.000006586962     0.000006388260    -0.000011520940
       5       -0.000001632134     0.000000996515     0.000002025873
       6        0.000001161248    -0.000001641849     0.000001609467
       7        0.000007806107    -0.000001194500     0.000005907180
       8       -0.000000024853     0.000004897670     0.000000594309
       9       -0.000693835747     0.002135508022    -0.002453504564
      10        0.000004052208    -0.000000487774    -0.000001641727
      11        0.000509219170    -0.001461797921     0.002594771176
      12        0.000128678752    -0.000636951935    -0.003599190874
      13        0.000006160773    -0.000006594685    -0.000007493551
      14        0.000047653174    -0.000030037954     0.003450406304
      15       -0.000009311769    -0.000012457582     0.000011250242

  **** Optimization is complete! (in 7 steps) ****
    Final optimized geometry and variables:
    Molecular point group: c1

    Geometry (in Angstrom), charge = 0, multiplicity = 1:

    H            2.357359881909    -1.865912363472    -1.412485072013
    O            2.702159328834    -1.065114396135    -1.041722985293
    C            1.726576050731    -0.329112657654    -0.473921638441
    C            2.099463589009     0.866319807206     0.133242986666
    C            0.401943173675    -0.722182053054    -0.472640829345
    H            3.136212224111     1.145616423886     0.126503075670
    C            1.147277824906     1.664586765171     0.732250527401
    H            0.087817863551    -1.649427704633    -0.911834345057
    C           -0.528437345489     0.114636286056     0.119345145948
    H            1.446079473141     2.581094518200     1.206199934386
    C           -0.192992944058     1.300038491727     0.731282252529
    N           -1.921741764274    -0.317146776289     0.142213391461
    H           -0.946650410116     1.912658909612     1.182598143756
    O           -2.134329544115    -1.492115483507     0.131070595126
    O           -2.760031150755     0.529644171884     0.196762855353

  Mulliken Charges: (a.u.)
   Center  Symbol    Alpha    Beta     Spin     Total
       1     H     0.26732  0.26732  0.00000  0.46536
       2     O     4.37525  4.37525  0.00000 -0.75050
       3     C     2.79308  2.79308  0.00000  0.41383
       4     C     3.10991  3.10991  0.00000 -0.21981
       5     C     3.13534  3.13534  0.00000 -0.27067
       6     H     0.38115  0.38115  0.00000  0.23770
       7     C     3.09998  3.09998  0.00000 -0.19997
       8     H     0.37190  0.37190  0.00000  0.25619
       9     C     2.90445  2.90445  0.00000  0.19110
      10     H     0.38654  0.38654  0.00000  0.22692
      11     C     3.09858  3.09858  0.00000 -0.19715
      12     N     3.25016  3.25016  0.00000  0.49967
      13     H     0.36845  0.36845  0.00000  0.26311
      14     O     4.23069  4.23069  0.00000 -0.46138
      15     O     4.22720  4.22720  0.00000 -0.45440

   Total alpha = 36.00000, Total beta = 36.00000, Total charge = -0.00000
