                              Psi4 1.0.54 Driver

  ==> Input File <==

--------------------------------------------------------------------------
set {
	reference rhf
	basis cc-pvtz
}

set_num_threads( 4 )
memory 2 gb

molecule MOL {
0 1

H	 2.765724	 1.036655	 -1.245559
N	 1.954348	 0.456035	 -1.257336
C	 1.263552	 0.494993	 0.021953
H	 2.258625	 -0.471084	 -1.469945
C	 -0.016533	 -0.325589	 -0.026925
H	 1.016870	 1.529987	 0.233918
H	 1.882474	 0.145141	 0.849312
C	 -1.280353	 0.525521	 0.047747
H	 -0.016686	 -0.912532	 -0.939714
H	 -0.014099	 -1.037598	 0.796369
C	 -2.560681	 -0.301323	 -0.007747
H	 -1.279957	 1.241025	 -0.770189
H	 -1.270445	 1.110526	 0.963468
H	 -2.617064	 -0.872870	 -0.928010
H	 -3.439525	 0.331102	 0.043462
H	 -2.609427	 -1.002736	 0.818585

	symmetry c1
}
set optking {
	frozen_dihedral = ("
		6 3 5 9
	")
}

ee,wfn = optimize('scf', return_wfn=True)
oeprop( wfn, 'DIPOLE', 'QUADRUPOLE', 'MULLIKEN_CHARGES')
f=open( 'psi4out.xyz', 'w' )
f.write( "16  " )
f.write( str(ee) + "\n" )
f.write( MOL.save_string_xyz() )
f.close()
--------------------------------------------------------------------------

    Molecular point group: c1
  Charge       = 0
  Multiplicity = 1
  Basis Set: CC-PVTZ
  Basis Set:
  @DF-RHF Final Energy:  -212.39453471675102
    Total Energy =                       -212.3945347167510249
    Molecular point group: c1
  Basis Set: CC-PVTZ
  Basis Set:
  Basis Set: CC-PVTZ
  Basis Set:
  @DF-RHF Final Energy:  -212.39491740912734
    Total Energy =                       -212.3949174091272880
  Basis Set: CC-PVTZ
  Basis Set:
  Basis Set: CC-PVTZ
  Basis Set:
  @DF-RHF Final Energy:  -212.39501921789261
    Total Energy =                       -212.3950192178926955
  Basis Set: CC-PVTZ
  Basis Set:
  Basis Set: CC-PVTZ
  Basis Set:
  @DF-RHF Final Energy:  -212.39502189161050
    Total Energy =                       -212.3950218916106110
  Basis Set: CC-PVTZ
  Basis Set:
  Charge       = 0
  Multiplicity = 1
  Basis Set: CC-PVTZ
  Basis Set:

    Orbital Energies (a.u.)
    -----------------------

    Doubly Occupied:

       1A    -15.527012     2A    -11.238304     3A    -11.209757
       4A    -11.207735     5A    -11.203439     6A     -1.177317
       7A     -1.057372     8A     -0.956861     9A     -0.845120
      10A     -0.790852    11A     -0.659433    12A     -0.643868
      13A     -0.597842    14A     -0.575969    15A     -0.569873
      16A     -0.515273    17A     -0.504439    18A     -0.467686
      19A     -0.463472    20A     -0.462576    21A     -0.382040

  @DF-RHF Final Energy:  -212.39502204484052

   => Energetics <=

    Nuclear Repulsion Energy =            187.2767621912147433
    One-Electron Energy =                -657.2310896491435415
    Two-Electron Energy =                 257.5593054130882820
    DFT Exchange-Correlation Energy =       0.0000000000000000
    Empirical Dispersion Energy =           0.0000000000000000
    PCM Polarization Energy =               0.0000000000000000
    EFP Energy =                            0.0000000000000000
    Total Energy =                       -212.3950220448405162
    Molecular point group: c1
  Basis Set: CC-PVTZ
  Basis Set:

  -Total Gradient:
     Atom            X                  Y                   Z
    ------   -----------------  -----------------  -----------------
       1        0.000003572863    -0.000002727507    -0.000009600100
       2       -0.000001917609    -0.000004545155     0.000035098986
       3        0.000024170039    -0.000123508302     0.002723551094
       4        0.000002865241     0.000001202145    -0.000005077072
       5        0.001330823861    -0.002169739140     0.000872230720
       6       -0.000221590016     0.000454129415    -0.002419258174
       7       -0.000003665184    -0.000008547012    -0.000012631557
       8        0.000017307474    -0.000000455587    -0.000032175406
       9       -0.001150974280     0.001853271400    -0.001161117878
      10        0.000010583385     0.000005599879     0.000000655409
      11       -0.000008907302    -0.000001893119     0.000013959757
      12        0.000002395551     0.000005901852    -0.000002534585
      13        0.000001376658    -0.000007446348    -0.000004790491
      14        0.000001542081     0.000004598172     0.000001248570
      15       -0.000005661942    -0.000002492664     0.000003632257
      16       -0.000001920820    -0.000003348028    -0.000003191529

  **** Optimization is complete! (in 5 steps) ****
    Final optimized geometry and variables:
    Molecular point group: c1

    Geometry (in Angstrom), charge = 0, multiplicity = 1:

    H            2.836139575069     0.916714603415    -0.988296782012
    N            2.039872473577     0.314687447600    -0.990040138393
    C            1.375568413193     0.323465814682     0.307836498135
    H            2.365721663687    -0.601872393747    -1.216365970075
    C            0.081412127266    -0.505294914939     0.268151731464
    H            1.136103656377     1.357928587788     0.524392355096
    H            2.020849311256    -0.029851775457     1.110071404164
    C           -1.184908993609     0.348703378806     0.293693031599
    H            0.074831575061    -1.088753936718    -0.646644602054
    H            0.056991438111    -1.206442662542     1.096393789124
    C           -2.464602853051    -0.473880464272     0.195679086750
    H           -1.144802097389     1.058466412255    -0.527280656346
    H           -1.203454827126     0.936091710681     1.207981566405
    H           -2.493651473755    -1.042369704262    -0.727948233697
    H           -3.342952378254     0.160970899886     0.220564379497
    H           -2.542384447083    -1.177789305059     1.018034063038

  Mulliken Charges: (a.u.)
   Center  Symbol    Alpha    Beta     Spin     Total
       1     H     0.42923  0.42923  0.00000  0.14153
       2     N     3.69099  3.69099  0.00000 -0.38198
       3     C     3.03449  3.03449  0.00000 -0.06897
       4     H     0.43059  0.43059  0.00000  0.13881
       5     C     3.08241  3.08241  0.00000 -0.16482
       6     H     0.45872  0.45872  0.00000  0.08256
       7     H     0.46117  0.46117  0.00000  0.07767
       8     C     3.08534  3.08534  0.00000 -0.17067
       9     H     0.45716  0.45716  0.00000  0.08567
      10     H     0.45257  0.45257  0.00000  0.09487
      11     C     3.15101  3.15101  0.00000 -0.30202
      12     H     0.45007  0.45007  0.00000  0.09987
      13     H     0.45625  0.45625  0.00000  0.08750
      14     H     0.45446  0.45446  0.00000  0.09108
      15     H     0.44905  0.44905  0.00000  0.10190
      16     H     0.45649  0.45649  0.00000  0.08701

   Total alpha = 21.00000, Total beta = 21.00000, Total charge = -0.00000

*** Psi4 exiting successfully. Buy a developer a beer!
