                              Psi4 1.0.54 Driver

  ==> Input File <==

--------------------------------------------------------------------------
set {
	reference rhf
	basis cc-pvtz
}

set_num_threads( 4 )
memory 2 gb

molecule MOL {
0 1

H	 -1.835082	 1.385983	 0.000069
C	 -1.300516	 0.441153	 -0.000028
O	 -0.006604	 0.654344	 -0.000106
O	 -1.828920	 -0.612308	 0.000113
C	 0.852093	 -0.482521	 -0.000161
C	 0.956055	 -0.981770	 -1.421654
H	 0.437454	 -1.233402	 0.657265
H	 1.816202	 -0.192026	 0.392357
H	 -0.016744	 -1.265247	 -1.802802
H	 1.604441	 -1.849081	 -1.456592
H	 1.368913	 -0.218623	 -2.069053

	symmetry c1
}
set optking {
	frozen_dihedral = ("
		7 5 3 2
	")
}

ee,wfn = optimize('scf', return_wfn=True)
oeprop( wfn, 'DIPOLE', 'QUADRUPOLE', 'MULLIKEN_CHARGES')
f=open( 'psi4out.xyz', 'w' )
f.write( "11  " )
f.write( str(ee) + "\n" )
f.write( MOL.save_string_xyz() )
f.close()
--------------------------------------------------------------------------

    Molecular point group: c1
  Charge       = 0
  Multiplicity = 1
  Basis Set: CC-PVTZ
  Basis Set:
  @DF-RHF Final Energy:  -266.92917596839919
    Total Energy =                       -266.9291759683992495
    Molecular point group: c1
  Basis Set: CC-PVTZ
  Basis Set:
  Basis Set: CC-PVTZ
  Basis Set:
  @DF-RHF Final Energy:  -266.93043658320005
    Total Energy =                       -266.9304365831999348
  Basis Set: CC-PVTZ
  Basis Set:
  Basis Set: CC-PVTZ
  Basis Set:
  @DF-RHF Final Energy:  -266.93021800343297
    Total Energy =                       -266.9302180034329695
  Basis Set: CC-PVTZ
  Basis Set:
  Basis Set: CC-PVTZ
  Basis Set:
  @DF-RHF Final Energy:  -266.93085940874192
    Total Energy =                       -266.9308594087420374
  Basis Set: CC-PVTZ
  Basis Set:
  Basis Set: CC-PVTZ
  Basis Set:
  @DF-RHF Final Energy:  -266.93087168239356
    Total Energy =                       -266.9308716823935015
  Basis Set: CC-PVTZ
  Basis Set:
  Charge       = 0
  Multiplicity = 1
  Basis Set: CC-PVTZ
  Basis Set:

    Orbital Energies (a.u.)
    -----------------------

    Doubly Occupied:

       1A    -20.605155     2A    -20.545554     3A    -11.370965
       4A    -11.289952     5A    -11.221633     6A     -1.478511
       7A     -1.377405     8A     -1.049612     9A     -0.913036
      10A     -0.796975    11A     -0.747870    12A     -0.687809
      13A     -0.657174    14A     -0.625725    15A     -0.577034
      16A     -0.542394    17A     -0.539029    18A     -0.501975
      19A     -0.462381    20A     -0.456686

  @DF-RHF Final Energy:  -266.93087265267059

   => Energetics <=

    Nuclear Repulsion Energy =            182.4177537556421100
    One-Electron Energy =                -725.8035034449430896
    Two-Electron Energy =                 276.4548770366304211
    DFT Exchange-Correlation Energy =       0.0000000000000000
    Empirical Dispersion Energy =           0.0000000000000000
    PCM Polarization Energy =               0.0000000000000000
    EFP Energy =                            0.0000000000000000
    Total Energy =                       -266.9308726526705300
    Molecular point group: c1
  Basis Set: CC-PVTZ
  Basis Set:

  -Total Gradient:
     Atom            X                  Y                   Z
    ------   -----------------  -----------------  -----------------
       1        0.000026716083    -0.000027767818     0.000011956285
       2        0.000009875954    -0.000016652949    -0.000293050558
       3        0.000027972278     0.000152194254     0.000390309880
       4       -0.000055102582    -0.000014723965     0.000011792655
       5       -0.000109680907    -0.000254610063    -0.000313048337
       6       -0.000058948318     0.000048043903     0.000030700790
       7        0.000164593486     0.000104195494     0.000150015254
       8       -0.000013210097     0.000005193054    -0.000028480159
       9       -0.000001383879     0.000002313158     0.000002033978
      10        0.000010260224     0.000013491612     0.000027736259
      11       -0.000001092247    -0.000011676680     0.000010033955

  **** Optimization is complete! (in 6 steps) ****
    Final optimized geometry and variables:
    Molecular point group: c1

    Geometry (in Angstrom), charge = 0, multiplicity = 1:

    H           -1.496192195068     1.670031605699     0.360289902310
    C           -1.006719006462     0.701182464762     0.348629987329
    O            0.290086379849     0.856467973643     0.229295080289
    O           -1.582431604028    -0.323807120978     0.436848126818
    C            1.118080572807    -0.304727019119     0.195639504654
    C            1.191929511812    -0.899331782525    -1.194855235582
    H            0.747870129445    -1.022914476432     0.910819254940
    H            2.086709904925     0.044664226325     0.518443495462
    H            0.224003583286    -1.259342043052    -1.515128528181
    H            1.882964030419    -1.734503204460    -1.193838203108
    H            1.547037493946    -0.163987989996    -1.906349033334

  Mulliken Charges: (a.u.)
   Center  Symbol    Alpha    Beta     Spin     Total
       1     H     0.44617  0.44617  0.00000  0.10767
       2     C     2.84248  2.84248  0.00000  0.31503
       3     O     4.14906  4.14906  0.00000 -0.29811
       4     O     4.19739  4.19739  0.00000 -0.39477
       5     C     2.98129  2.98129  0.00000  0.03742
       6     C     3.14602  3.14602  0.00000 -0.29204
       7     H     0.44908  0.44908  0.00000  0.10183
       8     H     0.44388  0.44388  0.00000  0.11225
       9     H     0.44198  0.44198  0.00000  0.11604
      10     H     0.45127  0.45127  0.00000  0.09746
      11     H     0.45139  0.45139  0.00000  0.09723

   Total alpha = 20.00000, Total beta = 20.00000, Total charge = -0.00000

*** Psi4 exiting successfully. Buy a developer a beer!
