  ==> Input File <==

--------------------------------------------------------------------------
set {
	reference rhf
	basis cc-pvtz
}

set_num_threads( 4 )
memory 2 gb

molecule MOL {
0 1

H	 1.272699	 -1.440161	 -0.442549
C	 0.682315	 -0.528324	 -0.549558
N	 -0.537714	 -0.645117	 0.000000
O	 1.112380	 0.436066	 -1.098843
C	 -1.522613	 0.412524	 0.000000
H	 -0.763820	 -1.509437	 0.426391
H	 -2.150256	 0.356137	 -0.880771
H	 -1.005621	 1.357208	 0.000000
H	 -2.150256	 0.356137	 0.880771

	symmetry c1
}
set optking {
	frozen_dihedral = ("
		6 3 5 7
	")
}

ee = optimize('scf')
oeprop('DIPOLE', 'QUADRUPOLE', 'MULLIKEN_CHARGES')
f=open( 'psi4out.xyz', 'w' )
f.write( "9  " )
f.write( str(ee) + "\n" )
f.write( MOL.save_string_xyz() )
f.close()
--------------------------------------------------------------------------

    Molecular point group: c1
  Charge       = 0
  Multiplicity = 1
  Basis Set: CC-PVTZ
  Basis Set:
  @DF-RHF Final Energy:  -208.04340231616393
    Total Energy =                       -208.0434023161639061
    Molecular point group: c1
  Basis Set: CC-PVTZ
  Basis Set:
  Basis Set: CC-PVTZ
  Basis Set:
  @DF-RHF Final Energy:  -208.04357854649430
    Total Energy =                       -208.0435785464941318
  Basis Set: CC-PVTZ
  Basis Set:
  Basis Set: CC-PVTZ
  Basis Set:
  @DF-RHF Final Energy:  -208.04358710250807
    Total Energy =                       -208.0435871025080132
  Basis Set: CC-PVTZ
  Basis Set:
  Basis Set: CC-PVTZ
  Basis Set:
  @DF-RHF Final Energy:  -208.04364754830908
    Total Energy =                       -208.0436475483091954
  Basis Set: CC-PVTZ
  Basis Set:
  Basis Set: CC-PVTZ
  Basis Set:
  @DF-RHF Final Energy:  -208.04367081792290
    Total Energy =                       -208.0436708179229868
  Basis Set: CC-PVTZ
  Basis Set:
  Basis Set: CC-PVTZ
  Basis Set:
  @DF-RHF Final Energy:  -208.04367482708835
    Total Energy =                       -208.0436748270883527
  Basis Set: CC-PVTZ
  Basis Set:
  Charge       = 0
  Multiplicity = 1
  Basis Set: CC-PVTZ
  Basis Set:

    Orbital Energies (a.u.)
    -----------------------

    Doubly Occupied:

       1A    -20.516833     2A    -15.584596     3A    -11.336669
       4A    -11.259997     5A     -1.394136     6A     -1.239556
       7A     -0.969863     8A     -0.808681     9A     -0.748867
      10A     -0.646182    11A     -0.629861    12A     -0.596281
      13A     -0.557935    14A     -0.538886    15A     -0.428641
      16A     -0.396681

  @DF-RHF Final Energy:  -208.04367502807889

   => Energetics <=

    Nuclear Repulsion Energy =            122.8484957342988508
    One-Electron Energy =                -526.4770104480783175
    Two-Electron Energy =                 195.5848396857005298
    DFT Exchange-Correlation Energy =       0.0000000000000000
    Empirical Dispersion Energy =           0.0000000000000000
    PCM Polarization Energy =               0.0000000000000000
    EFP Energy =                            0.0000000000000000
    Total Energy =                       -208.0436750280789227
    Molecular point group: c1
  Basis Set: CC-PVTZ
  Basis Set:

  -Total Gradient:
     Atom            X                  Y                   Z
    ------   -----------------  -----------------  -----------------
       1        0.000013224874    -0.000006320801    -0.000008368912
       2       -0.000019978992    -0.000060247348     0.000048734659
       3        0.000056312263     0.000045237321     0.000063314275
       4       -0.000010382363     0.000027373454    -0.000011169092
       5        0.000013595057     0.000060139363    -0.000059203291
       6       -0.000012955456    -0.000025053018    -0.000066954446
       7       -0.000041227398    -0.000038367961     0.000030721606
       8        0.000002312917    -0.000006263839     0.000003782186
       9       -0.000000900900     0.000003502831    -0.000000856986

  **** Optimization is complete! (in 7 steps) ****
    Final optimized geometry and variables:
    Molecular point group: c1

    Geometry (in Angstrom), charge = 0, multiplicity = 1:

    H            1.362533752146    -1.363225565472    -0.034892386439
    C            0.758387074850    -0.460728791612    -0.145706867200
    N           -0.429211826166    -0.553654382559     0.474218588161
    O            1.147540220618     0.489419546821    -0.747615572259
    C           -1.422588808541     0.495218521666     0.415828246712
    H           -0.675044308921    -1.427424750516     0.868626749722
    H           -1.992428436285     0.462632630204    -0.505476397512
    H           -0.934998825100     1.455048348764     0.480713650109
    H           -2.100202525951     0.387530577720     1.250981889795

  Mulliken Charges: (a.u.)
   Center  Symbol    Alpha    Beta     Spin     Total
       1     H     0.46385  0.46385  0.00000  0.07229
       2     C     2.88038  2.88038  0.00000  0.23924
       3     N     3.60624  3.60624  0.00000 -0.21247
       4     O     4.21399  4.21399  0.00000 -0.42798
       5     C     3.07749  3.07749  0.00000 -0.15498
       6     H     0.41049  0.41049  0.00000  0.17902
       7     H     0.45475  0.45475  0.00000  0.09050
       8     H     0.43888  0.43888  0.00000  0.12224
       9     H     0.45393  0.45393  0.00000  0.09214

   Total alpha = 16.00000, Total beta = 16.00000, Total charge = -0.00000
