  ==> Input File <==

--------------------------------------------------------------------------
set {
	reference rhf
	basis 6-31G*
}

set_num_threads( 4 )
memory 2 gb

molecule MOL {
0 1

O	 3.225979	 0.970355	 -0.599647
C	 2.701189	 0.057885	 -0.047330
C	 1.245376	 -0.013843	 0.345420
O	 3.347903	 -1.046386	 0.304773
C	 0.455112	 1.231400	 -0.050772
H	 0.838542	 -0.913825	 -0.103701
H	 1.208210	 -0.175333	 1.419774
C	 -0.998893	 1.219485	 0.433193
H	 0.482531	 1.345121	 -1.130325
H	 0.957290	 2.103070	 0.354729
C	 -1.360261	 2.334672	 1.418525
H	 -1.187349	 0.260305	 0.909830
H	 -1.667190	 1.265749	 -0.425439
C	 -2.787938	 2.214600	 1.955480
H	 -0.659913	 2.316192	 2.252186
H	 -1.244371	 3.306296	 0.943669
C	 -3.161868	 3.326712	 2.937068
H	 -2.908399	 1.249388	 2.444449
H	 -3.488124	 2.222219	 1.121586
C	 -4.587815	 3.197336	 3.471518
H	 -2.462573	 3.321168	 3.770494
H	 -3.046268	 4.292100	 2.448762
H	 -4.823002	 3.999495	 4.164219
H	 -4.725884	 2.256199	 3.996299
H	 -5.313946	 3.234005	 2.664262
C	 4.728119	 -1.109107	 -0.004993
H	 4.882018	 -1.033965	 -1.071845
H	 5.068212	 -2.067527	 0.355250
H	 5.265056	 -0.311663	 0.488280

	symmetry c1
}
set optking {
	frozen_dihedral = ("
		11 8 5 9
	")
}

ee = optimize('scf')
oeprop('DIPOLE', 'QUADRUPOLE', 'MULLIKEN_CHARGES')
f=open( 'psi4out.xyz', 'w' )
f.write( "29  " )
f.write( str(ee) + "\n" )
f.write( MOL.save_string_xyz() )
f.close()
--------------------------------------------------------------------------

    Molecular point group: c1
  Charge       = 0
  Multiplicity = 1
  Basis Set: 6-31G*
  Basis Set:
  @DF-RHF Final Energy:  -501.03956918298547
    Total Energy =                       -501.0395691829847920
    Molecular point group: c1
  Basis Set: 6-31G*
  Basis Set:
  Basis Set: 6-31G*
  Basis Set:
  @DF-RHF Final Energy:  -501.04010346657833
    Total Energy =                       -501.0401034665782163
  Basis Set: 6-31G*
  Basis Set:
  Basis Set: 6-31G*
  Basis Set:
  @DF-RHF Final Energy:  -501.04019230280812
    Total Energy =                       -501.0401923028073270
  Basis Set: 6-31G*
  Basis Set:
  Basis Set: 6-31G*
  Basis Set:
  @DF-RHF Final Energy:  -501.03987121873433
    Total Energy =                       -501.0398712187349020
  Basis Set: 6-31G*
  Basis Set:
  Basis Set: 6-31G*
  Basis Set:
  @DF-RHF Final Energy:  -501.04020306316318
    Total Energy =                       -501.0402030631631760
  Basis Set: 6-31G*
  Basis Set:
  Basis Set: 6-31G*
  Basis Set:
  @DF-RHF Final Energy:  -501.04018946947190
    Total Energy =                       -501.0401894694716702
  Basis Set: 6-31G*
  Basis Set:
  Basis Set: 6-31G*
  Basis Set:
  @DF-RHF Final Energy:  -501.04020622304620
    Total Energy =                       -501.0402062230467664
  Basis Set: 6-31G*
  Basis Set:
  Charge       = 0
  Multiplicity = 1
  Basis Set: 6-31G*
  Basis Set:

    Orbital Energies (a.u.)
    -----------------------

    Doubly Occupied:

       1A    -20.603453     2A    -20.545354     3A    -11.371862
       4A    -11.280725     5A    -11.235642     6A    -11.218544
       7A    -11.217092     8A    -11.215067     9A    -11.214945
      10A    -11.213338    11A    -11.208408    12A     -1.469121
      13A     -1.362579    14A     -1.095947    15A     -1.066681
      16A     -1.019649    17A     -0.977138    18A     -0.926534
      19A     -0.856892    20A     -0.801543    21A     -0.790406
      22A     -0.766937    23A     -0.699610    24A     -0.682294
      25A     -0.672218    26A     -0.650591    27A     -0.628146
      28A     -0.600704    29A     -0.595868    30A     -0.582318
      31A     -0.565308    32A     -0.547345    33A     -0.531321
      34A     -0.529584    35A     -0.514696    36A     -0.506594
      37A     -0.499014    38A     -0.478194    39A     -0.468572
      40A     -0.462288    41A     -0.459915    42A     -0.455990
      43A     -0.442535    44A     -0.431325

  @DF-RHF Final Energy:  -501.04020626599765

   => Energetics <=

    Nuclear Repulsion Energy =            604.6012738550579115
    One-Electron Energy =               -1880.3583902448290246
    Two-Electron Energy =                 774.7169101237738005
    DFT Exchange-Correlation Energy =       0.0000000000000000
    Empirical Dispersion Energy =           0.0000000000000000
    PCM Polarization Energy =               0.0000000000000000
    EFP Energy =                            0.0000000000000000
    Total Energy =                       -501.0402062659971989
    Molecular point group: c1
  Basis Set: 6-31G*
  Basis Set:

  -Total Gradient:
     Atom            X                  Y                   Z
    ------   -----------------  -----------------  -----------------
       1        0.000003283339     0.000002586171     0.000008166906
       2       -0.000016139528    -0.000006879039    -0.000019115486
       3        0.000005802912    -0.000016580147    -0.000007483768
       4        0.000003041162    -0.000003039194    -0.000000696780
       5       -0.000035283179    -0.000368877557    -0.000071812557
       6        0.000007716155     0.000008222666     0.000011053589
       7        0.000003596795     0.000009773561     0.000005436047
       8        0.000118700976    -0.000091596411     0.000260101218
       9       -0.000020856352     0.000324536271     0.000012989092
      10       -0.000025249236    -0.000011787616     0.000006796293
      11       -0.000073233357     0.000147636185    -0.000172747572
      12        0.000043459195    -0.000003792629    -0.000010911188
      13       -0.000007567301     0.000004082665    -0.000007120864
      14       -0.000002232020     0.000018527126    -0.000019981415
      15       -0.000007435797    -0.000010079412    -0.000001720146
      16        0.000000452091     0.000001237243     0.000002599830
      17        0.000006014199    -0.000008330475     0.000009296491
      18        0.000010053325     0.000000477425    -0.000007752903
      19       -0.000013457318     0.000002038191     0.000002451284
      20       -0.000001490844     0.000001768305    -0.000005356500
      21        0.000001565872    -0.000000419506     0.000003973891
      22        0.000000874780    -0.000003022299     0.000001693580
      23        0.000000128734     0.000001438080    -0.000002353707
      24        0.000002057632     0.000002181441     0.000001043328
      25       -0.000001877496    -0.000002450401    -0.000000662998
      26       -0.000003484514     0.000002984387     0.000002892772
      27       -0.000000120069    -0.000000025708    -0.000000395781
      28        0.000000498583    -0.000000415063    -0.000000055664
      29        0.000001181247    -0.000000194266    -0.000000326987

  **** Optimization is complete! (in 8 steps) ****
    Final optimized geometry and variables:
    Molecular point group: c1

    Geometry (in Angstrom), charge = 0, multiplicity = 1:

    O            2.920255448117    -0.142242865765    -1.571777364656
    C            2.416978300176    -1.042446294005    -0.980463398467
    C            0.977222505376    -1.102574316320    -0.531717666062
    O            3.076423559438    -2.139291836261    -0.629209792317
    C            0.166349739578     0.129991033935    -0.923857986404
    H            0.543715847326    -2.007678600070    -0.947820668927
    H            0.978522470426    -1.243967170568     0.545946498234
    C           -1.297868113688     0.062280040677    -0.434588245536
    H            0.202489928574     0.246688165724    -2.000876731918
    H            0.654294217204     1.010080248765    -0.519178645324
    C           -1.661724634399     1.176091513269     0.550628147822
    H           -1.489592850056    -0.899307362507     0.036964146423
    H           -1.971818676138     0.112100351804    -1.285523337934
    C           -3.109045379030     1.103600745700     1.038343435788
    H           -0.989494344328     1.131389478451     1.406429406271
    H           -1.487280212646     2.141007519228     0.078276956358
    C           -3.473510151876     2.217274805538     2.021872521945
    H           -3.282775536026     0.137678215276     1.510279750558
    H           -3.780155049217     1.148044433553     0.181983058454
    C           -4.921840646854     2.139024746236     2.503417100357
    H           -2.805524329040     2.172988204459     2.879495344395
    H           -3.301613622953     3.183049556547     1.551521032867
    H           -5.149672433509     2.941397910242     3.198344157779
    H           -5.116413060727     1.197766582866     3.009873169973
    H           -5.616267232723     2.215092384531     1.671405637040
    C            4.443825317011    -2.210243155406    -0.989927401762
    H            4.556920292975    -2.158634541475    -2.063271845750
    H            4.797184259595    -3.160906112532    -0.622018939016
    H            4.999338911139    -1.402754726486    -0.535062881561

  Mulliken Charges: (a.u.)
   Center  Symbol    Alpha    Beta     Spin     Total
       1     O     4.28601  4.28601  0.00000 -0.57202
       2     C     2.60576  2.60576  0.00000  0.78848
       3     C     3.20980  3.20980  0.00000 -0.41959
       4     O     4.30734  4.30734  0.00000 -0.61468
       5     C     3.15616  3.15616  0.00000 -0.31232
       6     H     0.40022  0.40022  0.00000  0.19956
       7     H     0.40082  0.40082  0.00000  0.19835
       8     C     3.15821  3.15821  0.00000 -0.31642
       9     H     0.40939  0.40939  0.00000  0.18122
      10     H     0.40845  0.40845  0.00000  0.18311
      11     C     3.15374  3.15374  0.00000 -0.30749
      12     H     0.42205  0.42205  0.00000  0.15590
      13     H     0.41852  0.41852  0.00000  0.16296
      14     C     3.15159  3.15159  0.00000 -0.30318
      15     H     0.42429  0.42429  0.00000  0.15142
      16     H     0.42091  0.42091  0.00000  0.15818
      17     C     3.15139  3.15139  0.00000 -0.30278
      18     H     0.42443  0.42443  0.00000  0.15114
      19     H     0.42374  0.42374  0.00000  0.15253
      20     C     3.23927  3.23927  0.00000 -0.47855
      21     H     0.42318  0.42318  0.00000  0.15365
      22     H     0.42256  0.42256  0.00000  0.15487
      23     H     0.41925  0.41925  0.00000  0.16149
      24     H     0.42204  0.42204  0.00000  0.15592
      25     H     0.42175  0.42175  0.00000  0.15650
      26     C     3.09244  3.09244  0.00000 -0.18488
      27     H     0.40908  0.40908  0.00000  0.18185
      28     H     0.40849  0.40849  0.00000  0.18302
      29     H     0.40912  0.40912  0.00000  0.18176

   Total alpha = 44.00000, Total beta = 44.00000, Total charge =  0.00000
