  ==> Input File <==

--------------------------------------------------------------------------
set {
	reference rhf
	basis 6-31G*
}

set_num_threads( 4 )
memory 2 gb

molecule MOL {
0 1

H	 1.322632	 -2.270387	 2.679561
O	 1.383405	 -1.962177	 1.780635
C	 0.590359	 -0.898494	 1.653856
C	 0.624473	 -0.343591	 0.253101
O	 -0.047381	 -0.474611	 2.561945
C	 -0.265902	 0.883932	 0.072916
H	 1.663163	 -0.132061	 0.021260
H	 0.327854	 -1.145752	 -0.417948
C	 -1.728698	 0.646073	 0.462102
H	 -0.209144	 1.219470	 -0.958188
H	 0.135059	 1.692851	 0.673903
C	 -2.482460	 -0.343073	 -0.431425
H	 -2.245265	 1.602650	 0.432430
H	 -1.779332	 0.308348	 1.496285
C	 -3.960546	 -0.461025	 -0.060175
H	 -2.395034	 -0.026811	 -1.468912
H	 -2.024850	 -1.327147	 -0.371646
H	 -4.472726	 -1.168004	 -0.705284
H	 -4.465146	 0.496508	 -0.151489
H	 -4.081218	 -0.800940	 0.964585

	symmetry c1
}
set optking {
	frozen_dihedral = ("
		7 4 6 10
	")
}

ee = optimize('scf')
oeprop('DIPOLE', 'QUADRUPOLE', 'MULLIKEN_CHARGES')
f=open( 'psi4out.xyz', 'w' )
f.write( "20  " )
f.write( str(ee) + "\n" )
f.write( MOL.save_string_xyz() )
f.close()
--------------------------------------------------------------------------

    Molecular point group: c1
  Charge       = 0
  Multiplicity = 1
  Basis Set: 6-31G*
  Basis Set:
  @DF-RHF Final Energy:  -383.94439908105352
    Total Energy =                       -383.9443990810540299
    Molecular point group: c1
  Basis Set: 6-31G*
  Basis Set:
  Basis Set: 6-31G*
  Basis Set:
  @DF-RHF Final Energy:  -383.94692936101598
    Total Energy =                       -383.9469293610161458
  Basis Set: 6-31G*
  Basis Set:
  Basis Set: 6-31G*
  Basis Set:
  @DF-RHF Final Energy:  -383.94596051266461
    Total Energy =                       -383.9459605126647830
  Basis Set: 6-31G*
  Basis Set:
  Basis Set: 6-31G*
  Basis Set:
  @DF-RHF Final Energy:  -383.94739115223780
    Total Energy =                       -383.9473911522380831
  Basis Set: 6-31G*
  Basis Set:
  @DF-RHF Final Energy:  -383.94762071506722
    Total Energy =                       -383.9476207150670461
  @DF-RHF Final Energy:  -383.94769690224064
    Total Energy =                       -383.9476969022407502
  Basis Set: 6-31G*
  Basis Set:
  @DF-RHF Final Energy:  -383.94771665751364
    Total Energy =                       -383.9477166575137517
  Basis Set: 6-31G*
  Basis Set:
  Basis Set: 6-31G*
  Basis Set:
  @DF-RHF Final Energy:  -383.94774225492085
    Total Energy =                       -383.9477422549206267
  Basis Set: 6-31G*
  Basis Set:
  Basis Set: 6-31G*
  Basis Set:
  @DF-RHF Final Energy:  -383.94775849135522
    Total Energy =                       -383.9477584913554438
  Basis Set: 6-31G*
  Basis Set:
  Charge       = 0
  Multiplicity = 1
  Basis Set: 6-31G*
  Basis Set:

    Orbital Energies (a.u.)
    -----------------------

    Doubly Occupied:

       1A    -20.614082     2A    -20.551550     3A    -11.381953
       4A    -11.240524     5A    -11.224984     6A    -11.217623
       7A    -11.213535     8A    -11.209523     9A     -1.475690
      10A     -1.366109    11A     -1.093858    12A     -1.038518
      13A     -0.958347    14A     -0.871064    15A     -0.816048
      16A     -0.772769    17A     -0.702132    18A     -0.686225
      19A     -0.662887    20A     -0.633094    21A     -0.604043
      22A     -0.591951    23A     -0.574816    24A     -0.555544
      25A     -0.533621    26A     -0.513857    27A     -0.499973
      28A     -0.481847    29A     -0.467391    30A     -0.463562
      31A     -0.453576    32A     -0.439409

  @DF-RHF Final Energy:  -383.94775915937885

   => Energetics <=

    Nuclear Repulsion Energy =            387.2504447449778127
    One-Electron Energy =               -1290.5761983511110884
    Two-Electron Energy =                 519.3779944467543146
    DFT Exchange-Correlation Energy =       0.0000000000000000
    Empirical Dispersion Energy =           0.0000000000000000
    PCM Polarization Energy =               0.0000000000000000
    EFP Energy =                            0.0000000000000000
    Total Energy =                       -383.9477591593789612
    Molecular point group: c1
  Basis Set: 6-31G*
  Basis Set:

  -Total Gradient:
     Atom            X                  Y                   Z
    ------   -----------------  -----------------  -----------------
       1       -0.000034435321     0.000053281955    -0.000026661250
       2        0.000033781515    -0.000022978160    -0.000107253277
       3        0.000022340410    -0.000093756684     0.000087841092
       4       -0.000838778037    -0.000936562573    -0.002670001177
       5       -0.000042529912     0.000105634062    -0.000002864572
       6        0.002091254970     0.001684998023     0.001144612086
       7        0.000401142872     0.000536443249     0.002072741760
       8        0.000016680941    -0.000025964284     0.000016905880
       9        0.000014979760     0.000037263900    -0.000059888089
      10       -0.001659620450    -0.001319456635    -0.000499634397
      11       -0.000017167735    -0.000002549369     0.000003320089
      12       -0.000028749590     0.000011092776    -0.000037693479
      13       -0.000015836080     0.000001458289    -0.000000339427
      14        0.000042216592    -0.000040478701     0.000054261850
      15        0.000001781695     0.000005309198     0.000013777400
      16        0.000021161232    -0.000001079669    -0.000008630765
      17       -0.000010337194     0.000006803399     0.000018887619
      18        0.000006206405     0.000002545354    -0.000001936263
      19        0.000001366784     0.000001091999    -0.000000370231
      20       -0.000005458861    -0.000003096129     0.000002925151

  **** Optimization is complete! (in 10 steps) ****
    Final optimized geometry and variables:
    Molecular point group: c1

    Geometry (in Angstrom), charge = 0, multiplicity = 1:

    H            1.917346211506    -1.992001624701     1.785127274686
    O            1.844516893614    -1.724377197261     0.874023601306
    C            1.389738562926    -0.472821329267     0.846845960273
    C            1.303609967323     0.064068426325    -0.560448747279
    O            1.132748538371     0.126322250732     1.840806773264
    C            0.388571643162     1.281911232651    -0.708853343273
    H            2.324583041692     0.341685495838    -0.815316680103
    H            1.030686133137    -0.744829291162    -1.225881663002
    C           -1.086450811272     1.047805521129    -0.357168229347
    H            0.445563726339     1.608489064732    -1.744441898997
    H            0.775555551012     2.086772414811    -0.094574373346
    C           -1.802244617980     0.028564991205    -1.248413818534
    H           -1.601012088191     2.002570274579    -0.440701611944
    H           -1.171197545864     0.749232156685     0.682775335154
    C           -3.294067773975    -0.078857900648    -0.932677002991
    H           -1.673762384113     0.306449395231    -2.292996654962
    H           -1.348429398815    -0.953094439616    -1.135656147582
    H           -3.779763533755    -0.810654023362    -1.570722286504
    H           -3.795022922393     0.873663769018    -1.079808009340
    H           -3.454703013391    -0.379749933493     0.098597010854

  Mulliken Charges: (a.u.)
   Center  Symbol    Alpha    Beta     Spin     Total
       1     H     0.26805  0.26805  0.00000  0.46391
       2     O     4.35033  4.35033  0.00000 -0.70066
       3     C     2.62267  2.62267  0.00000  0.75467
       4     C     3.21449  3.21449  0.00000 -0.42898
       5     O     4.28116  4.28116  0.00000 -0.56231
       6     C     3.15440  3.15440  0.00000 -0.30879
       7     H     0.39580  0.39580  0.00000  0.20840
       8     H     0.39690  0.39690  0.00000  0.20620
       9     C     3.16117  3.16117  0.00000 -0.32233
      10     H     0.41863  0.41863  0.00000  0.16274
      11     H     0.40676  0.40676  0.00000  0.18647
      12     C     3.15475  3.15475  0.00000 -0.30950
      13     H     0.42038  0.42038  0.00000  0.15923
      14     H     0.40715  0.40715  0.00000  0.18570
      15     C     3.23890  3.23890  0.00000 -0.47780
      16     H     0.42406  0.42406  0.00000  0.15187
      17     H     0.42391  0.42391  0.00000  0.15217
      18     H     0.41934  0.41934  0.00000  0.16133
      19     H     0.42113  0.42113  0.00000  0.15773
      20     H     0.42002  0.42002  0.00000  0.15995

   Total alpha = 32.00000, Total beta = 32.00000, Total charge =  0.00000
