                              Psi4 1.0.54 Driver

  ==> Input File <==

--------------------------------------------------------------------------
set {
	reference rhf
	basis cc-pvtz
}

set_num_threads( 4 )
memory 2 gb

molecule MOL {
0 1

O	 1.294735	 1.149866	 1.784769
C	 0.570239	 1.133633	 0.831061
C	 -0.462513	 2.226349	 0.646049
N	 0.622280	 0.144970	 -0.099307
H	 -1.465275	 1.819498	 0.610205
H	 -0.378882	 2.894444	 1.486970
H	 -0.291106	 2.780484	 -0.268570
C	 1.664396	 -0.854993	 0.000772
C	 -0.067251	 0.192930	 -1.366588
H	 2.462727	 -0.615153	 -0.690869
H	 1.261798	 -1.821849	 -0.240651
H	 2.081615	 -0.891605	 1.003877
H	 -0.347006	 -0.811396	 -1.657625
H	 -0.969222	 0.777621	 -1.307592
H	 0.559199	 0.605386	 -2.154297

	symmetry c1
}
set optking {
	frozen_dihedral = ("
		2 4 8 10
	")
}

ee,wfn = optimize('scf', return_wfn=True)
oeprop( wfn, 'DIPOLE', 'QUADRUPOLE', 'MULLIKEN_CHARGES')
f=open( 'psi4out.xyz', 'w' )
f.write( "15  " )
f.write( str(ee) + "\n" )
f.write( MOL.save_string_xyz() )
f.close()
--------------------------------------------------------------------------

    Molecular point group: c1
  Charge       = 0
  Multiplicity = 1
  Basis Set: CC-PVTZ
  Basis Set:
  @DF-RHF Final Energy:  -286.13524502753768
    Total Energy =                       -286.1352450275375645
    Molecular point group: c1
  Basis Set: CC-PVTZ
  Basis Set:
  Basis Set: CC-PVTZ
  Basis Set:
  @DF-RHF Final Energy:  -286.13559788960322
    Total Energy =                       -286.1355978896034458
  Basis Set: CC-PVTZ
  Basis Set:
  Basis Set: CC-PVTZ
  Basis Set:
  @DF-RHF Final Energy:  -286.13558739297684
    Total Energy =                       -286.1355873929767313
  Basis Set: CC-PVTZ
  Basis Set:
  Basis Set: CC-PVTZ
  Basis Set:
  @DF-RHF Final Energy:  -286.13563273841987
    Total Energy =                       -286.1356327384198721
  Basis Set: CC-PVTZ
  Basis Set:
  Basis Set: CC-PVTZ
  Basis Set:
  @DF-RHF Final Energy:  -286.13563940081337
    Total Energy =                       -286.1356394008134885
  Basis Set: CC-PVTZ
  Basis Set:
  Charge       = 0
  Multiplicity = 1
  Basis Set: CC-PVTZ
  Basis Set:

    Orbital Energies (a.u.)
    -----------------------

    Doubly Occupied:

       1A    -20.503665     2A    -15.578462     3A    -11.335148
       4A    -11.263963     5A    -11.246445     6A    -11.226478
       7A     -1.387379     8A     -1.246335     9A     -1.015118
      10A     -0.973185    11A     -0.920844    12A     -0.739037
      13A     -0.683304    14A     -0.661956    15A     -0.653836
      16A     -0.590278    17A     -0.578209    18A     -0.567523
      19A     -0.561752    20A     -0.548398    21A     -0.530365
      22A     -0.507305    23A     -0.413743    24A     -0.370524

  @DF-RHF Final Energy:  -286.13563982939559

   => Energetics <=

    Nuclear Repulsion Energy =            252.9002433393397098
    One-Electron Energy =                -889.8652630244612283
    Two-Electron Energy =                 350.8293798557260743
    DFT Exchange-Correlation Energy =       0.0000000000000000
    Empirical Dispersion Energy =           0.0000000000000000
    PCM Polarization Energy =               0.0000000000000000
    EFP Energy =                            0.0000000000000000
    Total Energy =                       -286.1356398293954726
    Molecular point group: c1
  Basis Set: CC-PVTZ
  Basis Set:

  -Total Gradient:
     Atom            X                  Y                   Z
    ------   -----------------  -----------------  -----------------
       1        0.000000827771     0.000023920288    -0.000005190750
       2        0.000014887175     0.000036136572     0.000017825256
       3       -0.000017331162    -0.000039158383     0.000008090463
       4       -0.000067455395    -0.000047427724     0.000020497799
       5        0.000000183063     0.000009073846    -0.000003620537
       6        0.000004520552    -0.000000042077    -0.000004459552
       7        0.000008637769    -0.000012032927    -0.000014404188
       8       -0.000002362972    -0.000039058779    -0.000046022789
       9        0.000050005760     0.000034840746    -0.000030059082
      10        0.000007663630    -0.000015891456    -0.000004543478
      11        0.000016792653     0.000028129743     0.000021183202
      12       -0.000002261796    -0.000004300416     0.000011953878
      13        0.000018243627     0.000008236212     0.000012401593
      14       -0.000022881715     0.000007148201     0.000025161047
      15       -0.000009468962     0.000010426155    -0.000008812860

  **** Optimization is complete! (in 6 steps) ****
    Final optimized geometry and variables:
    Molecular point group: c1

    Geometry (in Angstrom), charge = 0, multiplicity = 1:

    O            0.688448158833     0.509978782757     1.488229973027
    C           -0.033857224511     0.482281715930     0.533121610798
    C           -1.060019824871     1.577730914707     0.328601794539
    N            0.016222580795    -0.520225372550    -0.382083878104
    H           -2.065267326993     1.176442666190     0.300965217090
    H           -0.971746805414     2.260435325153     1.157217438735
    H           -0.885836024248     2.114011165117    -0.596038296118
    C            1.050375515738    -1.526308972115    -0.264109180702
    C           -0.677153045048    -0.495187772411    -1.647706752009
    H            1.872199704936    -1.328463203494    -0.947460157313
    H            0.637912628038    -2.499387769892    -0.501682438836
    H            1.431419884910    -1.536279096251     0.740782518164
    H           -0.969783328685    -1.502948666894    -1.913559210864
    H           -1.571684762452     0.101684216854    -1.600650107969
    H           -0.048077456517    -0.109636514457    -2.446785556996

  Mulliken Charges: (a.u.)
   Center  Symbol    Alpha    Beta     Spin     Total
       1     O     4.22070  4.22070  0.00000 -0.44139
       2     C     2.84543  2.84543  0.00000  0.30913
       3     C     3.16078  3.16078  0.00000 -0.32155
       4     N     3.56176  3.56176  0.00000 -0.12352
       5     H     0.44888  0.44888  0.00000  0.10224
       6     H     0.42862  0.42862  0.00000  0.14275
       7     H     0.44924  0.44924  0.00000  0.10152
       8     C     3.09889  3.09889  0.00000 -0.19779
       9     C     3.09563  3.09563  0.00000 -0.19126
      10     H     0.45790  0.45790  0.00000  0.08421
      11     H     0.45667  0.45667  0.00000  0.08667
      12     H     0.42633  0.42633  0.00000  0.14734
      13     H     0.44948  0.44948  0.00000  0.10104
      14     H     0.44508  0.44508  0.00000  0.10985
      15     H     0.45462  0.45462  0.00000  0.09077

   Total alpha = 24.00000, Total beta = 24.00000, Total charge = -0.00000

*** Psi4 exiting successfully. Buy a developer a beer!
