  ==> Input File <==

--------------------------------------------------------------------------
set {
	reference rhf
	basis cc-pvtz
}

set_num_threads( 4 )
memory 2 gb

molecule MOL {
0 1

H	 1.446530	 1.048537	 0.689494
C	 0.848385	 0.440008	 0.000011
C	 -0.623497	 0.751021	 0.000090
O	 1.368629	 -0.383552	 -0.669570
C	 -1.523725	 -0.474323	 -0.000013
H	 -0.813143	 1.382932	 -0.864897
H	 -0.813071	 1.382716	 0.865253
H	 -1.342980	 -1.087348	 -0.873016
H	 -2.565269	 -0.177464	 0.000070
H	 -1.342898	 -1.087564	 0.872820

	symmetry c1
}
set optking {
	frozen_dihedral = ("
		4 2 3 6
	")
}

ee = optimize('scf')
oeprop('DIPOLE', 'QUADRUPOLE', 'MULLIKEN_CHARGES')
f=open( 'psi4out.xyz', 'w' )
f.write( "10  " )
f.write( str(ee) + "\n" )
f.write( MOL.save_string_xyz() )
f.close()
--------------------------------------------------------------------------

    Molecular point group: c1
  Charge       = 0
  Multiplicity = 1
  Basis Set: CC-PVTZ
  Basis Set:
  @DF-RHF Final Energy:  -192.02168882963656
    Total Energy =                       -192.0216888296365312
    Molecular point group: c1
  Basis Set: CC-PVTZ
  Basis Set:
  Basis Set: CC-PVTZ
  Basis Set:
  @DF-RHF Final Energy:  -192.02158653558490
    Total Energy =                       -192.0215865355848166
  Basis Set: CC-PVTZ
  Basis Set:
  Basis Set: CC-PVTZ
  Basis Set:
  @DF-RHF Final Energy:  -192.02165686882185
    Total Energy =                       -192.0216568688217933
  Basis Set: CC-PVTZ
  Basis Set:
  Basis Set: CC-PVTZ
  Basis Set:
  @DF-RHF Final Energy:  -192.02232851435616
    Total Energy =                       -192.0223285143561611
  Basis Set: CC-PVTZ
  Basis Set:
  Charge       = 0
  Multiplicity = 1
  Basis Set: CC-PVTZ
  Basis Set:

    Orbital Energies (a.u.)
    -----------------------

    Doubly Occupied:

       1A    -20.553470     2A    -11.323734     3A    -11.238582
       4A    -11.221221     5A     -1.409237     6A     -1.060754
       7A     -0.908412     8A     -0.779079     9A     -0.686390
      10A     -0.640953    11A     -0.621624    12A     -0.557571
      13A     -0.536606    14A     -0.515213    15A     -0.494301
      16A     -0.415153

  @DF-RHF Final Energy:  -192.02234494849620

   => Energetics <=

    Nuclear Repulsion Energy =            119.0779317581241088
    One-Electron Energy =                -496.2759508102087693
    Two-Electron Energy =                 185.1756741035884488
    DFT Exchange-Correlation Energy =       0.0000000000000000
    Empirical Dispersion Energy =           0.0000000000000000
    PCM Polarization Energy =               0.0000000000000000
    EFP Energy =                            0.0000000000000000
    Total Energy =                       -192.0223449484961975
    Molecular point group: c1
  Basis Set: CC-PVTZ
  Basis Set:

  -Total Gradient:
     Atom            X                  Y                   Z
    ------   -----------------  -----------------  -----------------
       1       -0.000010362244     0.000029530275     0.000026998011
       2       -0.000489652350    -0.002393337264     0.002156339857
       3        0.000634033177     0.002545142992     0.000647731022
       4        0.000238765218     0.001477639890    -0.001656784969
       5       -0.000000704141     0.000103041834     0.000051403135
       6       -0.000395866068    -0.001698897229    -0.001184288418
       7        0.000034544228    -0.000065189368    -0.000044856138
       8        0.000023302243     0.000033086586    -0.000010537832
       9       -0.000015802091    -0.000003619806     0.000003387215
      10       -0.000018257971    -0.000027397911     0.000010608117

  **** Optimization is complete! (in 5 steps) ****
    Final optimized geometry and variables:
    Molecular point group: c1

    Geometry (in Angstrom), charge = 0, multiplicity = 1:

    H            1.490486535602     1.012148279375     0.786590651441
    C            0.844826552026     0.375798408171     0.169899935491
    C           -0.629646135950     0.702192964966     0.198827801538
    O            1.320308608548    -0.476075495155    -0.497925998531
    C           -1.520899599842    -0.535981608993     0.159018614261
    H           -0.817873220271     1.310765149475    -0.682712919163
    H           -0.844720565113     1.317265979866     1.064593161669
    H           -1.296387907535    -1.139003854680    -0.709158523159
    H           -2.564212551611    -0.248794553814     0.119738309378
    H           -1.374573402968    -1.150334819184     1.039610859261

  Mulliken Charges: (a.u.)
   Center  Symbol    Alpha    Beta     Spin     Total
       1     H     0.45465  0.45465  0.00000  0.09071
       2     C     2.91384  2.91384  0.00000  0.17232
       3     C     3.08390  3.08390  0.00000 -0.16780
       4     O     4.16671  4.16671  0.00000 -0.33343
       5     C     3.14248  3.14248  0.00000 -0.28495
       6     H     0.44625  0.44625  0.00000  0.10749
       7     H     0.44849  0.44849  0.00000  0.10302
       8     H     0.44171  0.44171  0.00000  0.11659
       9     H     0.44904  0.44904  0.00000  0.10193
      10     H     0.45294  0.45294  0.00000  0.09413

   Total alpha = 16.00000, Total beta = 16.00000, Total charge =  0.00000
