  ==> Input File <==

--------------------------------------------------------------------------
set {
	reference rhf
	basis 6-31G*
}

set_num_threads( 4 )
memory 2 gb

molecule MOL {
0 1

H	 -3.085809	 -0.719684	 1.141919
C	 -3.183792	 -0.446424	 0.083925
C	 -2.660244	 0.921717	 -0.272021
O	 -3.674264	 -1.206653	 -0.686296
C	 -1.220012	 1.144545	 0.209990
H	 -2.746383	 1.052606	 -1.344475
H	 -3.314684	 1.649134	 0.206757
C	 -0.252658	 0.041456	 -0.226725
H	 -0.873521	 2.100229	 -0.171974
H	 -1.211708	 1.231594	 1.295398
C	 1.180775	 0.282413	 0.250794
H	 -0.266029	 -0.034465	 -1.312038
H	 -0.597733	 -0.921000	 0.146291
C	 2.148627	 -0.814315	 -0.201312
H	 1.516199	 1.249228	 -0.115937
H	 1.192670	 0.346017	 1.338083
C	 3.580890	 -0.659131	 0.322722
H	 2.166869	 -0.852443	 -1.289387
H	 1.762857	 -1.776509	 0.128956
C	 4.324889	 0.564933	 -0.213704
H	 4.142010	 -1.551473	 0.056605
H	 3.564836	 -0.624694	 1.410140
H	 4.342616	 0.565491	 -1.300421
H	 3.866655	 1.493402	 0.110242
H	 5.353900	 0.572371	 0.132816

	symmetry c1
}
set optking {
	frozen_dihedral = ("
		6 3 5 8
	")
}

ee = optimize('scf')
oeprop('DIPOLE', 'QUADRUPOLE', 'MULLIKEN_CHARGES')
f=open( 'psi4out.xyz', 'w' )
f.write( "25  " )
f.write( str(ee) + "\n" )
f.write( MOL.save_string_xyz() )
f.close()
--------------------------------------------------------------------------

    Molecular point group: c1
  Charge       = 0
  Multiplicity = 1
  Basis Set: 6-31G*
  Basis Set:
  @DF-RHF Final Energy:  -387.12101994936859
    Total Energy =                       -387.1210199493683604
    Molecular point group: c1
  Basis Set: 6-31G*
  Basis Set:
  Basis Set: 6-31G*
  Basis Set:
  @DF-RHF Final Energy:  -387.12049770805226
    Total Energy =                       -387.1204977080521985
  Basis Set: 6-31G*
  Basis Set:
  Basis Set: 6-31G*
  Basis Set:
  @DF-RHF Final Energy:  -387.12032371733727
    Total Energy =                       -387.1203237173373282
  Basis Set: 6-31G*
  Basis Set:
  Basis Set: 6-31G*
  Basis Set:
  @DF-RHF Final Energy:  -387.12114989150558
    Total Energy =                       -387.1211498915054108
  Basis Set: 6-31G*
  Basis Set:
  @DF-RHF Final Energy:  -387.12120890798911
    Total Energy =                       -387.1212089079890575
  Basis Set: 6-31G*
  Basis Set:
  @DF-RHF Final Energy:  -387.12121399111248
    Total Energy =                       -387.1212139911121994
  Basis Set: 6-31G*
  Basis Set:
  Basis Set: 6-31G*
  Basis Set:
  @DF-RHF Final Energy:  -387.12121062384665
    Total Energy =                       -387.1212106238469914
  Basis Set: 6-31G*
  Basis Set:
  Basis Set: 6-31G*
  Basis Set:
  @DF-RHF Final Energy:  -387.12121645884440
    Total Energy =                       -387.1212164588445148
  Basis Set: 6-31G*
  Basis Set:
  Charge       = 0
  Multiplicity = 1
  Basis Set: 6-31G*
  Basis Set:

    Orbital Energies (a.u.)
    -----------------------

    Doubly Occupied:

       1A    -20.561588     2A    -11.326275     3A    -11.235394
       4A    -11.234640     5A    -11.224665     6A    -11.220319
       7A    -11.218294     8A    -11.217290     9A    -11.210843
      10A     -1.401608    11A     -1.104098    12A     -1.069673
      13A     -1.013463    14A     -0.942579    15A     -0.875965
      16A     -0.824196    17A     -0.784550    18A     -0.781851
      19A     -0.666381    20A     -0.659185    21A     -0.633223
      22A     -0.626504    23A     -0.600656    24A     -0.596921
      25A     -0.575465    26A     -0.547794    27A     -0.539934
      28A     -0.524443    29A     -0.505333    30A     -0.495352
      31A     -0.494123    32A     -0.477818    33A     -0.464826
      34A     -0.459380    35A     -0.441578    36A     -0.409452

  @DF-RHF Final Energy:  -387.12121635692148

   => Energetics <=

    Nuclear Repulsion Energy =            439.6702943303412781
    One-Electron Energy =               -1395.6517030623672326
    Two-Electron Energy =                 568.8601923751043614
    DFT Exchange-Correlation Energy =       0.0000000000000000
    Empirical Dispersion Energy =           0.0000000000000000
    PCM Polarization Energy =               0.0000000000000000
    EFP Energy =                            0.0000000000000000
    Total Energy =                       -387.1212163569216500
    Molecular point group: c1
  Basis Set: 6-31G*
  Basis Set:

  -Total Gradient:
     Atom            X                  Y                   Z
    ------   -----------------  -----------------  -----------------
       1        0.000026801894     0.000013368477     0.000000140423
       2       -0.000035227737     0.000032233108    -0.000006099871
       3        0.000557807286    -0.004630228211     0.000149823634
       4        0.000030590189    -0.000000064300    -0.000013921119
       5        0.000600257011     0.002619846244    -0.002667329769
       6       -0.000625559675     0.003253955668     0.000522760523
       7       -0.000003646339    -0.000005733626     0.000022107302
       8       -0.000526635558    -0.001250946671     0.001963427570
       9        0.000001087226    -0.000004657083    -0.000003610787
      10       -0.000020901593     0.000004551823     0.000001876817
      11       -0.000011210184    -0.000015822207     0.000032012344
      12       -0.000006310787    -0.000024031727    -0.000008984222
      13        0.000004048017     0.000017894413     0.000016464655
      14        0.000016576783     0.000001807020    -0.000009288301
      15       -0.000006005795     0.000000016580     0.000006106003
      16       -0.000003730879    -0.000002654901     0.000011904568
      17        0.000003392050    -0.000002111568    -0.000020681279
      18       -0.000000999232    -0.000010059219    -0.000001414115
      19        0.000012172385     0.000002350689     0.000006709979
      20       -0.000000488846    -0.000001624314     0.000000626312
      21        0.000002710441    -0.000002374723    -0.000000334777
      22       -0.000007292242     0.000001004461    -0.000003477568
      23       -0.000000720066     0.000000652327    -0.000000423267
      24       -0.000007875970     0.000002199394     0.000001773096
      25        0.000001161618     0.000000428347    -0.000000168150

  **** Optimization is complete! (in 9 steps) ****
    Final optimized geometry and variables:
    Molecular point group: c1

    Geometry (in Angstrom), charge = 0, multiplicity = 1:

    H           -3.186463996535    -0.687319665901     1.210706736382
    C           -3.257743032480    -0.407398090263     0.152417794720
    C           -2.678906422332     0.940040751754    -0.190288656361
    O           -3.775922682044    -1.140841919263    -0.625709373749
    C           -1.243059830397     1.136626005582     0.320232178592
    H           -2.747825622774     1.098477071148    -1.260319682533
    H           -3.319672526227     1.685955218822     0.280066444901
    C           -0.269288665131     0.040791737608    -0.122823602162
    H           -0.889591795617     2.104601896157    -0.021892486059
    H           -1.253166000482     1.184296258512     1.407617094361
    C            1.165660397261     0.297925011581     0.341785938990
    H           -0.289878356142    -0.042319701770    -1.207775182350
    H           -0.600405588011    -0.922807432780     0.259188480499
    C            2.138292295906    -0.798857742184    -0.099963505917
    H            1.492043956937     1.261640357238    -0.040575086259
    H            1.183499106871     0.377169665964     1.427923489477
    C            3.572329235437    -0.626862293313     0.413781501521
    H            2.151170543217    -0.851626566269    -1.187359312494
    H            1.760832780729    -1.759087335100     0.245263498978
    C            4.304452260640     0.596083586492    -0.141814178921
    H            4.138351613671    -1.518526134338     0.156134494144
    H            3.561512268424    -0.578833237173     1.500836043325
    H            4.319751619249     0.581307891827    -1.228338055808
    H            3.839260581753     1.525360914496     0.170062173216
    H            5.334070409177     0.617300663724     0.201728338917

  Mulliken Charges: (a.u.)
   Center  Symbol    Alpha    Beta     Spin     Total
       1     H     0.43233  0.43233  0.00000  0.13533
       2     C     2.83075  2.83075  0.00000  0.33851
       3     C     3.20853  3.20853  0.00000 -0.41705
       4     O     4.23828  4.23828  0.00000 -0.47655
       5     C     3.16393  3.16393  0.00000 -0.32785
       6     H     0.39980  0.39980  0.00000  0.20040
       7     H     0.40713  0.40713  0.00000  0.18573
       8     C     3.15714  3.15714  0.00000 -0.31428
       9     H     0.41242  0.41242  0.00000  0.17516
      10     H     0.41969  0.41969  0.00000  0.16062
      11     C     3.15409  3.15409  0.00000 -0.30819
      12     H     0.41666  0.41666  0.00000  0.16669
      13     H     0.41988  0.41988  0.00000  0.16025
      14     C     3.15308  3.15308  0.00000 -0.30615
      15     H     0.42047  0.42047  0.00000  0.15906
      16     H     0.42381  0.42381  0.00000  0.15238
      17     C     3.15278  3.15278  0.00000 -0.30556
      18     H     0.42265  0.42265  0.00000  0.15470
      19     H     0.42093  0.42093  0.00000  0.15813
      20     C     3.24140  3.24140  0.00000 -0.48281
      21     H     0.41989  0.41989  0.00000  0.16022
      22     H     0.42334  0.42334  0.00000  0.15333
      23     H     0.42175  0.42175  0.00000  0.15651
      24     H     0.42067  0.42067  0.00000  0.15867
      25     H     0.41861  0.41861  0.00000  0.16278

   Total alpha = 36.00000, Total beta = 36.00000, Total charge = -0.00000
