  ==> Input File <==

--------------------------------------------------------------------------
set {
	reference rhf
	basis 6-31G*
}

set_num_threads( 4 )
memory 2 gb

molecule MOL {
0 1

H	 -1.037422	 -0.616869	 0.175291
C	 -0.790252	 0.431209	 0.000000
N	 0.538815	 0.649616	 0.000000
O	 -1.634743	 1.260470	 -0.168432
C	 1.521968	 -0.411503	 0.000000
H	 0.852804	 1.592852	 0.000000
H	 2.150599	 -0.357004	 -0.881901
H	 0.999455	 -1.354525	 0.000000
H	 2.150599	 -0.357004	 0.881901

	symmetry c1
}
set optking {
	frozen_dihedral = ("
		1 2 3 6
	")
}

ee = optimize('scf')
oeprop('DIPOLE', 'QUADRUPOLE', 'MULLIKEN_CHARGES')
f=open( 'psi4out.xyz', 'w' )
f.write( "9  " )
f.write( str(ee) + "\n" )
f.write( MOL.save_string_xyz() )
f.close()
--------------------------------------------------------------------------

    Molecular point group: c1
  Charge       = 0
  Multiplicity = 1
  Basis Set: 6-31G*
  Basis Set:
  @DF-RHF Final Energy:  -207.95786594374647
    Total Energy =                       -207.9578659437465546
    Molecular point group: c1
  Basis Set: 6-31G*
  Basis Set:
  Basis Set: 6-31G*
  Basis Set:
  @DF-RHF Final Energy:  -207.95763321718013
    Total Energy =                       -207.9576332171800743
  Basis Set: 6-31G*
  Basis Set:
  Basis Set: 6-31G*
  Basis Set:
  @DF-RHF Final Energy:  -207.95871188625512
    Total Energy =                       -207.9587118862550028
  Basis Set: 6-31G*
  Basis Set:
  Basis Set: 6-31G*
  Basis Set:
  @DF-RHF Final Energy:  -207.95883510338396
    Total Energy =                       -207.9588351033840468
  Basis Set: 6-31G*
  Basis Set:
  @DF-RHF Final Energy:  -207.95888361895476
    Total Energy =                       -207.9588836189547862
  @DF-RHF Final Energy:  -207.95891109037774
    Total Energy =                       -207.9589110903777964
  Basis Set: 6-31G*
  Basis Set:
  @DF-RHF Final Energy:  -207.95893755197542
    Total Energy =                       -207.9589375519753673
  Basis Set: 6-31G*
  Basis Set:
  Basis Set: 6-31G*
  Basis Set:
  @DF-RHF Final Energy:  -207.95895563541620
    Total Energy =                       -207.9589556354161459
  Basis Set: 6-31G*
  Basis Set:
  Basis Set: 6-31G*
  Basis Set:
  @DF-RHF Final Energy:  -207.95896214615772
    Total Energy =                       -207.9589621461577451
  Basis Set: 6-31G*
  Basis Set:
  Charge       = 0
  Multiplicity = 1
  Basis Set: 6-31G*
  Basis Set:

    Orbital Energies (a.u.)
    -----------------------

    Doubly Occupied:

       1A    -20.526533     2A    -15.590022     3A    -11.345196
       4A    -11.276466     5A     -1.390235     6A     -1.240147
       7A     -0.965976     8A     -0.845990     9A     -0.691393
      10A     -0.675338    11A     -0.634180    12A     -0.592915
      13A     -0.571125    14A     -0.543790    15A     -0.424922
      16A     -0.390538

  @DF-RHF Final Energy:  -207.95896222762133

   => Energetics <=

    Nuclear Repulsion Energy =            120.3652080174912697
    One-Electron Energy =                -521.2388110506014982
    Two-Electron Energy =                 192.9146408054889434
    DFT Exchange-Correlation Energy =       0.0000000000000000
    Empirical Dispersion Energy =           0.0000000000000000
    PCM Polarization Energy =               0.0000000000000000
    EFP Energy =                            0.0000000000000000
    Total Energy =                       -207.9589622276212708
    Molecular point group: c1
  Basis Set: 6-31G*
  Basis Set:

  -Total Gradient:
     Atom            X                  Y                   Z
    ------   -----------------  -----------------  -----------------
       1        0.000254805605     0.000236256508     0.002154497193
       2       -0.000260987718    -0.000343097518    -0.002090894913
       3       -0.000337477096     0.000276884411    -0.002456985780
       4        0.000008001218    -0.000012715769     0.000003275973
       5        0.000013133727    -0.000013112230     0.000002180913
       6        0.000338703559    -0.000147583672     0.002392583617
       7       -0.000006776308     0.000006088555    -0.000001508291
       8       -0.000000410408    -0.000009485690    -0.000000068035
       9       -0.000008992574     0.000006765405    -0.000003080676

  **** Optimization is complete! (in 10 steps) ****
    Final optimized geometry and variables:
    Molecular point group: c1

    Geometry (in Angstrom), charge = 0, multiplicity = 1:

    H           -0.987401217711    -1.099453499231     0.192091942531
    C           -0.720194489266    -0.051638402559     0.044435302054
    N            0.605298919332     0.134530148721    -0.131546870023
    O           -1.538093614246     0.818386107450     0.046652111356
    C            1.602488335556    -0.898086281078     0.025655766764
    H            0.903107500007     1.086142898777    -0.113101703775
    H            2.345006763394    -0.826767914209    -0.759500149015
    H            1.128793549104    -1.868210281407    -0.052801154843
    H            2.105598351630    -0.841092520569     0.986104143404

  Mulliken Charges: (a.u.)
   Center  Symbol    Alpha    Beta     Spin     Total
       1     H     0.43098  0.43098  0.00000  0.13804
       2     C     2.74071  2.74071  0.00000  0.51858
       3     N     3.86868  3.86868  0.00000 -0.73737
       4     O     4.28294  4.28294  0.00000 -0.56588
       5     C     3.14312  3.14312  0.00000 -0.28624
       6     H     0.30528  0.30528  0.00000  0.38943
       7     H     0.40711  0.40711  0.00000  0.18577
       8     H     0.40878  0.40878  0.00000  0.18245
       9     H     0.41239  0.41239  0.00000  0.17521

   Total alpha = 16.00000, Total beta = 16.00000, Total charge = -0.00000
