  ==> Input File <==

--------------------------------------------------------------------------
set {
	reference rhf
	basis 6-31G*
}

set_num_threads( 4 )
memory 2 gb

molecule MOL {
0 1

H	 -2.098997	 -0.674324	 -0.616650
O	 -2.035884	 -0.060112	 0.102722
C	 -0.955155	 0.788182	 -0.092531
C	 0.353668	 0.040312	 -0.004810
H	 -0.985057	 1.290372	 -1.054184
H	 -0.974469	 1.533190	 0.688632
F	 1.156179	 0.383478	 -1.006203
F	 0.976814	 0.329131	 1.126327
F	 0.192742	 -1.266194	 -0.056715

	symmetry c1
}
set optking {
	frozen_dihedral = ("
		7 4 3 5
	")
}

ee = optimize('scf')
oeprop('DIPOLE', 'QUADRUPOLE', 'MULLIKEN_CHARGES')
f=open( 'psi4out.xyz', 'w' )
f.write( "9  " )
f.write( str(ee) + "\n" )
f.write( MOL.save_string_xyz() )
f.close()
--------------------------------------------------------------------------

    Molecular point group: c1
  Charge       = 0
  Multiplicity = 1
  Basis Set: 6-31G*
  Basis Set:
  @DF-RHF Final Energy:  -450.65569405326846
    Total Energy =                       -450.6556940532688031
    Molecular point group: c1
  Basis Set: 6-31G*
  Basis Set:
  Basis Set: 6-31G*
  Basis Set:
  @DF-RHF Final Energy:  -450.65627829709888
    Total Energy =                       -450.6562782970989360
  Basis Set: 6-31G*
  Basis Set:
  Basis Set: 6-31G*
  Basis Set:
  @DF-RHF Final Energy:  -450.65671810764491
    Total Energy =                       -450.6567181076450197
  Basis Set: 6-31G*
  Basis Set:
  Basis Set: 6-31G*
  Basis Set:
  @DF-RHF Final Energy:  -450.65675434509239
    Total Energy =                       -450.6567543450925086
  Basis Set: 6-31G*
  Basis Set:
  Basis Set: 6-31G*
  Basis Set:
  @DF-RHF Final Energy:  -450.65675960251076
    Total Energy =                       -450.6567596025107605
  Basis Set: 6-31G*
  Basis Set:
  Charge       = 0
  Multiplicity = 1
  Basis Set: 6-31G*
  Basis Set:

    Orbital Energies (a.u.)
    -----------------------

    Doubly Occupied:

       1A    -26.343408     2A    -26.341730     3A    -26.341209
       4A    -20.589653     5A    -11.502519     6A    -11.309561
       7A     -1.741063     8A     -1.638834     9A     -1.636970
      10A     -1.401955    11A     -1.043744    12A     -0.924420
      13A     -0.830426    14A     -0.827814    15A     -0.809811
      16A     -0.723012    17A     -0.712130    18A     -0.699089
      19A     -0.664072    20A     -0.659630    21A     -0.642380
      22A     -0.627702    23A     -0.613547    24A     -0.526297
      25A     -0.479704

  @DF-RHF Final Energy:  -450.65675986193469

   => Energetics <=

    Nuclear Repulsion Energy =            276.1849599733006926
    One-Electron Energy =               -1174.4220862270840371
    Two-Electron Energy =                 447.5803663918485427
    DFT Exchange-Correlation Energy =       0.0000000000000000
    Empirical Dispersion Energy =           0.0000000000000000
    PCM Polarization Energy =               0.0000000000000000
    EFP Energy =                            0.0000000000000000
    Total Energy =                       -450.6567598619348018
    Molecular point group: c1
  Basis Set: 6-31G*
  Basis Set:

  -Total Gradient:
     Atom            X                  Y                   Z
    ------   -----------------  -----------------  -----------------
       1       -0.000006368779     0.000001407421     0.000007083732
       2        0.000039955770     0.000020847664    -0.000006315360
       3       -0.002856688648    -0.005542580102    -0.003083201556
       4        0.002267240174     0.004544957999     0.003394684881
       5        0.001962625126     0.003805576655     0.001980047809
       6        0.000003626123     0.000003604069    -0.000003549822
       7       -0.001358697531    -0.002809189502    -0.002263158153
       8       -0.000027921042    -0.000001989541    -0.000067246897
       9       -0.000023771189    -0.000022634662     0.000041655361

  **** Optimization is complete! (in 6 steps) ****
    Final optimized geometry and variables:
    Molecular point group: c1

    Geometry (in Angstrom), charge = 0, multiplicity = 1:

    H           -2.093506133105    -0.729084862097    -0.547607140243
    O           -2.070921537575    -0.033275402773     0.095179088819
    C           -0.973075545446     0.783361968622    -0.116598326982
    C            0.359243781634     0.038894708471    -0.004660943888
    H           -0.989594194394     1.295270422999    -1.072828818329
    H           -0.990620791467     1.539652313403     0.654040590205
    F            1.181627533144     0.396939158368    -0.980892400915
    F            0.975340859758     0.270545739909     1.138956676479
    F            0.190375851488    -1.270543949449    -0.110339880853

  Mulliken Charges: (a.u.)
   Center  Symbol    Alpha    Beta     Spin     Total
       1     H     0.27272  0.27272  0.00000  0.45456
       2     O     4.35889  4.35889  0.00000 -0.71777
       3     C     3.06987  3.06987  0.00000 -0.13973
       4     C     2.45427  2.45427  0.00000  1.09147
       5     H     0.40585  0.40585  0.00000  0.18830
       6     H     0.39248  0.39248  0.00000  0.21503
       7     F     4.68437  4.68437  0.00000 -0.36874
       8     F     4.67839  4.67839  0.00000 -0.35678
       9     F     4.68317  4.68317  0.00000 -0.36633

   Total alpha = 25.00000, Total beta = 25.00000, Total charge =  0.00000
