  ==> Input File <==

--------------------------------------------------------------------------
set {
	reference rhf
	basis 6-31G*
}

set_num_threads( 1 )
memory 2 gb

molecule MOL {
0 1

H	 -3.420663	 1.227371	 -1.044276
O	 -3.452007	 0.283848	 -0.965577
C	 -3.181085	 -0.079926	 0.364119
C	 -1.765924	 0.277073	 0.805136
H	 -3.327791	 -1.152017	 0.410903
H	 -3.905698	 0.375695	 1.036898
C	 -0.677594	 -0.417312	 -0.014550
H	 -1.637766	 1.358238	 0.744969
H	 -1.659588	 0.017670	 1.857098
C	 0.288044	 0.563314	 -0.683201
H	 -1.144225	 -1.043830	 -0.768500
H	 -0.118033	 -1.087867	 0.635558
C	 1.378068	 -0.139286	 -1.497010
H	 -0.277935	 1.236050	 -1.323133
H	 0.755467	 1.187007	 0.077803
C	 2.422732	 0.797876	 -2.113906
H	 0.914013	 -0.728055	 -2.286757
H	 1.890524	 -0.849698	 -0.851625
C	 1.876358	 1.739827	 -3.188433
H	 3.212901	 0.192272	 -2.551131
H	 2.891305	 1.383035	 -1.325089
H	 1.390444	 1.182626	 -3.985022
H	 2.677242	 2.321559	 -3.634538
H	 1.152331	 2.440084	 -2.785210

	symmetry c1
}
set optking {
	frozen_dihedral = ("
		20 16 13 17,
		17 13 10 7,
		13 10 7 11,
		1 2 3 5,
		7 4 3 2
	")
}

ee = energy('scf')
oeprop('DIPOLE', 'QUADRUPOLE', 'MULLIKEN_CHARGES')
f=open( 'psi4out.xyz', 'w' )
f.write( "24  " )
f.write( str(ee) + "\n" )
f.write( MOL.save_string_xyz() )
f.close()
--------------------------------------------------------------------------

    Molecular point group: c1

    Geometry (in Angstrom), charge = 0, multiplicity = 1:

       Center              X                  Y                   Z               Mass
    ------------   -----------------  -----------------  -----------------  -----------------
           H         -2.975093387363     0.835000329967    -0.120283745390     1.007825032070
           O         -3.006437387363    -0.108522670033    -0.041584745390    15.994914619560
           C         -2.735515387363    -0.472296670033     1.288111254610    12.000000000000
           C         -1.320354387363    -0.115297670033     1.729128254610    12.000000000000
           H         -2.882221387363    -1.544387670033     1.334895254610     1.007825032070
           H         -3.460128387363    -0.016675670033     1.960890254610     1.007825032070
           C         -0.232024387363    -0.809682670033     0.909442254610    12.000000000000
           H         -1.192196387363     0.965867329967     1.668961254610     1.007825032070
           H         -1.214018387363    -0.374700670033     2.781090254610     1.007825032070
           C          0.733613612637     0.170943329967     0.240791254610    12.000000000000
           H         -0.698655387363    -1.436200670033     0.155492254610     1.007825032070
           H          0.327536612637    -1.480237670033     1.559550254610     1.007825032070
           C          1.823637612637    -0.531656670033    -0.573017745390    12.000000000000
           H          0.167634612637     0.843679329967    -0.399140745390     1.007825032070
           H          1.201036612637     0.794636329967     1.001795254610     1.007825032070
           C          2.868301612637     0.405505329967    -1.189913745390    12.000000000000
           H          1.359582612637    -1.120425670033    -1.362764745390     1.007825032070
           H          2.336093612637    -1.242068670033     0.072367254610     1.007825032070
           C          2.321927612637     1.347456329967    -2.264440745390    12.000000000000
           H          3.658470612637    -0.200098670033    -1.627138745390     1.007825032070
           H          3.336874612637     0.990664329967    -0.401096745390     1.007825032070
           H          1.836013612637     0.790255329967    -3.061029745390     1.007825032070
           H          3.122811612637     1.929188329967    -2.710545745390     1.007825032070
           H          1.597900612637     2.047713329967    -1.861217745390     1.007825032070

  Charge       = 0
  Multiplicity = 1
  Basis Set: 6-31G*
  Basis Set:

    Orbital Energies (a.u.)
    -----------------------

    Doubly Occupied:

       1A    -20.554250     2A    -11.267731     3A    -11.215892
       4A    -11.213295     5A    -11.211953     6A    -11.210289
       7A    -11.210039     8A    -11.206469     9A     -1.360635
      10A     -1.087882    11A     -1.047757    12A     -0.984697
      13A     -0.914295    14A     -0.850858    15A     -0.800729
      16A     -0.776055    17A     -0.679552    18A     -0.649837
      19A     -0.628920    20A     -0.617442    21A     -0.598851
      22A     -0.579502    23A     -0.559029    24A     -0.532524
      25A     -0.526432    26A     -0.510142    27A     -0.493173
      28A     -0.476685    29A     -0.466457    30A     -0.457387
      31A     -0.453022    32A     -0.445870    33A     -0.420177

  @DF-RHF Final Energy:  -349.24261272812902

   => Energetics <=

    Nuclear Repulsion Energy =            389.8017891250440812
    One-Electron Energy =               -1246.0730758707786663
    Two-Electron Energy =                 507.0286740176061357
    DFT Exchange-Correlation Energy =       0.0000000000000000
    Empirical Dispersion Energy =           0.0000000000000000
    PCM Polarization Energy =               0.0000000000000000
    EFP Energy =                            0.0000000000000000
    Total Energy =                       -349.2426127281285062

  Mulliken Charges: (a.u.)
   Center  Symbol    Alpha    Beta     Spin     Total
       1     H     0.28317  0.28317  0.00000  0.43365
       2     O     4.36844  4.36844  0.00000 -0.73688
       3     C     2.99948  2.99948  0.00000  0.00105
       4     C     3.17058  3.17058  0.00000 -0.34116
       5     H     0.41598  0.41598  0.00000  0.16805
       6     H     0.42891  0.42891  0.00000  0.14218
       7     C     3.15386  3.15386  0.00000 -0.30771
       8     H     0.42514  0.42514  0.00000  0.14971
       9     H     0.41987  0.41987  0.00000  0.16026
      10     C     3.15553  3.15553  0.00000 -0.31107
      11     H     0.40918  0.40918  0.00000  0.18165
      12     H     0.42288  0.42288  0.00000  0.15424
      13     C     3.15339  3.15339  0.00000 -0.30679
      14     H     0.42194  0.42194  0.00000  0.15612
      15     H     0.42546  0.42546  0.00000  0.14908
      16     C     3.15232  3.15232  0.00000 -0.30463
      17     H     0.42214  0.42214  0.00000  0.15571
      18     H     0.42299  0.42299  0.00000  0.15402
      19     C     3.24070  3.24070  0.00000 -0.48140
      20     H     0.42130  0.42130  0.00000  0.15741
      21     H     0.42425  0.42425  0.00000  0.15151
      22     H     0.42133  0.42133  0.00000  0.15735
      23     H     0.41987  0.41987  0.00000  0.16027
      24     H     0.42132  0.42132  0.00000  0.15737

   Total alpha = 33.00000, Total beta = 33.00000, Total charge = -0.00000
