                              Psi4 1.0.54 Driver

  ==> Input File <==

--------------------------------------------------------------------------
set {
	reference rhf
	basis cc-pvtz
}

set_num_threads( 4 )
memory 2 gb

molecule MOL {
0 1

H	 3.353276	 -0.369491	 -1.355867
O	 2.438654	 -0.564576	 -1.217645
C	 2.076458	 -0.067370	 -0.038225
C	 0.626018	 -0.337582	 0.258241
O	 2.836015	 0.510060	 0.659981
C	 -0.267326	 0.883135	 0.076490
H	 0.325620	 -1.161483	 -0.378003
H	 0.574537	 -0.713685	 1.275261
C	 -1.726822	 0.642622	 0.463839
H	 -0.210803	 1.217591	 -0.953497
H	 0.129920	 1.693110	 0.675679
C	 -2.480891	 -0.340606	 -0.429852
H	 -2.243098	 1.597649	 0.438609
H	 -1.776542	 0.301208	 1.495542
C	 -3.955933	 -0.460128	 -0.060472
H	 -2.393755	 -0.020485	 -1.464726
H	 -2.024244	 -1.323637	 -0.374360
H	 -4.467673	 -1.160944	 -0.709827
H	 -4.458917	 0.497287	 -0.144505
H	 -4.076458	 -0.806900	 0.960497

	symmetry c1
}
set optking {
	frozen_dihedral = ("
		5 3 4 7
	")
}

ee,wfn = optimize('scf', return_wfn=True)
oeprop( wfn, 'DIPOLE', 'QUADRUPOLE', 'MULLIKEN_CHARGES')
f=open( 'psi4out.xyz', 'w' )
f.write( "20  " )
f.write( str(ee) + "\n" )
f.write( MOL.save_string_xyz() )
f.close()
--------------------------------------------------------------------------

    Molecular point group: c1
  Charge       = 0
  Multiplicity = 1
  Basis Set: CC-PVTZ
  Basis Set:
  @DF-RHF Final Energy:  -384.09264728974830
    Total Energy =                       -384.0926472897486974
    Molecular point group: c1
  Basis Set: CC-PVTZ
  Basis Set:
  Basis Set: CC-PVTZ
  Basis Set:
  @DF-RHF Final Energy:  -384.09332658834518
    Total Energy =                       -384.0933265883453487
  Basis Set: CC-PVTZ
  Basis Set:
  Basis Set: CC-PVTZ
  Basis Set:
  @DF-RHF Final Energy:  -384.04204741098476
    Total Energy =                       -384.0420474109853330
  Basis Set: CC-PVTZ
  Basis Set:
  Basis Set: CC-PVTZ
  Basis Set:
  @DF-RHF Final Energy:  -384.09087438295563
    Total Energy =                       -384.0908743829559171
  Basis Set: CC-PVTZ
  Basis Set:
  @DF-RHF Final Energy:  -384.09330790926833
    Total Energy =                       -384.0933079092685603
  @DF-RHF Final Energy:  -384.09303246849561
    Total Energy =                       -384.0930324684955508
  @DF-RHF Final Energy:  -384.09352434280572
    Total Energy =                       -384.0935243428061199
  Basis Set: CC-PVTZ
  Basis Set:
  @DF-RHF Final Energy:  -384.09352944403781
    Total Energy =                       -384.0935294440373582
  Basis Set: CC-PVTZ
  Basis Set:
  Basis Set: CC-PVTZ
  Basis Set:
  @DF-RHF Final Energy:  -384.09352861101706
    Total Energy =                       -384.0935286110171774
  Basis Set: CC-PVTZ
  Basis Set:
  Basis Set: CC-PVTZ
  Basis Set:
  @DF-RHF Final Energy:  -384.09353049340342
    Total Energy =                       -384.0935304934039323
  Basis Set: CC-PVTZ
  Basis Set:
  Charge       = 0
  Multiplicity = 1
  Basis Set: CC-PVTZ
  Basis Set:

    Orbital Energies (a.u.)
    -----------------------

    Doubly Occupied:

       1A    -20.605418     2A    -20.537435     3A    -11.372249
       4A    -11.236651     5A    -11.230459     6A    -11.221866
       7A    -11.220226     8A    -11.211954     9A     -1.477147
      10A     -1.367437    11A     -1.100317    12A     -1.043253
      13A     -0.962130    14A     -0.867820    15A     -0.822109
      16A     -0.788914    17A     -0.705562    18A     -0.689934
      19A     -0.647114    20A     -0.640609    21A     -0.618267
      22A     -0.595427    23A     -0.576886    24A     -0.555738
      25A     -0.549934    26A     -0.514875    27A     -0.504133
      28A     -0.482422    29A     -0.476220    30A     -0.467208
      31A     -0.461958    32A     -0.440063

  @DF-RHF Final Energy:  -384.09353057929076

   => Energetics <=

    Nuclear Repulsion Energy =            377.2032240931034153
    One-Electron Energy =               -1270.6100331165387161
    Two-Electron Energy =                 509.3132784441436911
    DFT Exchange-Correlation Energy =       0.0000000000000000
    Empirical Dispersion Energy =           0.0000000000000000
    PCM Polarization Energy =               0.0000000000000000
    EFP Energy =                            0.0000000000000000
    Total Energy =                       -384.0935305792915528
    Molecular point group: c1
  Basis Set: CC-PVTZ
  Basis Set:

  -Total Gradient:
     Atom            X                  Y                   Z
    ------   -----------------  -----------------  -----------------
       1       -0.000004868274    -0.000001004967     0.000002730495
       2       -0.000000924398     0.000003394828     0.000005185946
       3        0.000240757037    -0.000410557955     0.000335640481
       4        0.000136548667    -0.000074378222     0.000339350686
       5       -0.000188071462     0.000314108649    -0.000298742273
       6       -0.000008293501     0.000003801182     0.000000788008
       7       -0.000180425957     0.000174072073    -0.000378501072
       8       -0.000003898146    -0.000000790247    -0.000005286410
       9        0.000006677707    -0.000007476836    -0.000001062926
      10        0.000000465735    -0.000001152028     0.000003961378
      11        0.000004488794    -0.000004899502    -0.000001271394
      12       -0.000007923004     0.000009823815    -0.000004298605
      13        0.000003314839    -0.000002972182    -0.000002019285
      14       -0.000001668294     0.000000312852     0.000000304532
      15        0.000003064983    -0.000005551274     0.000002848285
      16       -0.000000062322     0.000001151175    -0.000001879203
      17        0.000000463923     0.000002410177     0.000000739762
      18       -0.000000080854     0.000001059436     0.000003034716
      19        0.000002279327    -0.000002443043    -0.000000971000
      20       -0.000001844784     0.000001092068    -0.000000552124

  **** Optimization is complete! (in 11 steps) ****
    Final optimized geometry and variables:
    Molecular point group: c1

    Geometry (in Angstrom), charge = 0, multiplicity = 1:

    H            3.353838207040    -0.180760713104    -1.365000437175
    O            2.502406507179    -0.508078848464    -1.115422236623
    C            2.077678460999     0.187097656745    -0.065361615560
    C            0.701895102440    -0.218831062840     0.390010756598
    O            2.724404121350     1.050333710637     0.421077079686
    C           -0.346963804207     0.780482094483    -0.118265898574
    H            0.489699448864    -1.216547656183     0.036429239564
    H            0.709469782212    -0.221241293519     1.472206421645
    C           -1.761223098233     0.504655901714     0.392280063813
    H           -0.346617031436     0.778160997083    -1.204447694307
    H           -0.046868029394     1.773816247369     0.193169185025
    C           -2.393217428455    -0.789548515994    -0.116395039635
    H           -2.392204270147     1.337893475964     0.097084514001
    H           -1.755156437556     0.500971164781     1.479571191627
    C           -3.835803102255    -0.961098072298     0.348577956096
    H           -2.361056613515    -0.800015299333    -1.202647898043
    H           -1.812873699054    -1.644478794657     0.214698544227
    H           -4.260086489076    -1.886375708072    -0.023402989164
    H           -4.459748010776    -0.146006947265    -0.002182763573
    H           -3.897880161604    -0.980818353608     1.431540563998

  Mulliken Charges: (a.u.)
   Center  Symbol    Alpha    Beta     Spin     Total
       1     H     0.38034  0.38034  0.00000  0.23932
       2     O     4.16128  4.16128  0.00000 -0.32255
       3     C     2.80434  2.80434  0.00000  0.39132
       4     C     3.09040  3.09040  0.00000 -0.18079
       5     O     4.19928  4.19928  0.00000 -0.39856
       6     C     3.10982  3.10982  0.00000 -0.21963
       7     H     0.44006  0.44006  0.00000  0.11989
       8     H     0.43944  0.43944  0.00000  0.12112
       9     C     3.09795  3.09795  0.00000 -0.19589
      10     H     0.44716  0.44716  0.00000  0.10568
      11     H     0.43471  0.43471  0.00000  0.13059
      12     C     3.08707  3.08707  0.00000 -0.17414
      13     H     0.44583  0.44583  0.00000  0.10834
      14     H     0.45142  0.45142  0.00000  0.09716
      15     C     3.14959  3.14959  0.00000 -0.29918
      16     H     0.45256  0.45256  0.00000  0.09488
      17     H     0.45326  0.45326  0.00000  0.09347
      18     H     0.44742  0.44742  0.00000  0.10517
      19     H     0.45372  0.45372  0.00000  0.09255
      20     H     0.45437  0.45437  0.00000  0.09125

   Total alpha = 32.00000, Total beta = 32.00000, Total charge = -0.00000

*** Psi4 exiting successfully. Buy a developer a beer!
