  ==> Input File <==

--------------------------------------------------------------------------
set {
	reference rhf
	basis cc-pvtz
}

set_num_threads( 4 )
memory 2 gb

molecule MOL {
0 1

O	 -1.510770	 1.240811	 -0.054933
C	 -1.081510	 0.147522	 0.122720
C	 0.327029	 -0.064006	 0.641890
C	 -1.903028	 -1.084121	 -0.174656
C	 1.349460	 -0.017068	 -0.500215
H	 0.399029	 -1.014606	 1.159950
H	 0.538021	 0.726928	 1.350471
C	 0.719527	 -0.307480	 -1.857636
H	 1.825862	 0.958747	 -0.525941
H	 2.130899	 -0.739277	 -0.295048
H	 1.464258	 -0.279318	 -2.644155
H	 -0.046525	 0.421385	 -2.099860
H	 0.259193	 -1.289202	 -1.871228
H	 -1.341891	 -1.779207	 -0.789259
H	 -2.820449	 -0.808163	 -0.671328
H	 -2.133314	 -1.593056	 0.755831

	symmetry c1
}
set optking {
	frozen_dihedral = ("
		9 5 3 2
	")
}

ee = optimize('scf')
oeprop('DIPOLE', 'QUADRUPOLE', 'MULLIKEN_CHARGES')
f=open( 'psi4out.xyz', 'w' )
f.write( "16  " )
f.write( str(ee) + "\n" )
f.write( MOL.save_string_xyz() )
f.close()
--------------------------------------------------------------------------

    Molecular point group: c1
  Charge       = 0
  Multiplicity = 1
  Basis Set: CC-PVTZ
  Basis Set:
  @DF-RHF Final Energy:  -270.11764775010880
    Total Energy =                       -270.1176477501087447
    Molecular point group: c1
  Basis Set: CC-PVTZ
  Basis Set:
  Basis Set: CC-PVTZ
  Basis Set:
  @DF-RHF Final Energy:  -270.12141046663066
    Total Energy =                       -270.1214104666307776
  Basis Set: CC-PVTZ
  Basis Set:
  Basis Set: CC-PVTZ
  Basis Set:
  @DF-RHF Final Energy:  -270.12054222353726
    Total Energy =                       -270.1205422235369724
  Basis Set: CC-PVTZ
  Basis Set:
  Basis Set: CC-PVTZ
  Basis Set:
  @DF-RHF Final Energy:  -270.12213798660656
    Total Energy =                       -270.1221379866067309
  Basis Set: CC-PVTZ
  Basis Set:
  @DF-RHF Final Energy:  -270.12223180345120
    Total Energy =                       -270.1222318034512000
  @DF-RHF Final Energy:  -270.12227075222552
    Total Energy =                       -270.1222707522254041
  @DF-RHF Final Energy:  -270.12231818718362
    Total Energy =                       -270.1223181871837369
  @DF-RHF Final Energy:  -270.12237196649698
    Total Energy =                       -270.1223719664967575
  @DF-RHF Final Energy:  -270.12238923071641
    Total Energy =                       -270.1223892307167489
  @DF-RHF Final Energy:  -270.12239654788345
    Total Energy =                       -270.1223965478837954
  @DF-RHF Final Energy:  -270.12210334774880
    Total Energy =                       -270.1221033477493165
  @DF-RHF Final Energy:  -270.12240252539425
    Total Energy =                       -270.1224025253945911
  @DF-RHF Final Energy:  -270.12241260156065
    Total Energy =                       -270.1224126015607681
  @DF-RHF Final Energy:  -270.12241736282408
    Total Energy =                       -270.1224173628241374
  @DF-RHF Final Energy:  -270.12243669556096
    Total Energy =                       -270.1224366955610776
  @DF-RHF Final Energy:  -270.12244652151168
    Total Energy =                       -270.1224465215115629
  @DF-RHF Final Energy:  -270.12245253497929
    Total Energy =                       -270.1224525349795158
  Basis Set: CC-PVTZ
  Basis Set:
  @DF-RHF Final Energy:  -270.12245374149290
    Total Energy =                       -270.1224537414927909
  Basis Set: CC-PVTZ
  Basis Set:
  Basis Set: CC-PVTZ
  Basis Set:
  @DF-RHF Final Energy:  -270.12245595251818
    Total Energy =                       -270.1224559525185214
  Basis Set: CC-PVTZ
  Basis Set:
  Basis Set: CC-PVTZ
  Basis Set:
  @DF-RHF Final Energy:  -270.12245428966060
    Total Energy =                       -270.1224542896608796
  Basis Set: CC-PVTZ
  Basis Set:
  Charge       = 0
  Multiplicity = 1
  Basis Set: CC-PVTZ
  Basis Set:

    Orbital Energies (a.u.)
    -----------------------

    Doubly Occupied:

       1A    -20.537181     2A    -11.321145     3A    -11.230891
       4A    -11.227373     5A    -11.224916     6A    -11.205839
       7A     -1.398233     8A     -1.074234     9A     -1.015152
      10A     -0.947514    11A     -0.831066    12A     -0.725489
      13A     -0.657893    14A     -0.641609    15A     -0.623716
      16A     -0.603889    17A     -0.581100    18A     -0.554052
      19A     -0.544055    20A     -0.506065    21A     -0.493878
      22A     -0.479112    23A     -0.471006    24A     -0.399597

  @DF-RHF Final Energy:  -270.12245631472945

   => Energetics <=

    Nuclear Repulsion Energy =            242.3884316861262107
    One-Electron Energy =                -846.4317677827685884
    Two-Electron Energy =                 333.9208797819131860
    DFT Exchange-Correlation Energy =       0.0000000000000000
    Empirical Dispersion Energy =           0.0000000000000000
    PCM Polarization Energy =               0.0000000000000000
    EFP Energy =                            0.0000000000000000
    Total Energy =                       -270.1224563147292201
    Molecular point group: c1
  Basis Set: CC-PVTZ
  Basis Set:

  -Total Gradient:
     Atom            X                  Y                   Z
    ------   -----------------  -----------------  -----------------
       1       -0.000014184186     0.000011932924    -0.000009814780
       2       -0.000125356958    -0.004682242965    -0.001622134232
       3        0.001189015105     0.006107439357     0.003378026480
       4        0.000019203729     0.000003144859    -0.000006104486
       5       -0.005360103937     0.001327557696    -0.005886300504
       6        0.000011669809    -0.000001049166    -0.000007304604
       7       -0.000010508170    -0.000000869594     0.000002730265
       8       -0.000001394078     0.000008870321    -0.000012279133
       9        0.004271363464    -0.002774754346     0.004164844344
      10        0.000008687328    -0.000007244593    -0.000002276108
      11        0.000000774089     0.000000186740    -0.000000070820
      12        0.000004625002     0.000001006281    -0.000003882731
      13        0.000006482889     0.000004229043     0.000002602044
      14       -0.000002507141    -0.000002120427     0.000002576038
      15        0.000001214568     0.000002786515    -0.000000023014
      16        0.000001018483     0.000001127356    -0.000000588760

  **** Optimization is complete! (in 21 steps) ****
    Final optimized geometry and variables:
    Molecular point group: c1

    Geometry (in Angstrom), charge = 0, multiplicity = 1:

    O           -1.116131816616     1.008929897857    -0.249630211991
    C           -0.815422858722     0.044443170488     0.375175396288
    C            0.596921865007    -0.171525441037     0.890669892524
    C           -1.835745386417    -1.008276616450     0.736432593885
    C            1.751555619572     0.139158786665    -0.086877916187
    H            0.678831639539    -1.198979547525     1.226770780074
    H            0.688291991129     0.443225597424     1.780979092746
    C            1.452646298355    -0.000117400140    -1.575855054833
    H            2.167843186934     1.114233679977     0.134825953838
    H            2.550851511173    -0.552451939844     0.161804307339
    H            2.369015168580     0.105257541044    -2.144811595214
    H            0.751515801201     0.745381058259    -1.918165643805
    H            1.040326442969    -0.978895891589    -1.803709517497
    H           -1.575006864323    -1.946597488183     0.257711522127
    H           -2.818203503227    -0.697008426065     0.416564276069
    H           -1.831967069761    -1.183632432156     1.806940347037

  Mulliken Charges: (a.u.)
   Center  Symbol    Alpha    Beta     Spin     Total
       1     O     4.17702  4.17702  0.00000 -0.35404
       2     C     2.85040  2.85040  0.00000  0.29920
       3     C     3.11963  3.11963  0.00000 -0.23925
       4     C     3.15342  3.15342  0.00000 -0.30683
       5     C     3.07868  3.07868  0.00000 -0.15736
       6     H     0.44593  0.44593  0.00000  0.10814
       7     H     0.43772  0.43772  0.00000  0.12455
       8     C     3.15791  3.15791  0.00000 -0.31582
       9     H     0.44793  0.44793  0.00000  0.10413
      10     H     0.45174  0.45174  0.00000  0.09651
      11     H     0.44835  0.44835  0.00000  0.10331
      12     H     0.43601  0.43601  0.00000  0.12797
      13     H     0.45914  0.45914  0.00000  0.08173
      14     H     0.45002  0.45002  0.00000  0.09997
      15     H     0.43643  0.43643  0.00000  0.12713
      16     H     0.44968  0.44968  0.00000  0.10065

   Total alpha = 24.00000, Total beta = 24.00000, Total charge = -0.00000
