  ==> Input File <==

--------------------------------------------------------------------------
set {
	reference rhf
	basis 6-31G*
}

set_num_threads( 4 )
memory 2 gb

molecule MOL {
0 1

H	 3.463771	 0.168298	 -0.756243
C	 2.752674	 -0.045734	 0.033351
C	 1.322923	 0.120767	 -0.479465
H	 2.934561	 -1.059086	 0.377456
H	 2.958358	 0.631174	 0.856809
C	 0.306652	 -0.176050	 0.621399
H	 1.144658	 -0.551717	 -1.312180
H	 1.166477	 1.131798	 -0.836680
N	 -1.068537	 -0.011044	 0.085269
H	 0.372515	 -1.192590	 0.973735
H	 0.391664	 0.520566	 1.441230
O	 -1.843740	 -0.896722	 0.275023
O	 -1.293676	 0.987167	 -0.528664

	symmetry c1
}
set optking {
	frozen_dihedral = ("
		12 9 6 3
	")
}

ee = optimize('scf')
oeprop('DIPOLE', 'QUADRUPOLE', 'MULLIKEN_CHARGES')
f=open( 'psi4out.xyz', 'w' )
f.write( "13  " )
f.write( str(ee) + "\n" )
f.write( MOL.save_string_xyz() )
f.close()
--------------------------------------------------------------------------

    Molecular point group: c1
  Charge       = 0
  Multiplicity = 1
  Basis Set: 6-31G*
  Basis Set:
  @DF-RHF Final Energy:  -321.73490176290181
    Total Energy =                       -321.7349017629016998
    Molecular point group: c1
  Basis Set: 6-31G*
  Basis Set:
  Basis Set: 6-31G*
  Basis Set:
  @DF-RHF Final Energy:  -321.73086789587745
    Total Energy =                       -321.7308678958775090
  Basis Set: 6-31G*
  Basis Set:
  Basis Set: 6-31G*
  Basis Set:
  @DF-RHF Final Energy:  -321.73191409394519
    Total Energy =                       -321.7319140939451927
  Basis Set: 6-31G*
  Basis Set:
  Basis Set: 6-31G*
  Basis Set:
  @DF-RHF Final Energy:  -321.73533151614674
    Total Energy =                       -321.7353315161466867
  Basis Set: 6-31G*
  Basis Set:
  Basis Set: 6-31G*
  Basis Set:
  @DF-RHF Final Energy:  -321.73538818993472
    Total Energy =                       -321.7353881899347243
  Basis Set: 6-31G*
  Basis Set:
  Basis Set: 6-31G*
  Basis Set:
  @DF-RHF Final Energy:  -321.73541490400078
    Total Energy =                       -321.7354149040008906
  Basis Set: 6-31G*
  Basis Set:
  Basis Set: 6-31G*
  Basis Set:
  @DF-RHF Final Energy:  -321.73541807010110
    Total Energy =                       -321.7354180701012751
  Basis Set: 6-31G*
  Basis Set:
  Charge       = 0
  Multiplicity = 1
  Basis Set: 6-31G*
  Basis Set:

    Orbital Energies (a.u.)
    -----------------------

    Doubly Occupied:

       1A    -20.602944     2A    -20.599580     3A    -15.847791
       4A    -11.300005     5A    -11.253554     6A    -11.238741
       7A     -1.631323     8A     -1.416614     9A     -1.134046
      10A     -1.027981    11A     -0.884431    12A     -0.830048
      13A     -0.759992    14A     -0.739507    15A     -0.724500
      16A     -0.666399    17A     -0.605334    18A     -0.584316
      19A     -0.550837    20A     -0.522660    21A     -0.511554
      22A     -0.484369    23A     -0.473292    24A     -0.449000

  @DF-RHF Final Energy:  -321.73541884288733

   => Energetics <=

    Nuclear Repulsion Energy =            247.1590344259818153
    One-Electron Energy =                -928.1112725419002345
    Two-Electron Energy =                 359.2168192730312057
    DFT Exchange-Correlation Energy =       0.0000000000000000
    Empirical Dispersion Energy =           0.0000000000000000
    PCM Polarization Energy =               0.0000000000000000
    EFP Energy =                            0.0000000000000000
    Total Energy =                       -321.7354188428871566
    Molecular point group: c1
  Basis Set: 6-31G*
  Basis Set:

  -Total Gradient:
     Atom            X                  Y                   Z
    ------   -----------------  -----------------  -----------------
       1       -0.000007542504    -0.000004235630    -0.000003790142
       2       -0.000007220322    -0.000018842205     0.000003751233
       3        0.000011598677     0.000285940172     0.000062824322
       4       -0.000005053870     0.000003952164     0.000008817116
       5        0.000009578171     0.000006670924    -0.000002084179
       6       -0.000028485411    -0.000351714512     0.000059747974
       7       -0.000004606749     0.000008110559     0.000018666390
       8        0.000011224290     0.000017353556    -0.000021735216
       9        0.000178011148    -0.000115682011    -0.000439676216
      10        0.000014054025    -0.000006734568     0.000032008686
      11        0.000004361362    -0.000019081303    -0.000027032161
      12       -0.000108702494     0.000150784181     0.000314727612
      13       -0.000067216314     0.000043478676    -0.000006225418

  **** Optimization is complete! (in 8 steps) ****
    Final optimized geometry and variables:
    Molecular point group: c1

    Geometry (in Angstrom), charge = 0, multiplicity = 1:

    H            3.489463976130     0.159847348504    -0.748591141253
    C            2.766252990924    -0.048354701039     0.031484279240
    C            1.344503965614     0.129298053774    -0.501101625010
    H            2.937906500117    -1.062116055690     0.379949870231
    H            2.966732998278     0.628163616767     0.856865289069
    C            0.318232329415    -0.164647291472     0.586253881443
    H            1.177195274441    -0.540814367490    -1.338642821799
    H            1.199362199682     1.138493262748    -0.862473145257
    N           -1.072925566293    -0.014171159819     0.079203188375
    H            0.384640645606    -1.170873754289     0.965879663756
    H            0.395912661602     0.539619760376     1.404053412780
    O           -1.833558365758    -0.907251257142     0.288435857189
    O           -1.340765751787     1.001842250400    -0.486680681069

  Mulliken Charges: (a.u.)
   Center  Symbol    Alpha    Beta     Spin     Total
       1     H     0.40747  0.40747  0.00000  0.18507
       2     C     3.24899  3.24899  0.00000 -0.49799
       3     C     3.17113  3.17113  0.00000 -0.34227
       4     H     0.41544  0.41544  0.00000  0.16912
       5     H     0.41551  0.41551  0.00000  0.16899
       6     C     3.08732  3.08732  0.00000 -0.17463
       7     H     0.40562  0.40562  0.00000  0.18876
       8     H     0.39368  0.39368  0.00000  0.21264
       9     N     3.22210  3.22210  0.00000  0.55580
      10     H     0.38590  0.38590  0.00000  0.22820
      11     H     0.38772  0.38772  0.00000  0.22455
      12     O     4.22836  4.22836  0.00000 -0.45672
      13     O     4.23076  4.23076  0.00000 -0.46152

   Total alpha = 24.00000, Total beta = 24.00000, Total charge = -0.00000
