                              Psi4 1.0.54 Driver

  ==> Input File <==

--------------------------------------------------------------------------
set {
	reference rhf
	basis cc-pvtz
}

set_num_threads( 4 )
memory 2 gb

molecule MOL {
0 1

H	 3.459101	 0.139266	 -0.762951
C	 2.749156	 -0.051729	 0.031265
C	 1.322304	 0.099773	 -0.484271
H	 2.929445	 -1.053887	 0.403481
H	 2.954281	 0.646699	 0.834672
C	 0.308557	 -0.162619	 0.622645
H	 1.143368	 -0.594400	 -1.295960
H	 1.169532	 1.100095	 -0.870217
N	 -1.069352	 -0.004081	 0.085342
H	 0.371632	 -1.172932	 0.991288
H	 0.400391	 0.548875	 1.426218
O	 -1.388334	 -0.714667	 -0.807908
O	 -1.745770	 0.841715	 0.567036

	symmetry c1
}
set optking {
	frozen_dihedral = ("
		12 9 6 3
	")
}

ee,wfn = optimize('scf', return_wfn=True)
oeprop( wfn, 'DIPOLE', 'QUADRUPOLE', 'MULLIKEN_CHARGES')
f=open( 'psi4out.xyz', 'w' )
f.write( "13  " )
f.write( str(ee) + "\n" )
f.write( MOL.save_string_xyz() )
f.close()
--------------------------------------------------------------------------

    Molecular point group: c1
  Charge       = 0
  Multiplicity = 1
  Basis Set: CC-PVTZ
  Basis Set:
  @DF-RHF Final Energy:  -321.86104892166037
    Total Energy =                       -321.8610489216605401
    Molecular point group: c1
  Basis Set: CC-PVTZ
  Basis Set:
  Basis Set: CC-PVTZ
  Basis Set:
  @DF-RHF Final Energy:  -321.85580812607691
    Total Energy =                       -321.8558081260768517
  Basis Set: CC-PVTZ
  Basis Set:
  Basis Set: CC-PVTZ
  Basis Set:
  @DF-RHF Final Energy:  -321.86092199174306
    Total Energy =                       -321.8609219917428277
  Basis Set: CC-PVTZ
  Basis Set:
  Basis Set: CC-PVTZ
  Basis Set:
  @DF-RHF Final Energy:  -321.86124881018497
    Total Energy =                       -321.8612488101849749
  Basis Set: CC-PVTZ
  Basis Set:
  Basis Set: CC-PVTZ
  Basis Set:
  @DF-RHF Final Energy:  -321.86121752982353
    Total Energy =                       -321.8612175298233069
  Basis Set: CC-PVTZ
  Basis Set:
  Basis Set: CC-PVTZ
  Basis Set:
  @DF-RHF Final Energy:  -321.86125448589792
    Total Energy =                       -321.8612544858982005
  Basis Set: CC-PVTZ
  Basis Set:
  Basis Set: CC-PVTZ
  Basis Set:
  @DF-RHF Final Energy:  -321.86125735319354
    Total Energy =                       -321.8612573531936505
  Basis Set: CC-PVTZ
  Basis Set:
  Charge       = 0
  Multiplicity = 1
  Basis Set: CC-PVTZ
  Basis Set:

    Orbital Energies (a.u.)
    -----------------------

    Doubly Occupied:

       1A    -20.592525     2A    -20.588983     3A    -15.837413
       4A    -11.297742     5A    -11.251934     6A    -11.236439
       7A     -1.636451     8A     -1.420655     9A     -1.133297
      10A     -1.027570    11A     -0.884357    12A     -0.832298
      13A     -0.762705    14A     -0.741298    15A     -0.728898
      16A     -0.669660    17A     -0.604701    18A     -0.585577
      19A     -0.551299    20A     -0.521705    21A     -0.511960
      22A     -0.487656    23A     -0.474683    24A     -0.453805

  @DF-RHF Final Energy:  -321.86125739814662

   => Energetics <=

    Nuclear Repulsion Energy =            247.8445619367637960
    One-Electron Energy =                -929.7444163640880106
    Two-Electron Energy =                 360.0385970291775948
    DFT Exchange-Correlation Energy =       0.0000000000000000
    Empirical Dispersion Energy =           0.0000000000000000
    PCM Polarization Energy =               0.0000000000000000
    EFP Energy =                            0.0000000000000000
    Total Energy =                       -321.8612573981466767
    Molecular point group: c1
  Basis Set: CC-PVTZ
  Basis Set:

  -Total Gradient:
     Atom            X                  Y                   Z
    ------   -----------------  -----------------  -----------------
       1        0.000005238002    -0.000001889011     0.000003761835
       2        0.000005690526     0.000002925005    -0.000009678536
       3       -0.000001772496    -0.000386830739    -0.000099939345
       4       -0.000002906963     0.000003024946    -0.000000134255
       5        0.000004609971     0.000002798512     0.000000582673
       6        0.000059878070     0.000642466807     0.000016127506
       7        0.000005136299     0.000003198560    -0.000013621264
       8       -0.000002719180    -0.000008035077     0.000010566083
       9       -0.000246710813    -0.000635433340     0.000401077410
      10       -0.000002791693     0.000008175340    -0.000007053821
      11       -0.000009071759     0.000001731752     0.000004954640
      12        0.000180987887     0.000360226108    -0.000318920925
      13        0.000004432145     0.000007641139     0.000012278000

  **** Optimization is complete! (in 8 steps) ****
    Final optimized geometry and variables:
    Molecular point group: c1

    Geometry (in Angstrom), charge = 0, multiplicity = 1:

    H            3.477674536810     0.114684645492    -0.756959541489
    C            2.758415759966    -0.062656417998     0.031992004572
    C            1.337601087567     0.086290355325    -0.501841883369
    H            2.930638427394    -1.060934813624     0.418794736020
    H            2.959452273535     0.644422423472     0.828888565530
    C            0.315692133232    -0.157984384878     0.598346817941
    H            1.162896373355    -0.611892244594    -1.308046914031
    H            1.195715322379     1.084340547281    -0.901355103086
    N           -1.072907771878     0.005222281960     0.084063489335
    H            0.366859639316    -1.173146219046     0.963757356137
    H            0.411613432218     0.536603690672     1.414638608873
    O           -1.408365067658    -0.710209186124    -0.800053265912
    O           -1.750088909635     0.835789424740     0.588486612844

  Mulliken Charges: (a.u.)
   Center  Symbol    Alpha    Beta     Spin     Total
       1     H     0.44157  0.44157  0.00000  0.11686
       2     C     3.15133  3.15133  0.00000 -0.30265
       3     C     3.09618  3.09618  0.00000 -0.19235
       4     H     0.45207  0.45207  0.00000  0.09587
       5     H     0.45197  0.45197  0.00000  0.09607
       6     C     3.04011  3.04011  0.00000 -0.08023
       7     H     0.43358  0.43358  0.00000  0.13283
       8     H     0.44283  0.44283  0.00000  0.11434
       9     N     3.27683  3.27683  0.00000  0.44633
      10     H     0.43716  0.43716  0.00000  0.12568
      11     H     0.43266  0.43266  0.00000  0.13467
      12     O     4.17465  4.17465  0.00000 -0.34930
      13     O     4.16907  4.16907  0.00000 -0.33814

   Total alpha = 24.00000, Total beta = 24.00000, Total charge =  0.00000

*** Psi4 exiting successfully. Buy a developer a beer!
