  ==> Input File <==

--------------------------------------------------------------------------
set {
	reference rhf
	basis 6-31G*
}

set_num_threads( 4 )
memory 2 gb

molecule MOL {
0 1

H	 -1.836216	 1.387520	 -0.000064
C	 -1.301823	 0.443321	 -0.000031
O	 -0.003969	 0.658512	 0.000451
O	 -1.829879	 -0.616434	 -0.000857
C	 0.850537	 -0.484732	 0.000380
C	 0.220382	 -1.522569	 0.903773
H	 1.829572	 -0.188161	 0.350886
H	 0.952856	 -0.843965	 -1.014399
H	 0.118429	 -1.142608	 1.913856
H	 0.841586	 -2.411689	 0.932143
H	 -0.762555	 -1.801695	 0.542093

	symmetry c1
}
set optking {
	frozen_dihedral = ("
		7 5 3 2
	")
}

ee = optimize('scf')
oeprop('DIPOLE', 'QUADRUPOLE', 'MULLIKEN_CHARGES')
f=open( 'psi4out.xyz', 'w' )
f.write( "11  " )
f.write( str(ee) + "\n" )
f.write( MOL.save_string_xyz() )
f.close()
--------------------------------------------------------------------------

    Molecular point group: c1
  Charge       = 0
  Multiplicity = 1
  Basis Set: 6-31G*
  Basis Set:
  @DF-RHF Final Energy:  -266.79413576780672
    Total Energy =                       -266.7941357678067220
    Molecular point group: c1
  Basis Set: 6-31G*
  Basis Set:
  Basis Set: 6-31G*
  Basis Set:
  @DF-RHF Final Energy:  -266.81636203011772
    Total Energy =                       -266.8163620301179435
  Basis Set: 6-31G*
  Basis Set:
  Basis Set: 6-31G*
  Basis Set:
  @DF-RHF Final Energy:  -266.81581077464602
    Total Energy =                       -266.8158107746460814
  Basis Set: 6-31G*
  Basis Set:
  Basis Set: 6-31G*
  Basis Set:
  @DF-RHF Final Energy:  -266.81486778033775
    Total Energy =                       -266.8148677803378064
  Basis Set: 6-31G*
  Basis Set:
  @DF-RHF Final Energy:  -266.82190635343528
    Total Energy =                       -266.8219063534353381
  Basis Set: 6-31G*
  Basis Set:
  @DF-RHF Final Energy:  -266.82219461387598
    Total Energy =                       -266.8221946138758653
  Basis Set: 6-31G*
  Basis Set:
  Basis Set: 6-31G*
  Basis Set:
  @DF-RHF Final Energy:  -266.82224994188897
    Total Energy =                       -266.8222499418889129
  Basis Set: 6-31G*
  Basis Set:
  Basis Set: 6-31G*
  Basis Set:
  @DF-RHF Final Energy:  -266.82226176396131
    Total Energy =                       -266.8222617639613645
  Basis Set: 6-31G*
  Basis Set:
  Charge       = 0
  Multiplicity = 1
  Basis Set: 6-31G*
  Basis Set:

    Orbital Energies (a.u.)
    -----------------------

    Doubly Occupied:

       1A    -20.611006     2A    -20.555204     3A    -11.378932
       4A    -11.296083     5A    -11.220674     6A     -1.471570
       7A     -1.373794     8A     -1.048690     9A     -0.916674
      10A     -0.795268    11A     -0.730823    12A     -0.683180
      13A     -0.663193    14A     -0.622273    15A     -0.575586
      16A     -0.543359    17A     -0.528034    18A     -0.503668
      19A     -0.456598    20A     -0.446784

  @DF-RHF Final Energy:  -266.82226221653332

   => Energetics <=

    Nuclear Repulsion Energy =            182.6906738223780451
    One-Electron Energy =                -726.1830843644238485
    Two-Electron Energy =                 276.6701483255124572
    DFT Exchange-Correlation Energy =       0.0000000000000000
    Empirical Dispersion Energy =           0.0000000000000000
    PCM Polarization Energy =               0.0000000000000000
    EFP Energy =                            0.0000000000000000
    Total Energy =                       -266.8222622165333746
    Molecular point group: c1
  Basis Set: 6-31G*
  Basis Set:

  -Total Gradient:
     Atom            X                  Y                   Z
    ------   -----------------  -----------------  -----------------
       1       -0.000019692170     0.000004154716     0.000007251811
       2       -0.000118620194     0.000160423335     0.005759443779
       3       -0.000259394638    -0.000372611282    -0.007655871391
       4        0.000031106900     0.000017190566     0.000014156168
       5        0.002071269460     0.001297313778    -0.003865654225
       6        0.000004536038     0.000008931212    -0.000019167225
       7       -0.001751333994    -0.001107767966     0.005751474680
       8        0.000014990834    -0.000036136174     0.000016497136
       9       -0.000003506643     0.000009290967    -0.000002027560
      10        0.000001772950    -0.000000070915    -0.000004582137
      11        0.000028871458     0.000019281760    -0.000001521034

  **** Optimization is complete! (in 9 steps) ****
    Final optimized geometry and variables:
    Molecular point group: c1

    Geometry (in Angstrom), charge = 0, multiplicity = 1:

    H           -1.279430798903     1.863254160317    -0.083509688566
    C           -0.882817656080     0.858683969415    -0.190559702620
    O            0.430994737167     0.907120061019    -0.176961846062
    O           -1.563430594376    -0.100962928819    -0.322380960264
    C            1.245625715848    -0.269438015714    -0.139113974702
    C            0.782034053717    -1.362952069043     0.813432245839
    H            2.192338785535     0.103060105311     0.222456263849
    H            1.357530112508    -0.640697865340    -1.148736708174
    H            0.584568199321    -0.951393517278     1.797827773040
    H            1.588500424770    -2.083902162161     0.910538782542
    H           -0.102366796010    -1.872233255780     0.466325878259

  Mulliken Charges: (a.u.)
   Center  Symbol    Alpha    Beta     Spin     Total
       1     H     0.41274  0.41274  0.00000  0.17452
       2     C     2.72475  2.72475  0.00000  0.55050
       3     O     4.29803  4.29803  0.00000 -0.59605
       4     O     4.26345  4.26345  0.00000 -0.52690
       5     C     2.99704  2.99704  0.00000  0.00593
       6     C     3.26413  3.26413  0.00000 -0.52827
       7     H     0.40783  0.40783  0.00000  0.18434
       8     H     0.40987  0.40987  0.00000  0.18026
       9     H     0.41447  0.41447  0.00000  0.17107
      10     H     0.41756  0.41756  0.00000  0.16487
      11     H     0.39013  0.39013  0.00000  0.21973

   Total alpha = 20.00000, Total beta = 20.00000, Total charge = -0.00000
