  ==> Input File <==

--------------------------------------------------------------------------
set {
	reference rhf
	basis 6-31G*
}

set_num_threads( 4 )
memory 2 gb

molecule MOL {
0 1

H	 2.332609	 0.878551	 -1.051851
C	 2.357710	 0.000000	 -0.417167
C	 1.175432	 0.000000	 0.532082
H	 3.291263	 0.000000	 0.136880
H	 2.332609	 -0.878551	 -1.051851
O	 0.000000	 0.000000	 -0.221444
H	 1.206604	 0.877321	 1.177902
H	 1.206604	 -0.877321	 1.177902
C	 -1.175432	 0.000000	 0.532082
C	 -0.820645	 0.273903	 1.980515
H	 -1.679847	 -0.961652	 0.439685
H	 -1.860320	 0.760830	 0.158164
H	 -0.148224	 -0.489297	 2.355591
H	 -1.714204	 0.281030	 2.596948
H	 -0.328949	 1.235600	 2.073676

	symmetry c1
}
set optking {
	frozen_dihedral = ("
		11 9 6 3
	")
}

ee = optimize('scf')
oeprop('DIPOLE', 'QUADRUPOLE', 'MULLIKEN_CHARGES')
f=open( 'psi4out.xyz', 'w' )
f.write( "15  " )
f.write( str(ee) + "\n" )
f.write( MOL.save_string_xyz() )
f.close()
--------------------------------------------------------------------------

    Molecular point group: c1
  Charge       = 0
  Multiplicity = 1
  Basis Set: 6-31G*
  Basis Set:
  @DF-RHF Final Energy:  -232.11708224340643
    Total Energy =                       -232.1170822434064576
    Molecular point group: c1
  Basis Set: 6-31G*
  Basis Set:
  Basis Set: 6-31G*
  Basis Set:
  @DF-RHF Final Energy:  -232.12210071967789
    Total Energy =                       -232.1221007196779738
  Basis Set: 6-31G*
  Basis Set:
  Basis Set: 6-31G*
  Basis Set:
  @DF-RHF Final Energy:  -232.12977150006802
    Total Energy =                       -232.1297715000679318
  Basis Set: 6-31G*
  Basis Set:
  Basis Set: 6-31G*
  Basis Set:
  @DF-RHF Final Energy:  -232.13306991165604
    Total Energy =                       -232.1330699116559799
  Basis Set: 6-31G*
  Basis Set:
  @DF-RHF Final Energy:  -232.13372716490011
    Total Energy =                       -232.1337271649000513
  @DF-RHF Final Energy:  -232.13446935767050
    Total Energy =                       -232.1344693576703548
  Basis Set: 6-31G*
  Basis Set:
  @DF-RHF Final Energy:  -232.13461312676219
    Total Energy =                       -232.1346131267623605
  Basis Set: 6-31G*
  Basis Set:
  Basis Set: 6-31G*
  Basis Set:
  @DF-RHF Final Energy:  -232.13462752708952
    Total Energy =                       -232.1346275270894921
  Basis Set: 6-31G*
  Basis Set:
  Basis Set: 6-31G*
  Basis Set:
  @DF-RHF Final Energy:  -232.13462862614944
    Total Energy =                       -232.1346286261496630
  Basis Set: 6-31G*
  Basis Set:
  Charge       = 0
  Multiplicity = 1
  Basis Set: 6-31G*
  Basis Set:

    Orbital Energies (a.u.)
    -----------------------

    Doubly Occupied:

       1A    -20.544849     2A    -11.268492     3A    -11.266998
       4A    -11.217996     5A    -11.206578     6A     -1.366754
       7A     -1.040214     8A     -0.991229     9A     -0.871902
      10A     -0.796304    11A     -0.672599    12A     -0.661933
      13A     -0.614405    14A     -0.600691    15A     -0.548292
      16A     -0.534465    17A     -0.523013    18A     -0.502642
      19A     -0.499433    20A     -0.449621    21A     -0.398833

  @DF-RHF Final Energy:  -232.13462868330760

   => Energetics <=

    Nuclear Repulsion Energy =            192.9847351623814120
    One-Electron Energy =                -697.0842400624129596
    Two-Electron Energy =                 271.9648762167236100
    DFT Exchange-Correlation Energy =       0.0000000000000000
    Empirical Dispersion Energy =           0.0000000000000000
    PCM Polarization Energy =               0.0000000000000000
    EFP Energy =                            0.0000000000000000
    Total Energy =                       -232.1346286833079375
    Molecular point group: c1
  Basis Set: 6-31G*
  Basis Set:

  -Total Gradient:
     Atom            X                  Y                   Z
    ------   -----------------  -----------------  -----------------
       1       -0.000001913095     0.000000375945     0.000002464960
       2       -0.000012383842    -0.000005861167    -0.000001889388
       3        0.000031610583     0.002992267171     0.000099995793
       4       -0.000005756761    -0.000001298179     0.000003364819
       5        0.000002491190    -0.000001789141    -0.000004614555
       6       -0.000451210078    -0.004177542925    -0.000802945615
       7        0.000006109518    -0.000003978680    -0.000000810832
       8        0.000000623690    -0.000003359373    -0.000002198418
       9        0.002105639595    -0.000076239326     0.003438877454
      10       -0.000004948616    -0.000000804495     0.000002752377
      11       -0.001675620481     0.001278585711    -0.002731167428
      12        0.000007451817     0.000001841551    -0.000004529660
      13        0.000002488336    -0.000000537327    -0.000002057068
      14       -0.000001291532     0.000000774561     0.000004076581
      15       -0.000003290326    -0.000002434326    -0.000001319019

  **** Optimization is complete! (in 10 steps) ****
    Final optimized geometry and variables:
    Molecular point group: c1

    Geometry (in Angstrom), charge = 0, multiplicity = 1:

    H            1.980619002394     0.835228167789    -1.661211968279
    C            2.064702443484    -0.062428011761    -1.059118756433
    C            0.987781348559    -0.083340349888     0.009082889558
    H            3.051237361087    -0.085021468239    -0.605819013224
    H            1.964572764526    -0.920646869863    -1.713788600095
    O           -0.248946175658    -0.050767048101    -0.641736655332
    H            1.106203909890     0.770722943220     0.669941059478
    H            1.086569891742    -0.982046829203     0.615581296329
    C           -1.449271689782    -0.059031152127     0.092364843117
    C           -1.362169716462     0.250108198542     1.581856156805
    H           -1.933074791179    -1.020583510724    -0.060609081089
    H           -2.090692142389     0.679812805937    -0.376524212366
    H           -0.767085421935    -0.475809275570     2.123958390183
    H           -2.365435900464     0.227590101085     1.996147572243
    H           -0.952008603411     1.236981082271     1.765085527664

  Mulliken Charges: (a.u.)
   Center  Symbol    Alpha    Beta     Spin     Total
       1     H     0.41403  0.41403  0.00000  0.17194
       2     C     3.24213  3.24213  0.00000 -0.48425
       3     C     2.98593  2.98593  0.00000  0.02814
       4     H     0.42386  0.42386  0.00000  0.15227
       5     H     0.41381  0.41381  0.00000  0.17238
       6     O     4.31993  4.31993  0.00000 -0.63986
       7     H     0.43082  0.43082  0.00000  0.13836
       8     H     0.43296  0.43296  0.00000  0.13408
       9     C     2.97568  2.97568  0.00000  0.04864
      10     C     3.26826  3.26826  0.00000 -0.53652
      11     H     0.42701  0.42701  0.00000  0.14597
      12     H     0.42165  0.42165  0.00000  0.15670
      13     H     0.41542  0.41542  0.00000  0.16916
      14     H     0.41428  0.41428  0.00000  0.17144
      15     H     0.41422  0.41422  0.00000  0.17156

   Total alpha = 21.00000, Total beta = 21.00000, Total charge = -0.00000
