  ==> Input File <==

--------------------------------------------------------------------------
set {
	reference rhf
	basis 6-31G*
}

set_num_threads( 4 )
memory 2 gb

molecule MOL {
0 1

H	 2.037100	 3.563734	 4.201836
C	 1.883323	 2.913994	 3.358643
C	 0.970804	 3.262946	 2.374423
C	 2.598014	 1.730640	 3.259528
H	 0.417184	 4.180974	 2.452508
C	 0.773624	 2.426997	 1.290545
H	 3.304951	 1.461799	 4.023445
C	 2.402278	 0.892293	 2.175445
H	 0.071664	 2.680903	 0.519536
C	 1.488442	 1.239181	 1.187348
H	 2.953164	 -0.024399	 2.094690
C	 1.239129	 0.373821	 0.000060
O	 1.970282	 -0.730723	 0.000018
O	 0.464685	 0.638339	 -0.865460
C	 3.377318	 -0.566646	 -0.000065
H	 3.695437	 -0.028981	 -0.881264
H	 3.789299	 -1.563704	 0.000236
H	 3.695516	 -0.028316	 0.880770

	symmetry c1
}
set optking {
	frozen_dihedral = ("
		10 12 13 15
	")
}

ee = optimize('scf')
oeprop('DIPOLE', 'QUADRUPOLE', 'MULLIKEN_CHARGES')
f=open( 'psi4out.xyz', 'w' )
f.write( "18  " )
f.write( str(ee) + "\n" )
f.write( MOL.save_string_xyz() )
f.close()
--------------------------------------------------------------------------

    Molecular point group: c1
  Charge       = 0
  Multiplicity = 1
  Basis Set: 6-31G*
  Basis Set:
  @DF-RHF Final Energy:  -457.30433245375372
    Total Energy =                       -457.3043324537541139
    Molecular point group: c1
  Basis Set: 6-31G*
  Basis Set:
  Basis Set: 6-31G*
  Basis Set:
  @DF-RHF Final Energy:  -457.32151470330012
    Total Energy =                       -457.3215147032998402
  Basis Set: 6-31G*
  Basis Set:
  Basis Set: 6-31G*
  Basis Set:
  @DF-RHF Final Energy:  -457.32754895852821
    Total Energy =                       -457.3275489585282685
  Basis Set: 6-31G*
  Basis Set:
  Basis Set: 6-31G*
  Basis Set:
  @DF-RHF Final Energy:  -457.32810921013436
    Total Energy =                       -457.3281092101341301
  Basis Set: 6-31G*
  Basis Set:
  @DF-RHF Final Energy:  -457.32881348895660
    Total Energy =                       -457.3288134889569392
  Basis Set: 6-31G*
  Basis Set:
  @DF-RHF Final Energy:  -457.32936182558660
    Total Energy =                       -457.3293618255867159
  Basis Set: 6-31G*
  Basis Set:
  Basis Set: 6-31G*
  Basis Set:
  @DF-RHF Final Energy:  -457.32948700215445
    Total Energy =                       -457.3294870021542238
  Basis Set: 6-31G*
  Basis Set:
  Basis Set: 6-31G*
  Basis Set:
  @DF-RHF Final Energy:  -457.32950447221907
    Total Energy =                       -457.3295044722194689
  Basis Set: 6-31G*
  Basis Set:
  Charge       = 0
  Multiplicity = 1
  Basis Set: 6-31G*
  Basis Set:

    Orbital Energies (a.u.)
    -----------------------

    Doubly Occupied:

       1A    -20.594073     2A    -20.551332     3A    -11.379443
       4A    -11.291935     5A    -11.253132     6A    -11.251941
       7A    -11.250528     8A    -11.248198     9A    -11.245254
      10A    -11.243577    11A     -1.461072    12A     -1.368090
      13A     -1.171539    14A     -1.046675    15A     -1.031761
      16A     -0.979416    17A     -0.874306    18A     -0.843231
      19A     -0.781843    20A     -0.736948    21A     -0.687290
      22A     -0.676637    23A     -0.667046    24A     -0.639073
      25A     -0.627730    26A     -0.608665    27A     -0.600077
      28A     -0.564163    29A     -0.535242    30A     -0.517395
      31A     -0.508137    32A     -0.493467    33A     -0.461192
      34A     -0.440885    35A     -0.350378    36A     -0.347821

  @DF-RHF Final Energy:  -457.32950645615171

   => Energetics <=

    Nuclear Repulsion Energy =            497.2747164950951060
    One-Electron Energy =               -1608.5494637375240927
    Two-Electron Energy =                 653.9452407862768268
    DFT Exchange-Correlation Energy =       0.0000000000000000
    Empirical Dispersion Energy =           0.0000000000000000
    PCM Polarization Energy =               0.0000000000000000
    EFP Energy =                            0.0000000000000000
    Total Energy =                       -457.3295064561521031
    Molecular point group: c1
  Basis Set: 6-31G*
  Basis Set:

  -Total Gradient:
     Atom            X                  Y                   Z
    ------   -----------------  -----------------  -----------------
       1       -0.000008369240    -0.000013474755     0.000006189779
       2       -0.000002107334     0.000054821293    -0.000022754153
       3        0.000073530239     0.000036799601     0.000009673632
       4       -0.000025408818    -0.000065090233    -0.000010446740
       5       -0.000014960916    -0.000012973784     0.000000357519
       6       -0.000064649309    -0.000096334923     0.000023830560
       7       -0.000007596697    -0.000005366295     0.000010581839
       8        0.000021455497     0.000084967006    -0.000001377965
       9        0.000017728671     0.000003284147    -0.000017463878
      10        0.000649381869     0.000795095409    -0.000768968157
      11        0.000018252759    -0.000037691779    -0.000003460540
      12       -0.000956438852    -0.001024536099     0.001903020031
      13       -0.000031590633     0.000321844818    -0.002444320854
      14        0.000059633471    -0.000014170590    -0.000009567289
      15        0.000238347141    -0.000030816918     0.001353955103
      16       -0.000003238149    -0.000003312009    -0.000022485955
      17        0.000021113346     0.000009024107    -0.000006972711
      18        0.000014916957    -0.000002068991     0.000000209776

  **** Optimization is complete! (in 9 steps) ****
    Final optimized geometry and variables:
    Molecular point group: c1

    Geometry (in Angstrom), charge = 0, multiplicity = 1:

    H            0.283674312653     2.559894172270     2.929409244289
    C            0.138213647348     1.865250866925     2.121565087046
    C           -0.593720827245     2.244222380386     1.006335608995
    C            0.676036795226     0.590453049895     2.201320506544
    H           -1.016284599877     3.230842153240     0.948281557101
    C           -0.789824426865     1.347461723273    -0.028516298951
    H            1.230440537122     0.291535741643     3.072397271692
    C            0.496034308299    -0.301286027623     1.157811134787
    H           -1.372212983285     1.620412664151    -0.888057483856
    C           -0.233420324852     0.075573814318     0.036365349857
    H            0.902814546960    -1.293537814376     1.222656116465
    C           -0.504938921265    -0.880386617394    -1.082467538439
    O            0.392214521000    -1.862773873009    -1.275918047940
    O           -1.480448914855    -0.816542826266    -1.749980841449
    C            1.735556629173    -1.536802820134    -1.573518952667
    H            1.802620891792    -1.124365561902    -2.573063666277
    H            2.286749410112    -2.463374244400    -1.532625976050
    H            2.152109284706    -0.835342720272    -0.864849723386

  Mulliken Charges: (a.u.)
   Center  Symbol    Alpha    Beta     Spin     Total
       1     H     0.39420  0.39420  0.00000  0.21160
       2     C     3.09195  3.09195  0.00000 -0.18391
       3     C     3.10506  3.10506  0.00000 -0.21012
       4     C     3.10443  3.10443  0.00000 -0.20886
       5     H     0.39386  0.39386  0.00000  0.21227
       6     C     3.08717  3.08717  0.00000 -0.17434
       7     H     0.39482  0.39482  0.00000  0.21035
       8     C     3.09755  3.09755  0.00000 -0.19510
       9     H     0.37827  0.37827  0.00000  0.24347
      10     C     3.07158  3.07158  0.00000 -0.14315
      11     H     0.38525  0.38525  0.00000  0.22951
      12     C     2.60174  2.60174  0.00000  0.79651
      13     O     4.31428  4.31428  0.00000 -0.62856
      14     O     4.25628  4.25628  0.00000 -0.51257
      15     C     3.09521  3.09521  0.00000 -0.19041
      16     H     0.41070  0.41070  0.00000  0.17859
      17     H     0.40329  0.40329  0.00000  0.19343
      18     H     0.41436  0.41436  0.00000  0.17128

   Total alpha = 36.00000, Total beta = 36.00000, Total charge = -0.00000
