  ==> Input File <==

--------------------------------------------------------------------------
set {
	reference rhf
	basis 6-31G*
}

set_num_threads( 4 )
memory 2 gb

molecule MOL {
0 1

O	 0.749854	 1.307668	 -0.000040
C	 0.576249	 0.131685	 -0.000108
C	 -0.766779	 -0.556801	 -0.000461
O	 1.568443	 -0.749345	 -0.000005
C	 -1.945214	 0.412366	 0.000161
H	 -0.796911	 -1.211249	 -0.867467
H	 -0.796854	 -1.212390	 0.865687
C	 -3.287791	 -0.317055	 0.000105
H	 -1.876087	 1.060580	 -0.866812
H	 -1.875822	 1.059691	 0.867761
H	 -3.394745	 -0.949193	 -0.877058
H	 -4.111778	 0.388953	 0.000015
H	 -3.394954	 -0.949187	 0.877259
C	 1.629947	 -1.647869	 1.092734
H	 1.746153	 -1.108705	 2.021894
H	 2.490783	 -2.272718	 0.912757
H	 0.733796	 -2.249622	 1.140865

	symmetry c1
}
set optking {
	frozen_dihedral = ("
		14 4 2 1
	")
}

ee = optimize('scf')
oeprop('DIPOLE', 'QUADRUPOLE', 'MULLIKEN_CHARGES')
f=open( 'psi4out.xyz', 'w' )
f.write( "17  " )
f.write( str(ee) + "\n" )
f.write( MOL.save_string_xyz() )
f.close()
--------------------------------------------------------------------------

    Molecular point group: c1
  Charge       = 0
  Multiplicity = 1
  Basis Set: 6-31G*
  Basis Set:
  @DF-RHF Final Energy:  -344.88138545820453
    Total Energy =                       -344.8813854582044200
    Molecular point group: c1
  Basis Set: 6-31G*
  Basis Set:
  Basis Set: 6-31G*
  Basis Set:
  @DF-RHF Final Energy:  -344.88130241882101
    Total Energy =                       -344.8813024188210647
  Basis Set: 6-31G*
  Basis Set:
  Basis Set: 6-31G*
  Basis Set:
  @DF-RHF Final Energy:  -344.88517986508322
    Total Energy =                       -344.8851798650833871
  Basis Set: 6-31G*
  Basis Set:
  Basis Set: 6-31G*
  Basis Set:
  @DF-RHF Final Energy:  -344.88610795085214
    Total Energy =                       -344.8861079508523062
  Basis Set: 6-31G*
  Basis Set:
  @DF-RHF Final Energy:  -344.88630285767647
    Total Energy =                       -344.8863028576766965
  Basis Set: 6-31G*
  Basis Set:
  @DF-RHF Final Energy:  -344.88634241094655
    Total Energy =                       -344.8863424109467246
  Basis Set: 6-31G*
  Basis Set:
  Basis Set: 6-31G*
  Basis Set:
  @DF-RHF Final Energy:  -344.88634844040837
    Total Energy =                       -344.8863484404087103
  Basis Set: 6-31G*
  Basis Set:
  Basis Set: 6-31G*
  Basis Set:
  @DF-RHF Final Energy:  -344.88635108708564
    Total Energy =                       -344.8863510870856999
  Basis Set: 6-31G*
  Basis Set:
  Charge       = 0
  Multiplicity = 1
  Basis Set: 6-31G*
  Basis Set:

    Orbital Energies (a.u.)
    -----------------------

    Doubly Occupied:

       1A    -20.589572     2A    -20.553473     3A    -11.375175
       4A    -11.294910     5A    -11.242754     6A    -11.226068
       7A    -11.218095     8A     -1.459483     9A     -1.368027
      10A     -1.081848    11A     -0.988711    12A     -0.961254
      13A     -0.836902    14A     -0.765851    15A     -0.700470
      16A     -0.680365    17A     -0.674616    18A     -0.639412
      19A     -0.614446    20A     -0.580719    21A     -0.566276
      22A     -0.546672    23A     -0.518566    24A     -0.494093
      25A     -0.490643    26A     -0.482557    27A     -0.454305
      28A     -0.434718

  @DF-RHF Final Energy:  -344.88635148525162

   => Energetics <=

    Nuclear Repulsion Energy =            313.0091002381216754
    One-Electron Energy =               -1090.1109398644575776
    Two-Electron Energy =                 432.2154881410843927
    DFT Exchange-Correlation Energy =       0.0000000000000000
    Empirical Dispersion Energy =           0.0000000000000000
    PCM Polarization Energy =               0.0000000000000000
    EFP Energy =                            0.0000000000000000
    Total Energy =                       -344.8863514852515664
    Molecular point group: c1
  Basis Set: 6-31G*
  Basis Set:

  -Total Gradient:
     Atom            X                  Y                   Z
    ------   -----------------  -----------------  -----------------
       1        0.000112547044    -0.000175932655     0.002888583139
       2        0.000369545563     0.001134499005    -0.003527325385
       3        0.000007338710    -0.000017263182    -0.000006153152
       4       -0.001880300001    -0.002504626305    -0.000602873432
       5        0.000001883580     0.000011528231     0.000050255705
       6        0.000010454507    -0.000003053226    -0.000004305182
       7        0.000006933341     0.000028324193    -0.000015344899
       8        0.000000823685    -0.000002306411    -0.000031512843
       9       -0.000006935543     0.000008370438    -0.000004311669
      10        0.000007396343    -0.000007911593     0.000006812305
      11        0.000002806686    -0.000012685218     0.000007206681
      12        0.000005254721    -0.000000433996    -0.000011961390
      13       -0.000003549574     0.000012262088     0.000008663964
      14        0.001353033867     0.001534971041     0.001237901518
      15       -0.000003183204     0.000002648526    -0.000010731674
      16        0.000001034795    -0.000006357889     0.000006280981
      17        0.000014915475    -0.000002033049     0.000008815334

  **** Optimization is complete! (in 9 steps) ****
    Final optimized geometry and variables:
    Molecular point group: c1

    Geometry (in Angstrom), charge = 0, multiplicity = 1:

    O            0.905568397137     1.492364375267    -0.047921093424
    C            0.734125830882     0.324206468630    -0.090841541642
    C           -0.629152390954    -0.334103085312    -0.092453098904
    O            1.784376439854    -0.517974740230    -0.181827560574
    C           -1.779380677195     0.657493018507    -0.250036147221
    H           -0.636939914219    -1.075636833611    -0.886911199478
    H           -0.741297503725    -0.889656635453     0.836167151405
    C           -3.140160970699    -0.037128593773    -0.249575016294
    H           -1.647812686230     1.212367294475    -1.172835794498
    H           -1.733566856322     1.386622256857     0.550857387466
    H           -3.219680849792    -0.754145360013    -1.061914943785
    H           -3.942008230814     0.684212187652    -0.367318191560
    H           -3.311948157708    -0.571596924588     0.680824525027
    C            1.988643846580    -1.474303381902     0.834115087276
    H            1.992539843180    -1.004989743984     1.811196158727
    H            2.958030847668    -1.909298992353     0.647914567935
    H            1.239104144142    -2.256605665464     0.807875171563

  Mulliken Charges: (a.u.)
   Center  Symbol    Alpha    Beta     Spin     Total
       1     O     4.25245  4.25245  0.00000 -0.50490
       2     C     2.61045  2.61045  0.00000  0.77909
       3     C     3.22093  3.22093  0.00000 -0.44186
       4     O     4.31145  4.31145  0.00000 -0.62291
       5     C     3.15073  3.15073  0.00000 -0.30147
       6     H     0.40109  0.40109  0.00000  0.19782
       7     H     0.40632  0.40632  0.00000  0.18737
       8     C     3.24303  3.24303  0.00000 -0.48605
       9     H     0.41016  0.41016  0.00000  0.17969
      10     H     0.40832  0.40832  0.00000  0.18336
      11     H     0.42102  0.42102  0.00000  0.15795
      12     H     0.41400  0.41400  0.00000  0.17200
      13     H     0.42223  0.42223  0.00000  0.15555
      14     C     3.09349  3.09349  0.00000 -0.18699
      15     H     0.41469  0.41469  0.00000  0.17061
      16     H     0.40012  0.40012  0.00000  0.19977
      17     H     0.41951  0.41951  0.00000  0.16097

   Total alpha = 28.00000, Total beta = 28.00000, Total charge =  0.00000
