  ==> Input File <==

--------------------------------------------------------------------------
set {
	reference rhf
	basis 6-31G*
}

set_num_threads( 4 )
memory 2 gb

molecule MOL {
0 1

H	 0.771321	 4.436122	 1.562904
N	 -0.045077	 3.862582	 1.472948
C	 0.268128	 2.625341	 0.772475
H	 -0.718747	 4.396878	 0.957656
C	 -0.952676	 1.712687	 0.722942
H	 1.064442	 2.129568	 1.319239
H	 0.639836	 2.788894	 -0.242160
C	 -0.679275	 0.379305	 0.025956
H	 -1.294562	 1.541745	 1.739666
H	 -1.762337	 2.229087	 0.208047
C	 -1.903357	 -0.536963	 -0.023547
H	 0.131825	 -0.135939	 0.538293
H	 -0.329671	 0.563404	 -0.988801
C	 -3.225172	 0.228290	 0.028445
H	 -1.867824	 -1.134999	 -0.931459
H	 -1.860449	 -1.239604	 0.805977
H	 -3.313397	 0.915643	 -0.808262
H	 -4.073500	 -0.448134	 -0.008893
H	 -3.306061	 0.809945	 0.942516

	symmetry c1
}
set optking {
	frozen_dihedral = ("
		12 8 11 15
	")
}

ee = optimize('scf')
oeprop('DIPOLE', 'QUADRUPOLE', 'MULLIKEN_CHARGES')
f=open( 'psi4out.xyz', 'w' )
f.write( "19  " )
f.write( str(ee) + "\n" )
f.write( MOL.save_string_xyz() )
f.close()
--------------------------------------------------------------------------

    Molecular point group: c1
  Charge       = 0
  Multiplicity = 1
  Basis Set: 6-31G*
  Basis Set:
  @DF-RHF Final Energy:  -251.34236928425361
    Total Energy =                       -251.3423692842535502
    Molecular point group: c1
  Basis Set: 6-31G*
  Basis Set:
  Basis Set: 6-31G*
  Basis Set:
  @DF-RHF Final Energy:  -251.34296537735969
    Total Energy =                       -251.3429653773597465
  Basis Set: 6-31G*
  Basis Set:
  Basis Set: 6-31G*
  Basis Set:
  @DF-RHF Final Energy:  -251.34499705853153
    Total Energy =                       -251.3449970585315896
  Basis Set: 6-31G*
  Basis Set:
  Basis Set: 6-31G*
  Basis Set:
  @DF-RHF Final Energy:  -251.34519609324076
    Total Energy =                       -251.3451960932409293
  Basis Set: 6-31G*
  Basis Set:
  Basis Set: 6-31G*
  Basis Set:
  @DF-RHF Final Energy:  -251.34519027640511
    Total Energy =                       -251.3451902764052193
  Basis Set: 6-31G*
  Basis Set:
  Basis Set: 6-31G*
  Basis Set:
  @DF-RHF Final Energy:  -251.34520993294819
    Total Energy =                       -251.3452099329483644
  Basis Set: 6-31G*
  Basis Set:
  Basis Set: 6-31G*
  Basis Set:
  @DF-RHF Final Energy:  -251.34521689494761
    Total Energy =                       -251.3452168949476118
  Basis Set: 6-31G*
  Basis Set:
  Charge       = 0
  Multiplicity = 1
  Basis Set: 6-31G*
  Basis Set:

    Orbital Energies (a.u.)
    -----------------------

    Doubly Occupied:

       1A    -15.532300     2A    -11.239456     3A    -11.214635
       4A    -11.213319     5A    -11.208645     6A    -11.206111
       7A     -1.176396     8A     -1.070102     9A     -0.993920
      10A     -0.903864    11A     -0.825721    12A     -0.770800
      13A     -0.665364    14A     -0.634990    15A     -0.616305
      16A     -0.601071    17A     -0.568846    18A     -0.541827
      19A     -0.521752    20A     -0.506557    21A     -0.487307
      22A     -0.455468    23A     -0.452939    24A     -0.450540
      25A     -0.380825

  @DF-RHF Final Energy:  -251.34521662413843

   => Energetics <=

    Nuclear Repulsion Energy =            249.6141419451000445
    One-Electron Energy =                -833.4406036563872249
    Two-Electron Energy =                 332.4812450871487499
    DFT Exchange-Correlation Energy =       0.0000000000000000
    Empirical Dispersion Energy =           0.0000000000000000
    PCM Polarization Energy =               0.0000000000000000
    EFP Energy =                            0.0000000000000000
    Total Energy =                       -251.3452166241384020
    Molecular point group: c1
  Basis Set: 6-31G*
  Basis Set:

  -Total Gradient:
     Atom            X                  Y                   Z
    ------   -----------------  -----------------  -----------------
       1       -0.000000260823     0.000006084208     0.000005520713
       2        0.000009911194    -0.000001436324     0.000013857533
       3        0.000001775729    -0.000002727652    -0.000011583285
       4        0.000001518552    -0.000004949660    -0.000001873241
       5        0.000016028975    -0.000007851426    -0.000024724443
       6        0.000001898493     0.000004223227    -0.000001714730
       7        0.000003109607     0.000000102216     0.000000212997
       8        0.001620991074    -0.001932531405    -0.007251924901
       9       -0.000020921926    -0.000010786752    -0.000006480795
      10        0.000036289540     0.000002759804     0.000005200996
      11        0.003722440086    -0.004618936481     0.004966879196
      12       -0.001935950677     0.002399990836     0.005419075045
      13       -0.000004519958     0.000018595899    -0.000001759742
      14        0.000002802207    -0.000038774802    -0.000034017513
      15       -0.003434041638     0.004213583394    -0.003086927653
      16       -0.000024874252    -0.000014266037    -0.000006234616
      17       -0.000017504404    -0.000028189146    -0.000002389450
      18       -0.000000625206    -0.000005349990     0.000013655617
      19        0.000021933425     0.000020460092     0.000005228274

  **** Optimization is complete! (in 8 steps) ****
    Final optimized geometry and variables:
    Molecular point group: c1

    Geometry (in Angstrom), charge = 0, multiplicity = 1:

    H            1.974621733081     2.985677624485     1.079059428706
    N            1.133461576061     2.449797087178     0.984827569652
    C            1.391796678838     1.204500091621     0.276037727529
    H            0.484812943582     3.017230228659     0.472863934808
    C            0.130813448272     0.347901176802     0.219547825687
    H            2.165722620742     0.670882315144     0.819335782757
    H            1.770985250326     1.358578812134    -0.737464564566
    C            0.364574055242    -0.985287990725    -0.500907144514
    H           -0.208780617680     0.175813054018     1.236903342226
    H           -0.653668698558     0.913713360313    -0.277555259904
    C           -0.832400467163    -1.962545743710    -0.501560453174
    H            1.194519093095    -1.468050096721     0.009919565970
    H            0.680675515826    -0.787504558631    -1.521734973038
    C           -2.220305122341    -1.312318577460    -0.513741744741
    H           -0.772979250543    -2.572232623854    -1.399081049690
    H           -0.764216343227    -2.630342101610     0.351753845543
    H           -2.341334535616    -0.650928533014    -1.367238966394
    H           -2.989313473426    -2.075951389719    -0.581461286659
    H           -2.412092668947    -0.734497114095     0.383553602230

  Mulliken Charges: (a.u.)
   Center  Symbol    Alpha    Beta     Spin     Total
       1     H     0.33254  0.33254  0.00000  0.33492
       2     N     3.92195  3.92195  0.00000 -0.84390
       3     C     3.05988  3.05988  0.00000 -0.11977
       4     H     0.33540  0.33540  0.00000  0.32920
       5     C     3.15499  3.15499  0.00000 -0.30998
       6     H     0.42117  0.42117  0.00000  0.15766
       7     H     0.43501  0.43501  0.00000  0.12998
       8     C     3.15795  3.15795  0.00000 -0.31590
       9     H     0.41347  0.41347  0.00000  0.17306
      10     H     0.42516  0.42516  0.00000  0.14967
      11     C     3.15206  3.15206  0.00000 -0.30411
      12     H     0.42173  0.42173  0.00000  0.15655
      13     H     0.42284  0.42284  0.00000  0.15432
      14     C     3.24316  3.24316  0.00000 -0.48631
      15     H     0.42129  0.42129  0.00000  0.15742
      16     H     0.42051  0.42051  0.00000  0.15897
      17     H     0.42304  0.42304  0.00000  0.15393
      18     H     0.41983  0.41983  0.00000  0.16035
      19     H     0.41803  0.41803  0.00000  0.16394

   Total alpha = 25.00000, Total beta = 25.00000, Total charge = -0.00000
