  ==> Input File <==

--------------------------------------------------------------------------
set {
	reference rhf
	basis cc-pvtz
}

set_num_threads( 4 )
memory 2 gb

molecule MOL {
0 1

H	 2.828711	 -0.346904	 0.001083
C	 1.876752	 0.015931	 -0.363450
C	 0.776285	 -0.474665	 0.563092
H	 1.728113	 -0.357244	 -1.367440
H	 1.906171	 1.096574	 -0.386153
N	 -0.540022	 0.017605	 0.071630
H	 0.707111	 -1.548969	 0.573035
H	 0.886169	 -0.084184	 1.560432
O	 -1.488871	 -0.656082	 0.295295
O	 -0.545461	 1.035767	 -0.534763

	symmetry c1
}
set optking {
	frozen_dihedral = ("
		9 6 3 2
	")
}

ee = optimize('scf')
oeprop('DIPOLE', 'QUADRUPOLE', 'MULLIKEN_CHARGES')
f=open( 'psi4out.xyz', 'w' )
f.write( "10  " )
f.write( str(ee) + "\n" )
f.write( MOL.save_string_xyz() )
f.close()
--------------------------------------------------------------------------

    Molecular point group: c1
  Charge       = 0
  Multiplicity = 1
  Basis Set: CC-PVTZ
  Basis Set:
  @DF-RHF Final Energy:  -282.81161798209655
    Total Energy =                       -282.8116179820964362
    Molecular point group: c1
  Basis Set: CC-PVTZ
  Basis Set:
  Basis Set: CC-PVTZ
  Basis Set:
  @DF-RHF Final Energy:  -282.80896980006492
    Total Energy =                       -282.8089698000648013
  Basis Set: CC-PVTZ
  Basis Set:
  Basis Set: CC-PVTZ
  Basis Set:
  @DF-RHF Final Energy:  -282.81014579778002
    Total Energy =                       -282.8101457977800237
  Basis Set: CC-PVTZ
  Basis Set:
  Basis Set: CC-PVTZ
  Basis Set:
  @DF-RHF Final Energy:  -282.81290748901000
    Total Energy =                       -282.8129074890102856
  Basis Set: CC-PVTZ
  Basis Set:
  Basis Set: CC-PVTZ
  Basis Set:
  @DF-RHF Final Energy:  -282.81297061173683
    Total Energy =                       -282.8129706117368869
  Basis Set: CC-PVTZ
  Basis Set:
  Basis Set: CC-PVTZ
  Basis Set:
  @DF-RHF Final Energy:  -282.81297733256656
    Total Energy =                       -282.8129773325663905
  Basis Set: CC-PVTZ
  Basis Set:
  Charge       = 0
  Multiplicity = 1
  Basis Set: CC-PVTZ
  Basis Set:

    Orbital Energies (a.u.)
    -----------------------

    Doubly Occupied:

       1A    -20.592746     2A    -20.591495     3A    -15.839385
       4A    -11.302982     5A    -11.244932     6A     -1.638494
       7A     -1.422710     8A     -1.124360     9A     -0.966994
      10A     -0.836047    11A     -0.764440    12A     -0.748432
      13A     -0.731948    14A     -0.644887    15A     -0.592958
      16A     -0.564030    17A     -0.539485    18A     -0.489900
      19A     -0.479679    20A     -0.455867

  @DF-RHF Final Energy:  -282.81297775133748

   => Energetics <=

    Nuclear Repulsion Energy =            186.5700482031515151
    One-Electron Energy =                -755.6225115672615402
    Two-Electron Energy =                 286.2394856127725120
    DFT Exchange-Correlation Energy =       0.0000000000000000
    Empirical Dispersion Energy =           0.0000000000000000
    PCM Polarization Energy =               0.0000000000000000
    EFP Energy =                            0.0000000000000000
    Total Energy =                       -282.8129777513375416
    Molecular point group: c1
  Basis Set: CC-PVTZ
  Basis Set:

  -Total Gradient:
     Atom            X                  Y                   Z
    ------   -----------------  -----------------  -----------------
       1       -0.000011138313     0.000001101402     0.000000653298
       2        0.000004505783     0.000129306762     0.000072051673
       3       -0.000019988712    -0.000166704357    -0.000036798178
       4        0.000008459006     0.000002665963    -0.000002325339
       5        0.000010276266     0.000013512876    -0.000010974034
       6        0.000094668213    -0.000073669704    -0.000197779890
       7       -0.000009580837    -0.000000684369     0.000008114509
       8       -0.000005424114     0.000000074336     0.000001086977
       9       -0.000041885884     0.000113799847     0.000155218433
      10       -0.000029891406    -0.000019402755     0.000010752553

  **** Optimization is complete! (in 7 steps) ****
    Final optimized geometry and variables:
    Molecular point group: c1

    Geometry (in Angstrom), charge = 0, multiplicity = 1:

    H            2.851330149776    -0.378521317602     0.011309297719
    C            1.920812421750     0.017286603608    -0.376236649447
    C            0.795224594195    -0.450765739615     0.519881170445
    H            1.791364775967    -0.345478868467    -1.387254346024
    H            1.983009697440     1.093912777466    -0.401046070485
    N           -0.546040295658     0.019128963119     0.059587190794
    H            0.713984837005    -1.522449073031     0.576469828432
    H            0.885770113120    -0.055951047230     1.522359395014
    O           -1.468176833317    -0.680989572185     0.310740617474
    O           -0.609735201254     1.065601148723    -0.490953807798

  Mulliken Charges: (a.u.)
   Center  Symbol    Alpha    Beta     Spin     Total
       1     H     0.44931  0.44931  0.00000  0.10139
       2     C     3.14002  3.14002  0.00000 -0.28005
       3     C     3.04158  3.04158  0.00000 -0.08315
       4     H     0.44496  0.44496  0.00000  0.11008
       5     H     0.43726  0.43726  0.00000  0.12549
       6     N     3.27699  3.27699  0.00000  0.44603
       7     H     0.43127  0.43127  0.00000  0.13746
       8     H     0.43634  0.43634  0.00000  0.12732
       9     O     4.17099  4.17099  0.00000 -0.34199
      10     O     4.17129  4.17129  0.00000 -0.34258

   Total alpha = 20.00000, Total beta = 20.00000, Total charge = -0.00000
