                              Psi4 1.0.54 Driver

  ==> Input File <==

--------------------------------------------------------------------------
set {
	reference rhf
	basis cc-pvtz
}

set_num_threads( 4 )
memory 2 gb

molecule MOL {
0 1

H	 -2.816458	 -0.841657	 -0.064679
N	 -1.878861	 -0.711874	 0.250184
C	 -1.341419	 0.551458	 -0.220231
H	 -1.333674	 -1.468530	 -0.105118
C	 0.138975	 0.639303	 0.071937
H	 -1.491488	 0.716058	 -1.286500
H	 -1.839190	 1.358163	 0.306554
O	 0.802939	 -0.339094	 -0.669412
H	 0.510445	 1.627562	 -0.195506
H	 0.311409	 0.486433	 1.134870
C	 2.170556	 -0.408824	 -0.437069
H	 2.574468	 -1.191994	 -1.062277
H	 2.664732	 0.527546	 -0.687460
H	 2.386009	 -0.644004	 0.602562

	symmetry c1
}
set optking {
	frozen_dihedral = ("
		6 3 2 4
	")
}

ee,wfn = optimize('scf', return_wfn=True)
oeprop( wfn, 'DIPOLE', 'QUADRUPOLE', 'MULLIKEN_CHARGES')
f=open( 'psi4out.xyz', 'w' )
f.write( "14  " )
f.write( str(ee) + "\n" )
f.write( MOL.save_string_xyz() )
f.close()
--------------------------------------------------------------------------

    Molecular point group: c1
  Charge       = 0
  Multiplicity = 1
  Basis Set: CC-PVTZ
  Basis Set:
  @DF-RHF Final Energy:  -248.22596362356407
    Total Energy =                       -248.2259636235642120
    Molecular point group: c1
  Basis Set: CC-PVTZ
  Basis Set:
  Basis Set: CC-PVTZ
  Basis Set:
  @DF-RHF Final Energy:  -248.22598675686831
    Total Energy =                       -248.2259867568684513
  Basis Set: CC-PVTZ
  Basis Set:
  Charge       = 0
  Multiplicity = 1
  Basis Set: CC-PVTZ
  Basis Set:

    Orbital Energies (a.u.)
    -----------------------

    Doubly Occupied:

       1A    -20.552044     2A    -15.522511     3A    -11.265382
       4A    -11.264636     5A    -11.239765     6A     -1.385858
       7A     -1.175417     8A     -1.001026     9A     -0.908689
      10A     -0.816612    11A     -0.687075    12A     -0.675263
      13A     -0.649221    14A     -0.613957    15A     -0.604364
      16A     -0.544552    17A     -0.531628    18A     -0.498556
      19A     -0.474589    20A     -0.421414    21A     -0.382616

  @DF-RHF Final Energy:  -248.22598855862122

   => Energetics <=

    Nuclear Repulsion Energy =            194.7678577491851115
    One-Electron Energy =                -723.5573422822724297
    Two-Electron Energy =                 280.5634959744660932
    DFT Exchange-Correlation Energy =       0.0000000000000000
    Empirical Dispersion Energy =           0.0000000000000000
    PCM Polarization Energy =               0.0000000000000000
    EFP Energy =                            0.0000000000000000
    Total Energy =                       -248.2259885586211681
    Molecular point group: c1
  Basis Set: CC-PVTZ
  Basis Set:

  -Total Gradient:
     Atom            X                  Y                   Z
    ------   -----------------  -----------------  -----------------
       1       -0.000015962556     0.000029755393    -0.000030167483
       2       -0.001496314955     0.000053652941    -0.001309177096
       3        0.001911782826    -0.000666939440    -0.000231950825
       4        0.000964390865     0.000014726813     0.001194734456
       5       -0.000056779291    -0.000042669036     0.000083544976
       6       -0.001288517264     0.000649955578     0.000334174747
       7        0.000019522928     0.000010128482    -0.000018183883
       8        0.000038943843    -0.000060596504    -0.000051073449
       9       -0.000069522267    -0.000029714161     0.000006832308
      10        0.000008659244     0.000028653682     0.000030183462
      11       -0.000008886162     0.000006550984    -0.000016127502
      12       -0.000005036323     0.000002022819    -0.000001643516
      13        0.000004156664     0.000002047919     0.000002174092
      14       -0.000006437552     0.000002424531     0.000006679713

  **** Optimization is complete! (in 3 steps) ****
    Final optimized geometry and variables:
    Molecular point group: c1

    Geometry (in Angstrom), charge = 0, multiplicity = 1:

    H           -2.814412159002    -0.761609786521     0.155323174163
    N           -1.869635607925    -0.639959046959     0.449906143872
    C           -1.329878712705     0.624913355807    -0.013213520660
    H           -1.332310283428    -1.395952352433     0.081910916555
    C            0.150151720016     0.710466298999     0.279171062454
    H           -1.489664354877     0.800461098818    -1.076165858327
    H           -1.823449842506     1.430887671059     0.519809353612
    O            0.816185284919    -0.271812649154    -0.455261289429
    H            0.521811972444     1.697398851680     0.008684090062
    H            0.321440331273     0.563129558208     1.343361014849
    C            2.185117188542    -0.332339689057    -0.227165697855
    H            2.590330680169    -1.120658031004    -0.844920100184
    H            2.673649362196     0.603474756237    -0.490047146651
    H            2.405514719370    -0.554477653627     0.814330203183

  Mulliken Charges: (a.u.)
   Center  Symbol    Alpha    Beta     Spin     Total
       1     H     0.43007  0.43007  0.00000  0.13985
       2     N     3.69563  3.69563  0.00000 -0.39126
       3     C     3.01847  3.01847  0.00000 -0.03694
       4     H     0.42217  0.42217  0.00000  0.15567
       5     C     2.97221  2.97221  0.00000  0.05557
       6     H     0.46493  0.46493  0.00000  0.07014
       7     H     0.46025  0.46025  0.00000  0.07949
       8     O     4.17983  4.17983  0.00000 -0.35965
       9     H     0.46862  0.46862  0.00000  0.06276
      10     H     0.46786  0.46786  0.00000  0.06429
      11     C     3.03222  3.03222  0.00000 -0.06444
      12     H     0.44738  0.44738  0.00000  0.10523
      13     H     0.47061  0.47061  0.00000  0.05879
      14     H     0.46975  0.46975  0.00000  0.06049

   Total alpha = 21.00000, Total beta = 21.00000, Total charge = -0.00000

*** Psi4 exiting successfully. Buy a developer a beer!
