                              Psi4 1.0.54 Driver

  ==> Input File <==

--------------------------------------------------------------------------
set {
	reference rhf
	basis cc-pvtz
}

set_num_threads( 4 )
memory 2 gb

molecule MOL {
0 1

O	 1.074306	 1.121244	 0.637503
C	 1.121787	 0.124983	 0.000110
C	 0.030098	 -0.389478	 -0.902668
O	 2.167739	 -0.685178	 -0.000678
C	 -1.202813	 0.501689	 -0.943602
H	 0.461343	 -0.509455	 -1.891159
H	 -0.219421	 -1.390409	 -0.566011
C	 -2.286725	 -0.047723	 -1.866419
H	 -0.915355	 1.496138	 -1.266061
H	 -1.597168	 0.613868	 0.060114
C	 -3.526161	 0.838935	 -1.916692
H	 -1.884696	 -0.161058	 -2.869797
H	 -2.570513	 -1.044288	 -1.538456
H	 -3.280843	 1.833214	 -2.274203
H	 -4.277836	 0.424906	 -2.578689
H	 -3.971717	 0.943487	 -0.933265
C	 3.449556	 -0.089977	 -0.000570
H	 3.585694	 0.522473	 -0.879546
H	 4.155805	 -0.904274	 -0.001389
H	 3.586173	 0.521118	 0.879272

	symmetry c1
}
set optking {
	frozen_dihedral = ("
		1 2 4 17
	")
}

ee,wfn = optimize('scf', return_wfn=True)
oeprop( wfn, 'DIPOLE', 'QUADRUPOLE', 'MULLIKEN_CHARGES')
f=open( 'psi4out.xyz', 'w' )
f.write( "20  " )
f.write( str(ee) + "\n" )
f.write( MOL.save_string_xyz() )
f.close()
--------------------------------------------------------------------------

    Molecular point group: c1
  Charge       = 0
  Multiplicity = 1
  Basis Set: CC-PVTZ
  Basis Set:
  @DF-RHF Final Energy:  -384.07509625998381
    Total Energy =                       -384.0750962599838658
    Molecular point group: c1
  Basis Set: CC-PVTZ
  Basis Set:
  Basis Set: CC-PVTZ
  Basis Set:
  @DF-RHF Final Energy:  -383.89606230771733
    Total Energy =                       -383.8960623077175569
  Basis Set: CC-PVTZ
  Basis Set:
  Basis Set: CC-PVTZ
  Basis Set:
  @DF-RHF Final Energy:  -384.02004399449197
    Total Energy =                       -384.0200439944923687
  Basis Set: CC-PVTZ
  Basis Set:
  Basis Set: CC-PVTZ
  Basis Set:
  @DF-RHF Final Energy:  -384.07109135236425
    Total Energy =                       -384.0710913523643057
  Basis Set: CC-PVTZ
  Basis Set:
  @DF-RHF Final Energy:  -384.06513584639896
    Total Energy =                       -384.0651358463988458
  @DF-RHF Final Energy:  -384.07354379800825
    Total Energy =                       -384.0735437980080178
  @DF-RHF Final Energy:  -384.07568474005853
    Total Energy =                       -384.0756847400587048
  Basis Set: CC-PVTZ
  Basis Set:
  @DF-RHF Final Energy:  -384.07578675609130
    Total Energy =                       -384.0757867560919294
  Basis Set: CC-PVTZ
  Basis Set:
  Basis Set: CC-PVTZ
  Basis Set:
  @DF-RHF Final Energy:  -384.07579746583434
    Total Energy =                       -384.0757974658341709
  Basis Set: CC-PVTZ
  Basis Set:
  Basis Set: CC-PVTZ
  Basis Set:
  @DF-RHF Final Energy:  -384.07579903673343
    Total Energy =                       -384.0757990367330876
  Basis Set: CC-PVTZ
  Basis Set:
  Charge       = 0
  Multiplicity = 1
  Basis Set: CC-PVTZ
  Basis Set:

    Orbital Energies (a.u.)
    -----------------------

    Doubly Occupied:

       1A    -20.588875     2A    -20.538274     3A    -11.366094
       4A    -11.281656     5A    -11.234758     6A    -11.218965
       7A    -11.217817     8A    -11.209141     9A     -1.467226
      10A     -1.367170    11A     -1.090216    12A     -1.023906
      13A     -0.969684    14A     -0.889222    15A     -0.805453
      16A     -0.768078    17A     -0.698513    18A     -0.682743
      19A     -0.676126    20A     -0.646063    21A     -0.604264
      22A     -0.593399    23A     -0.582199    24A     -0.546017
      25A     -0.536339    26A     -0.520226    27A     -0.502925
      28A     -0.481138    29A     -0.476537    30A     -0.471089
      31A     -0.457372    32A     -0.437535

  @DF-RHF Final Energy:  -384.07579951347736

   => Energetics <=

    Nuclear Repulsion Energy =            381.2839595764821752
    One-Electron Energy =               -1278.8214749442772700
    Two-Electron Energy =                 513.4617158543175037
    DFT Exchange-Correlation Energy =       0.0000000000000000
    Empirical Dispersion Energy =           0.0000000000000000
    PCM Polarization Energy =               0.0000000000000000
    EFP Energy =                            0.0000000000000000
    Total Energy =                       -384.0757995134775911
    Molecular point group: c1
  Basis Set: CC-PVTZ
  Basis Set:

  -Total Gradient:
     Atom            X                  Y                   Z
    ------   -----------------  -----------------  -----------------
       1       -0.005642676818    -0.001548883463     0.007461334864
       2        0.009381734528     0.000612445046    -0.014172696719
       3       -0.000034311357     0.000070048330     0.000017353438
       4       -0.005733096425     0.004246046825     0.013051783012
       5        0.000014090307    -0.000038297674    -0.000016678918
       6        0.000001704124    -0.000012316360     0.000006680348
       7        0.000005642553     0.000007046319    -0.000017684250
       8       -0.000017390746     0.000018418704     0.000020004344
       9       -0.000009208131    -0.000022093364     0.000020014201
      10       -0.000009507118    -0.000002268075    -0.000013289257
      11        0.000013249402     0.000001420711    -0.000014323619
      12        0.000004307646     0.000004317763     0.000015930639
      13        0.000006092877     0.000025110559    -0.000019717972
      14       -0.000008061780    -0.000024439445     0.000017436680
      15        0.000001430456     0.000020599786     0.000004828371
      16        0.000000784633    -0.000008516706    -0.000007910181
      17        0.002008687670    -0.003316643167    -0.006358288697
      18        0.000001299741    -0.000011663061     0.000016399543
      19        0.000017046034     0.000003057722    -0.000000687813
      20       -0.000001817588    -0.000023390450    -0.000010488011

  **** Optimization is complete! (in 11 steps) ****
    Final optimized geometry and variables:
    Molecular point group: c1

    Geometry (in Angstrom), charge = 0, multiplicity = 1:

    O            0.667457034797     1.531207466972     0.712934049090
    C            0.877423490056     0.371348576889     0.638682242452
    C            0.009187479818    -0.626293457891    -0.081141002040
    O            1.886072119722    -0.226116250500     1.274352309549
    C           -1.274006545854    -0.037182843137    -0.647913233853
    H            0.619078625537    -1.065224957036    -0.865962656176
    H           -0.196109112143    -1.432905974953     0.614446619543
    C           -2.121036043063    -1.077297602037    -1.375216848713
    H           -1.027936182893     0.774228464933    -1.323272772524
    H           -1.849492339804     0.406379686173     0.157258983555
    C           -3.409758168124    -0.496375760428    -1.946677855448
    H           -1.538702428343    -1.520109998433    -2.179054985416
    H           -2.363305381797    -1.888101238426    -0.693369480607
    H           -3.199696861917     0.294593518701    -2.658526477373
    H           -3.989808138422    -1.256229686342    -2.457323163834
    H           -4.030518541014    -0.076881995550    -1.162325834591
    C            3.123365916787     0.455850202709     1.316022095880
    H            3.487352735722     0.632225649969     0.312119382696
    H            3.808206826887    -0.190336698173     1.840659690768
    H            3.032059091240     1.397662169319     1.835299396009

  Mulliken Charges: (a.u.)
   Center  Symbol    Alpha    Beta     Spin     Total
       1     O     4.18715  4.18715  0.00000 -0.37429
       2     C     2.80163  2.80163  0.00000  0.39675
       3     C     3.10282  3.10282  0.00000 -0.20565
       4     O     4.15565  4.15565  0.00000 -0.31130
       5     C     3.08288  3.08288  0.00000 -0.16576
       6     H     0.44430  0.44430  0.00000  0.11141
       7     H     0.43765  0.43765  0.00000  0.12470
       8     C     3.08631  3.08631  0.00000 -0.17262
       9     H     0.44605  0.44605  0.00000  0.10791
      10     H     0.44696  0.44696  0.00000  0.10609
      11     C     3.14927  3.14927  0.00000 -0.29853
      12     H     0.45551  0.45551  0.00000  0.08897
      13     H     0.45487  0.45487  0.00000  0.09027
      14     H     0.45391  0.45391  0.00000  0.09218
      15     H     0.44832  0.44832  0.00000  0.10337
      16     H     0.45371  0.45371  0.00000  0.09259
      17     C     3.03742  3.03742  0.00000 -0.07484
      18     H     0.46330  0.46330  0.00000  0.07340
      19     H     0.44545  0.44545  0.00000  0.10911
      20     H     0.44686  0.44686  0.00000  0.10628

   Total alpha = 32.00000, Total beta = 32.00000, Total charge = -0.00000

*** Psi4 exiting successfully. Buy a developer a beer!
