  ==> Input File <==

--------------------------------------------------------------------------
set {
	reference rhf
	basis 6-31G*
}

set_num_threads( 4 )
memory 2 gb

molecule MOL {
0 1

H	 -3.420663	 1.227371	 -1.044276
O	 -3.452007	 0.283848	 -0.965577
C	 -3.181085	 -0.079926	 0.364119
C	 -1.765924	 0.277073	 0.805136
H	 -3.327791	 -1.152017	 0.410903
H	 -3.905698	 0.375695	 1.036898
C	 -0.677594	 -0.417312	 -0.014550
H	 -1.637766	 1.358238	 0.744969
H	 -1.659588	 0.017670	 1.857098
C	 0.738335	 -0.034840	 0.421385
H	 -0.814977	 -0.178223	 -1.064632
H	 -0.802730	 -1.495410	 0.071702
C	 1.300411	 1.153036	 -0.364177
H	 0.731637	 0.192662	 1.484690
H	 1.399498	 -0.891523	 0.296644
C	 2.750157	 1.518253	 -0.025047
H	 0.665011	 2.022779	 -0.204467
H	 1.241440	 0.926533	 -1.426738
C	 2.958516	 2.038652	 1.398391
H	 3.086662	 2.278204	 -0.726138
H	 3.387237	 0.651487	 -0.189513
H	 2.324260	 2.898800	 1.595886
H	 3.988475	 2.347391	 1.549057
H	 2.733628	 1.283525	 2.144294

	symmetry c1
}
set optking {
	frozen_dihedral = ("
		13 10 7 11
	")
}

ee = optimize('scf')
oeprop('DIPOLE', 'QUADRUPOLE', 'MULLIKEN_CHARGES')
f=open( 'psi4out.xyz', 'w' )
f.write( "24  " )
f.write( str(ee) + "\n" )
f.write( MOL.save_string_xyz() )
f.close()
--------------------------------------------------------------------------

    Molecular point group: c1
  Charge       = 0
  Multiplicity = 1
  Basis Set: 6-31G*
  Basis Set:
  @DF-RHF Final Energy:  -349.24401533345099
    Total Energy =                       -349.2440153334509887
    Molecular point group: c1
  Basis Set: 6-31G*
  Basis Set:
  Basis Set: 6-31G*
  Basis Set:
  @DF-RHF Final Energy:  -349.24425725760233
    Total Energy =                       -349.2442572576026691
  Basis Set: 6-31G*
  Basis Set:
  Basis Set: 6-31G*
  Basis Set:
  @DF-RHF Final Energy:  -349.24433025258162
    Total Energy =                       -349.2443302525817899
  Basis Set: 6-31G*
  Basis Set:
  Basis Set: 6-31G*
  Basis Set:
  @DF-RHF Final Energy:  -349.24433739033122
    Total Energy =                       -349.2443373903308270
  Basis Set: 6-31G*
  Basis Set:
  Basis Set: 6-31G*
  Basis Set:
  @DF-RHF Final Energy:  -349.24433910181142
    Total Energy =                       -349.2443391018117040
  Basis Set: 6-31G*
  Basis Set:
  Charge       = 0
  Multiplicity = 1
  Basis Set: 6-31G*
  Basis Set:

    Orbital Energies (a.u.)
    -----------------------

    Doubly Occupied:

       1A    -20.553605     2A    -11.267480     3A    -11.217176
       4A    -11.214896     5A    -11.213219     6A    -11.212226
       7A    -11.211002     8A    -11.208331     9A     -1.360126
      10A     -1.088378    11A     -1.047547    12A     -0.984797
      13A     -0.915512    14A     -0.851824    15A     -0.804506
      16A     -0.774162    17A     -0.679572    18A     -0.642708
      19A     -0.632252    20A     -0.615147    21A     -0.601992
      22A     -0.585556    23A     -0.563504    24A     -0.534975
      25A     -0.521539    26A     -0.509841    27A     -0.494123
      28A     -0.481716    29A     -0.466966    30A     -0.459193
      31A     -0.452674    32A     -0.444773    33A     -0.420535

  @DF-RHF Final Energy:  -349.24433926842539

   => Energetics <=

    Nuclear Repulsion Energy =            389.1967308108421548
    One-Electron Energy =               -1244.8184327029553060
    Two-Electron Energy =                 506.3773626236877590
    DFT Exchange-Correlation Energy =       0.0000000000000000
    Empirical Dispersion Energy =           0.0000000000000000
    PCM Polarization Energy =               0.0000000000000000
    EFP Energy =                            0.0000000000000000
    Total Energy =                       -349.2443392684253922
    Molecular point group: c1
  Basis Set: 6-31G*
  Basis Set:

  -Total Gradient:
     Atom            X                  Y                   Z
    ------   -----------------  -----------------  -----------------
       1        0.000000906984    -0.000001329840     0.000000976940
       2        0.000006370114    -0.000003420369    -0.000002589716
       3        0.000000124464     0.000009825100    -0.000000518690
       4       -0.000003307206    -0.000007422741     0.000015405520
       5        0.000000744631     0.000000403707     0.000001406390
       6        0.000000868473     0.000000451827    -0.000000507457
       7        0.001570741890    -0.004076929898    -0.001672513719
       8       -0.000004162113     0.000000532651    -0.000001544066
       9        0.000001680794    -0.000000778553     0.000000454932
      10       -0.001396992829     0.002638331213     0.002418477098
      11       -0.000996208007     0.002847082064     0.000843051616
      12        0.000003404726    -0.000003574552    -0.000002836367
      13        0.000821269836    -0.001380825747    -0.001587450037
      14       -0.000006403393    -0.000005399363    -0.000004535286
      15       -0.000004638005    -0.000008311892     0.000000203332
      16        0.000004158725    -0.000022071976    -0.000009071035
      17       -0.000000964853     0.000000954495    -0.000006439199
      18        0.000000954488    -0.000000985232     0.000000877599
      19       -0.000005417840     0.000006976582     0.000005367975
      20       -0.000002941437    -0.000000537295     0.000007756687
      21        0.000005371607     0.000000974955    -0.000006862366
      22        0.000001149494    -0.000000255310    -0.000000048642
      23       -0.000000339374     0.000001081616     0.000004454343
      24        0.000003628834     0.000005228558    -0.000003515850

  **** Optimization is complete! (in 6 steps) ****
    Final optimized geometry and variables:
    Molecular point group: c1

    Geometry (in Angstrom), charge = 0, multiplicity = 1:

    H           -3.146833523795     0.711970370200    -1.183367694605
    O           -3.206163837080    -0.232547876586    -1.142106794125
    C           -2.953369766819    -0.656059126841     0.173598176651
    C           -1.530581002877    -0.359393117267     0.634214735380
    H           -3.132041594726    -1.724319836917     0.177381059352
    H           -3.668025535752    -0.205944765691     0.860506297506
    C           -0.459255499746    -1.066539926570    -0.201746200882
    H           -1.369532153987     0.718568967029     0.610636358664
    H           -1.439246707949    -0.656239475541     1.677543657677
    C            0.975227827296    -0.684930507160     0.203984224336
    H           -0.625890649987    -0.815417399239    -1.244116710238
    H           -0.599293072412    -2.140295684663    -0.107886695651
    C            1.527625294049     0.513848000235    -0.574879276117
    H            1.010953693928    -0.495219167926     1.273300524235
    H            1.635222940790    -1.531624193575     0.027230711095
    C            2.962461281184     0.909032197265    -0.207301475385
    H            0.876497525414     1.376611248142    -0.439377985060
    H            1.494883395985     0.274250862395    -1.635189403132
    C            3.124201674227     1.478036508191     1.203616358043
    H            3.309529262428     1.650621545164    -0.922731347882
    H            3.614347031325     0.045821001486    -0.326086486714
    H            2.478310809839     2.339279425437     1.352953829437
    H            4.146853516147     1.800249509370     1.374377840509
    H            2.882425609623     0.746947217310     1.967790391884

  Mulliken Charges: (a.u.)
   Center  Symbol    Alpha    Beta     Spin     Total
       1     H     0.28336  0.28336  0.00000  0.43329
       2     O     4.36830  4.36830  0.00000 -0.73660
       3     C     2.99650  2.99650  0.00000  0.00699
       4     C     3.16970  3.16970  0.00000 -0.33940
       5     H     0.41645  0.41645  0.00000  0.16711
       6     H     0.42820  0.42820  0.00000  0.14359
       7     C     3.15596  3.15596  0.00000 -0.31192
       8     H     0.42773  0.42773  0.00000  0.14454
       9     H     0.42238  0.42238  0.00000  0.15524
      10     C     3.15671  3.15671  0.00000 -0.31341
      11     H     0.41007  0.41007  0.00000  0.17986
      12     H     0.42086  0.42086  0.00000  0.15829
      13     C     3.15320  3.15320  0.00000 -0.30640
      14     H     0.42181  0.42181  0.00000  0.15638
      15     H     0.42139  0.42139  0.00000  0.15723
      16     C     3.15266  3.15266  0.00000 -0.30533
      17     H     0.42666  0.42666  0.00000  0.14668
      18     H     0.42046  0.42046  0.00000  0.15908
      19     C     3.24072  3.24072  0.00000 -0.48143
      20     H     0.42120  0.42120  0.00000  0.15761
      21     H     0.42310  0.42310  0.00000  0.15380
      22     H     0.42311  0.42311  0.00000  0.15377
      23     H     0.41927  0.41927  0.00000  0.16146
      24     H     0.42022  0.42022  0.00000  0.15957

   Total alpha = 33.00000, Total beta = 33.00000, Total charge = -0.00000
