  ==> Input File <==

--------------------------------------------------------------------------
set {
	reference rhf
	basis 6-31G*
}

set_num_threads( 1 )
memory 2 gb

molecule MOL {
0 1

H	 -2.968841	 -1.347614	 0.175510
O	 -2.310168	 -0.871793	 -0.309793
C	 -2.026376	 0.340750	 0.341611
C	 -0.673256	 0.843270	 -0.132153
H	 -2.792215	 1.080697	 0.115987
H	 -2.013526	 0.200402	 1.421792
C	 0.486613	 -0.083066	 0.235839
H	 -0.715586	 0.970948	 -1.210718
H	 -0.508072	 1.829858	 0.297090
C	 1.840406	 0.433480	 -0.254303
H	 0.300215	 -1.068318	 -0.178947
H	 0.519509	 -0.203625	 1.318070
C	 3.000220	 -0.489290	 0.118523
H	 1.809207	 0.553576	 -1.335192
H	 2.021860	 1.424500	 0.157276
H	 2.864959	 -1.479103	 -0.307933
H	 3.946603	 -0.099227	 -0.243630
H	 3.080049	 -0.602997	 1.196117

	symmetry c1
}
set optking {
	frozen_dihedral = ("
		14 10 7 11,
		10 7 4 8,
		2 3 4 8
	")
}

ee = energy('scf')
oeprop('DIPOLE', 'QUADRUPOLE', 'MULLIKEN_CHARGES')
f=open( 'psi4out.xyz', 'w' )
f.write( "18  " )
f.write( str(ee) + "\n" )
f.write( MOL.save_string_xyz() )
f.close()
--------------------------------------------------------------------------

    Molecular point group: c1

    Geometry (in Angstrom), charge = 0, multiplicity = 1:

       Center              X                  Y                   Z               Mass
    ------------   -----------------  -----------------  -----------------  -----------------
           H         -2.970746909719    -1.346097608543     0.173517568981     1.007825032070
           O         -2.312073909719    -0.870276608543    -0.311785431019    15.994914619560
           C         -2.028281909719     0.342266391457     0.339618568981    12.000000000000
           C         -0.675161909719     0.844786391457    -0.134145431019    12.000000000000
           H         -2.794120909719     1.082213391457     0.113994568981     1.007825032070
           H         -2.015431909719     0.201918391457     1.419799568981     1.007825032070
           C          0.484707090281    -0.081549608543     0.233846568981    12.000000000000
           H         -0.717491909719     0.972464391457    -1.212710431019     1.007825032070
           H         -0.509977909719     1.831374391457     0.295097568981     1.007825032070
           C          1.838500090281     0.434996391457    -0.256295431019    12.000000000000
           H          0.298309090281    -1.066801608543    -0.180939431019     1.007825032070
           H          0.517603090281    -0.202108608543     1.316077568981     1.007825032070
           C          2.998314090281    -0.487773608543     0.116530568981    12.000000000000
           H          1.807301090281     0.555092391457    -1.337184431019     1.007825032070
           H          2.019954090281     1.426016391457     0.155283568981     1.007825032070
           H          2.863053090281    -1.477586608543    -0.309925431019     1.007825032070
           H          3.944697090281    -0.097710608543    -0.245622431019     1.007825032070
           H          3.078143090281    -0.601480608543     1.194124568981     1.007825032070

  Charge       = 0
  Multiplicity = 1
  Basis Set: 6-31G*
  Basis Set:

    Orbital Energies (a.u.)
    -----------------------

    Doubly Occupied:

       1A    -20.553132     2A    -11.268174     3A    -11.211707
       4A    -11.211075     5A    -11.206812     6A    -11.204953
       7A     -1.359972     8A     -1.074939     9A     -1.008851
      10A     -0.913556    11A     -0.818018    12A     -0.783803
      13A     -0.706063    14A     -0.637717    15A     -0.629112
      16A     -0.579506    17A     -0.569605    18A     -0.561605
      19A     -0.523506    20A     -0.497125    21A     -0.485657
      22A     -0.469016    23A     -0.458680    24A     -0.453795
      25A     -0.425755

  @DF-RHF Final Energy:  -271.17956005302204

   => Energetics <=

    Nuclear Repulsion Energy =            249.1280104522427905
    One-Electron Energy =                -861.3909427738309432
    Two-Electron Energy =                 341.0833722685662224
    DFT Exchange-Correlation Energy =       0.0000000000000000
    Empirical Dispersion Energy =           0.0000000000000000
    PCM Polarization Energy =               0.0000000000000000
    EFP Energy =                            0.0000000000000000
    Total Energy =                       -271.1795600530218735

  Mulliken Charges: (a.u.)
   Center  Symbol    Alpha    Beta     Spin     Total
       1     H     0.28028  0.28028  0.00000  0.43945
       2     O     4.36965  4.36965  0.00000 -0.73930
       3     C     2.99779  2.99779  0.00000  0.00442
       4     C     3.15994  3.15994  0.00000 -0.31988
       5     H     0.42752  0.42752  0.00000  0.14495
       6     H     0.43314  0.43314  0.00000  0.13371
       7     C     3.15308  3.15308  0.00000 -0.30616
       8     H     0.41473  0.41473  0.00000  0.17053
       9     H     0.42445  0.42445  0.00000  0.15110
      10     C     3.15170  3.15170  0.00000 -0.30339
      11     H     0.40866  0.40866  0.00000  0.18268
      12     H     0.42857  0.42857  0.00000  0.14285
      13     C     3.23892  3.23892  0.00000 -0.47784
      14     H     0.42227  0.42227  0.00000  0.15546
      15     H     0.42521  0.42521  0.00000  0.14957
      16     H     0.42101  0.42101  0.00000  0.15798
      17     H     0.42023  0.42023  0.00000  0.15953
      18     H     0.42283  0.42283  0.00000  0.15434

   Total alpha = 25.00000, Total beta = 25.00000, Total charge = -0.00000
