  ==> Input File <==

--------------------------------------------------------------------------
set {
	reference rhf
	basis 6-31G*
}

set_num_threads( 4 )
memory 2 gb

molecule MOL {
0 1

H	 4.426766	 -0.022299	 -1.270079
C	 3.641817	 -0.526078	 -0.715271
C	 2.348014	 0.286801	 -0.731519
H	 3.496406	 -1.504329	 -1.164835
H	 4.000478	 -0.678679	 0.298792
C	 1.217350	 -0.386724	 0.039429
H	 2.020464	 0.449683	 -1.753561
H	 2.535992	 1.271051	 -0.305718
N	 0.000003	 0.397874	 -0.023260
H	 1.011846	 -1.358388	 -0.401705
H	 1.538348	 -0.576343	 1.069179
C	 -1.217365	 -0.386708	 0.039277
H	 -0.000031	 1.072115	 0.718656
C	 -2.452633	 0.504241	 -0.042481
H	 -1.215291	 -1.074557	 -0.802042
H	 -1.269739	 -1.003477	 0.942735
C	 -3.758029	 -0.289423	 -0.010781
H	 -2.394220	 1.093569	 -0.952170
H	 -2.440793	 1.210787	 0.785871
H	 -3.816659	 -0.981993	 -0.845726
H	 -4.617837	 0.370165	 -0.069296
H	 -3.847478	 -0.867502	 0.904682

	symmetry c1
}
set optking {
	frozen_dihedral = ("
		10 6 9 12
	")
}

ee = optimize('scf')
oeprop('DIPOLE', 'QUADRUPOLE', 'MULLIKEN_CHARGES')
f=open( 'psi4out.xyz', 'w' )
f.write( "22  " )
f.write( str(ee) + "\n" )
f.write( MOL.save_string_xyz() )
f.close()
--------------------------------------------------------------------------

    Molecular point group: c1
  Charge       = 0
  Multiplicity = 1
  Basis Set: 6-31G*
  Basis Set:
  @DF-RHF Final Energy:  -290.38069791720994
    Total Energy =                       -290.3806979172101137
    Molecular point group: c1
  Basis Set: 6-31G*
  Basis Set:
  Basis Set: 6-31G*
  Basis Set:
  @DF-RHF Final Energy:  -290.38096211205311
    Total Energy =                       -290.3809621120529982
  Basis Set: 6-31G*
  Basis Set:
  Basis Set: 6-31G*
  Basis Set:
  @DF-RHF Final Energy:  -290.38102161206274
    Total Energy =                       -290.3810216120630230
  Basis Set: 6-31G*
  Basis Set:
  Basis Set: 6-31G*
  Basis Set:
  @DF-RHF Final Energy:  -290.38102426531964
    Total Energy =                       -290.3810242653198657
  Basis Set: 6-31G*
  Basis Set:
  Basis Set: 6-31G*
  Basis Set:
  @DF-RHF Final Energy:  -290.38102537449669
    Total Energy =                       -290.3810253744969714
  Basis Set: 6-31G*
  Basis Set:
  Charge       = 0
  Multiplicity = 1
  Basis Set: 6-31G*
  Basis Set:

    Orbital Energies (a.u.)
    -----------------------

    Doubly Occupied:

       1A    -15.531786     2A    -11.238731     3A    -11.238049
       4A    -11.213603     5A    -11.209848     6A    -11.208874
       7A    -11.207275     8A     -1.202627     9A     -1.057848
      10A     -1.024862    11A     -0.927838    12A     -0.869115
      13A     -0.808168    14A     -0.793771    15A     -0.669363
      16A     -0.628027    17A     -0.614506    18A     -0.604839
      19A     -0.576430    20A     -0.561422    21A     -0.533590
      22A     -0.518505    23A     -0.517545    24A     -0.485684
      25A     -0.483921    26A     -0.472772    27A     -0.464989
      28A     -0.451881    29A     -0.353255

  @DF-RHF Final Energy:  -290.38102550283236

   => Energetics <=

    Nuclear Repulsion Energy =            313.0916034022556005
    One-Electron Energy =               -1012.0070116902470545
    Two-Electron Energy =                 408.5343827851595506
    DFT Exchange-Correlation Energy =       0.0000000000000000
    Empirical Dispersion Energy =           0.0000000000000000
    PCM Polarization Energy =               0.0000000000000000
    EFP Energy =                            0.0000000000000000
    Total Energy =                       -290.3810255028319034
    Molecular point group: c1
  Basis Set: 6-31G*
  Basis Set:

  -Total Gradient:
     Atom            X                  Y                   Z
    ------   -----------------  -----------------  -----------------
       1        0.000001798837    -0.000002773188     0.000002836926
       2        0.000008194730     0.000008730732    -0.000003967915
       3       -0.000008751585    -0.000018630340    -0.000003213824
       4        0.000000251148    -0.000000623079    -0.000003799702
       5       -0.000001084501    -0.000000457563    -0.000000763361
       6        0.001060746088     0.001417646631    -0.004985343213
       7        0.000003203944     0.000001680779     0.000000141165
       8       -0.000000218846     0.000002591096     0.000001655506
       9       -0.000150832528     0.000025233933     0.004591639099
      10       -0.000874935965    -0.001212368645     0.003089852826
      11        0.000000202590    -0.000002043242     0.000012458975
      12       -0.000025297647    -0.000209894118    -0.002711366080
      13        0.000003057612     0.000003172267     0.000006222676
      14       -0.000008219143    -0.000003838200     0.000003185774
      15       -0.000009182923    -0.000007201478    -0.000000238261
      16       -0.000004762977     0.000002134018    -0.000001135842
      17       -0.000000182444     0.000000796397    -0.000001353056
      18        0.000001563918    -0.000003839621     0.000000252783
      19        0.000001199351    -0.000001249115     0.000002066699
      20        0.000000767164    -0.000000149899    -0.000000264012
      21        0.000002357172     0.000001037832    -0.000000290749
      22        0.000000126005     0.000000044802     0.000001423587

  **** Optimization is complete! (in 6 steps) ****
    Final optimized geometry and variables:
    Molecular point group: c1

    Geometry (in Angstrom), charge = 0, multiplicity = 1:

    H            4.482294921872     0.089498751187    -1.036721515439
    C            3.697932375695    -0.429444352559    -0.495038622385
    C            2.386350104734     0.353430848487    -0.539035883798
    H            3.584425260396    -1.413109416856    -0.942806126792
    H            4.041090917027    -0.570514867679     0.526304669875
    C            1.254856786556    -0.343195901196     0.209390618000
    H            2.074481920239     0.509348707278    -1.567014293337
    H            2.537125045019     1.342354329304    -0.111246355652
    N            0.025896548201     0.430157339016     0.165040344167
    H            1.060348892817    -1.318300949109    -0.227220443470
    H            1.570325282525    -0.547702083952     1.236700498518
    C           -1.201102237338    -0.336533080210     0.243547599293
    H            0.038378539932     1.142406228073     0.868034094564
    C           -2.421647290345     0.574965976771     0.167220066815
    H           -1.217164746297    -1.026251271819    -0.595415812789
    H           -1.261949346112    -0.948442588670     1.150048656589
    C           -3.739909905127    -0.196817878066     0.204984204324
    H           -2.357003727375     1.162904721683    -0.743089521267
    H           -2.394548432960     1.281292564315     0.995403868169
    H           -3.813507095349    -0.889075348410    -0.629005694144
    H           -4.588714388156     0.477106981705     0.149176984874
    H           -3.835348169918    -0.772320820592     1.121440381930

  Mulliken Charges: (a.u.)
   Center  Symbol    Alpha    Beta     Spin     Total
       1     H     0.41799  0.41799  0.00000  0.16401
       2     C     3.24516  3.24516  0.00000 -0.49031
       3     C     3.14555  3.14555  0.00000 -0.29109
       4     H     0.42208  0.42208  0.00000  0.15585
       5     H     0.42257  0.42257  0.00000  0.15485
       6     C     3.05177  3.05177  0.00000 -0.10353
       7     H     0.41600  0.41600  0.00000  0.16799
       8     H     0.42515  0.42515  0.00000  0.14969
       9     N     3.86203  3.86203  0.00000 -0.72405
      10     H     0.42221  0.42221  0.00000  0.15558
      11     H     0.43352  0.43352  0.00000  0.13296
      12     C     3.04436  3.04436  0.00000 -0.08872
      13     H     0.33344  0.33344  0.00000  0.33311
      14     C     3.15680  3.15680  0.00000 -0.31360
      15     H     0.42148  0.42148  0.00000  0.15704
      16     H     0.43688  0.43688  0.00000  0.12625
      17     C     3.24323  3.24323  0.00000 -0.48645
      18     H     0.41309  0.41309  0.00000  0.17383
      19     H     0.42669  0.42669  0.00000  0.14662
      20     H     0.42072  0.42072  0.00000  0.15856
      21     H     0.41771  0.41771  0.00000  0.16457
      22     H     0.42157  0.42157  0.00000  0.15687

   Total alpha = 29.00000, Total beta = 29.00000, Total charge =  0.00000
