  ==> Input File <==

--------------------------------------------------------------------------
set {
	reference rhf
	basis 6-31G*
}

set_num_threads( 4 )
memory 2 gb

molecule MOL {
0 1

H	 -2.420451	 0.282915	 2.186750
C	 -2.267793	 -0.494873	 1.441174
O	 -0.992736	 -0.427252	 0.888913
H	 -2.366030	 -1.460546	 1.917585
H	 -3.040150	 -0.398689	 0.679176
C	 -0.719715	 0.768384	 0.229244
C	 0.719720	 0.768376	 -0.229267
H	 -1.372099	 0.879348	 -0.637808
H	 -0.886831	 1.619727	 0.885972
O	 1.392611	 -0.295398	 0.366430
H	 0.750534	 0.687200	 -1.313918
H	 1.185043	 1.714359	 0.050526
C	 2.706965	 -0.449871	 -0.062409
H	 2.756559	 -0.644779	 -1.131878
H	 3.305899	 0.433456	 0.155466
H	 3.125548	 -1.294566	 0.467107

	symmetry c1
}
set optking {
	frozen_dihedral = ("
		3 6 7 11
	")
}

ee = optimize('scf')
oeprop('DIPOLE', 'QUADRUPOLE', 'MULLIKEN_CHARGES')
f=open( 'psi4out.xyz', 'w' )
f.write( "16  " )
f.write( str(ee) + "\n" )
f.write( MOL.save_string_xyz() )
f.close()
--------------------------------------------------------------------------

    Molecular point group: c1
  Charge       = 0
  Multiplicity = 1
  Basis Set: 6-31G*
  Basis Set:
  @DF-RHF Final Energy:  -306.96292919064479
    Total Energy =                       -306.9629291906449566
    Molecular point group: c1
  Basis Set: 6-31G*
  Basis Set:
  Basis Set: 6-31G*
  Basis Set:
  @DF-RHF Final Energy:  -306.96388475450465
    Total Energy =                       -306.9638847545044200
  Basis Set: 6-31G*
  Basis Set:
  Basis Set: 6-31G*
  Basis Set:
  @DF-RHF Final Energy:  -306.96501020856516
    Total Energy =                       -306.9650102085652179
  Basis Set: 6-31G*
  Basis Set:
  Basis Set: 6-31G*
  Basis Set:
  @DF-RHF Final Energy:  -306.96504807028998
    Total Energy =                       -306.9650480702901518
  Basis Set: 6-31G*
  Basis Set:
  Charge       = 0
  Multiplicity = 1
  Basis Set: 6-31G*
  Basis Set:

    Orbital Energies (a.u.)
    -----------------------

    Doubly Occupied:

       1A    -20.552483     2A    -20.551431     3A    -11.271850
       4A    -11.271283     5A    -11.262746     6A    -11.262303
       7A     -1.389644     8A     -1.368855     9A     -1.024217
      10A     -0.934030    11A     -0.897566    12A     -0.819512
      13A     -0.686594    14A     -0.673638    15A     -0.658139
      16A     -0.644422    17A     -0.618491    18A     -0.590664
      19A     -0.573150    20A     -0.516980    21A     -0.508085
      22A     -0.468526    23A     -0.467395    24A     -0.423322
      25A     -0.398397

  @DF-RHF Final Energy:  -306.96505015230491

   => Energetics <=

    Nuclear Repulsion Energy =            259.7432182637339793
    One-Electron Energy =                -933.7490922982738084
    Two-Electron Energy =                 367.0408238822349176
    DFT Exchange-Correlation Energy =       0.0000000000000000
    Empirical Dispersion Energy =           0.0000000000000000
    PCM Polarization Energy =               0.0000000000000000
    EFP Energy =                            0.0000000000000000
    Total Energy =                       -306.9650501523049115
    Molecular point group: c1
  Basis Set: 6-31G*
  Basis Set:

  -Total Gradient:
     Atom            X                  Y                   Z
    ------   -----------------  -----------------  -----------------
       1        0.000001045490     0.000003146908     0.000005729486
       2       -0.000027340429    -0.000010353892     0.000009575761
       3        0.001355188194     0.001666993898     0.003609327980
       4        0.000004670192    -0.000000486962    -0.000000094381
       5        0.000005995176    -0.000006145886    -0.000002155169
       6       -0.001775794539    -0.000917826139    -0.004910291278
       7        0.000335744236    -0.005983727377     0.001577992957
       8       -0.000010518322    -0.000038747065     0.000017323226
       9        0.000031720139     0.000031105789    -0.000031899999
      10        0.000040418636    -0.000076487517     0.000031002952
      11        0.000020648151     0.005358582115    -0.000299398902
      12        0.000011503631    -0.000015471555    -0.000008351614
      13       -0.000015176384    -0.000002582062     0.000000304179
      14        0.000008635291    -0.000005752618    -0.000004946556
      15        0.000002569565     0.000004408039     0.000005946017
      16        0.000010690973    -0.000006655676    -0.000000064657

  **** Optimization is complete! (in 5 steps) ****
    Final optimized geometry and variables:
    Molecular point group: c1

    Geometry (in Angstrom), charge = 0, multiplicity = 1:

    H           -2.655146037875     0.389375517871     1.703988688784
    C           -2.488623191570    -0.416102712899     0.990121210006
    O           -1.188798759837    -0.400462567123     0.497075064066
    H           -2.634250149591    -1.363084100888     1.491029083524
    H           -3.222783091071    -0.323577958346     0.190943118911
    C           -0.859695350318     0.774495981749    -0.165344952822
    C            0.588629797339     0.733377330265    -0.688276192877
    H           -1.539110019469     0.948306920427    -0.999127346096
    H           -0.974619809077     1.616361959617     0.516709968588
    O            1.309081505542    -0.302819517596    -0.115849476133
    H            0.592711016765     0.664988034408    -1.775935135345
    H            1.062912083717     1.688032788485    -0.456460448690
    C            2.632602204242    -0.360838465034    -0.538541936944
    H            2.702588627352    -0.510494449535    -1.614820849795
    H            3.175515028321     0.547786150643    -0.281947810195
    H            3.096405552987    -1.199181518872    -0.037662297630

  Mulliken Charges: (a.u.)
   Center  Symbol    Alpha    Beta     Spin     Total
       1     H     0.43106  0.43106  0.00000  0.13789
       2     C     3.08032  3.08032  0.00000 -0.16064
       3     O     4.29134  4.29134  0.00000 -0.58268
       4     H     0.41019  0.41019  0.00000  0.17961
       5     H     0.43169  0.43169  0.00000  0.13662
       6     C     2.99474  2.99474  0.00000  0.01052
       7     C     2.99549  2.99549  0.00000  0.00902
       8     H     0.43042  0.43042  0.00000  0.13916
       9     H     0.42999  0.42999  0.00000  0.14002
      10     O     4.29023  4.29023  0.00000 -0.58046
      11     H     0.43007  0.43007  0.00000  0.13987
      12     H     0.43183  0.43183  0.00000  0.13633
      13     C     3.08055  3.08055  0.00000 -0.16111
      14     H     0.43055  0.43055  0.00000  0.13890
      15     H     0.43147  0.43147  0.00000  0.13705
      16     H     0.41005  0.41005  0.00000  0.17991

   Total alpha = 25.00000, Total beta = 25.00000, Total charge = -0.00000
