                              Psi4 1.0.54 Driver

  ==> Input File <==

--------------------------------------------------------------------------
set {
	reference rhf
	basis cc-pvtz
}

set_num_threads( 4 )
memory 2 gb

molecule MOL {
0 1

H	 1.493119	 1.246846	 -2.300907
C	 0.765299	 1.070629	 -1.519558
C	 1.322304	 0.099773	 -0.484271
H	 0.521255	 2.027275	 -1.071630
H	 -0.132333	 0.678934	 -1.984501
C	 0.308557	 -0.162619	 0.622645
H	 2.226348	 0.502019	 -0.044231
H	 1.578900	 -0.841021	 -0.955443
N	 -1.069352	 -0.004081	 0.085342
H	 0.371632	 -1.172932	 0.991288
H	 0.400391	 0.548875	 1.426218
O	 -1.584901	 -0.965470	 -0.377818
O	 -1.548033	 1.079343	 0.130056

	symmetry c1
}
set optking {
	frozen_dihedral = ("
		7 3 6 9
	")
}

ee,wfn = optimize('scf', return_wfn=True)
oeprop( wfn, 'DIPOLE', 'QUADRUPOLE', 'MULLIKEN_CHARGES')
f=open( 'psi4out.xyz', 'w' )
f.write( "13  " )
f.write( str(ee) + "\n" )
f.write( MOL.save_string_xyz() )
f.close()
--------------------------------------------------------------------------

    Molecular point group: c1
  Charge       = 0
  Multiplicity = 1
  Basis Set: CC-PVTZ
  Basis Set:
  @DF-RHF Final Energy:  -321.85300966111646
    Total Energy =                       -321.8530096611164026
    Molecular point group: c1
  Basis Set: CC-PVTZ
  Basis Set:
  Basis Set: CC-PVTZ
  Basis Set:
  @DF-RHF Final Energy:  -321.84851703655056
    Total Energy =                       -321.8485170365505610
  Basis Set: CC-PVTZ
  Basis Set:
  Basis Set: CC-PVTZ
  Basis Set:
  @DF-RHF Final Energy:  -321.85443528289284
    Total Energy =                       -321.8544352828924957
  Basis Set: CC-PVTZ
  Basis Set:
  Basis Set: CC-PVTZ
  Basis Set:
  @DF-RHF Final Energy:  -321.85573717469794
    Total Energy =                       -321.8557371746977651
  Basis Set: CC-PVTZ
  Basis Set:
  @DF-RHF Final Energy:  -321.85666305145014
    Total Energy =                       -321.8566630514501412
  @DF-RHF Final Energy:  -321.85685521712344
    Total Energy =                       -321.8568552171234387
  Basis Set: CC-PVTZ
  Basis Set:
  @DF-RHF Final Energy:  -321.85694225846294
    Total Energy =                       -321.8569422584627091
  Basis Set: CC-PVTZ
  Basis Set:
  Basis Set: CC-PVTZ
  Basis Set:
  @DF-RHF Final Energy:  -321.85699034085360
    Total Energy =                       -321.8569903408535993
  Basis Set: CC-PVTZ
  Basis Set:
  Basis Set: CC-PVTZ
  Basis Set:
  @DF-RHF Final Energy:  -321.85702059648253
    Total Energy =                       -321.8570205964823572
  Basis Set: CC-PVTZ
  Basis Set:
  Charge       = 0
  Multiplicity = 1
  Basis Set: CC-PVTZ
  Basis Set:

    Orbital Energies (a.u.)
    -----------------------

    Doubly Occupied:

       1A    -20.593069     2A    -20.588786     3A    -15.836816
       4A    -11.297415     5A    -11.254590     6A    -11.227477
       7A     -1.636513     8A     -1.420657     9A     -1.130456
      10A     -1.021389    11A     -0.895514    12A     -0.822407
      13A     -0.755867    14A     -0.739772    15A     -0.729532
      16A     -0.665963    17A     -0.608428    18A     -0.590976
      19A     -0.534194    20A     -0.518481    21A     -0.512661
      22A     -0.483560    23A     -0.475038    24A     -0.454197

  @DF-RHF Final Energy:  -321.85702167092171

   => Energetics <=

    Nuclear Repulsion Energy =            254.9582220654042999
    One-Electron Energy =                -944.0429743446356952
    Two-Electron Energy =                 367.2277306083099120
    DFT Exchange-Correlation Energy =       0.0000000000000000
    Empirical Dispersion Energy =           0.0000000000000000
    PCM Polarization Energy =               0.0000000000000000
    EFP Energy =                            0.0000000000000000
    Total Energy =                       -321.8570216709215401
    Molecular point group: c1
  Basis Set: CC-PVTZ
  Basis Set:

  -Total Gradient:
     Atom            X                  Y                   Z
    ------   -----------------  -----------------  -----------------
       1       -0.000006860799     0.000012548215    -0.000011819158
       2        0.000036986136    -0.000017116275    -0.000008963647
       3        0.002869642023    -0.005072429846     0.000401601635
       4        0.000001805033    -0.000004577629     0.000005346423
       5       -0.000006772824    -0.000004006031     0.000011111558
       6       -0.000538306693    -0.004767277776    -0.001988986110
       7       -0.002433980115     0.005553606577     0.000135930113
       8        0.000003571721     0.000011293577    -0.000012591743
       9       -0.000003001345     0.004471582924     0.001546504540
      10       -0.000041677393     0.000018098516     0.000005306491
      11        0.000022529225     0.000011205017     0.000021154053
      12       -0.000045652239    -0.000050775461    -0.000037806153
      13        0.000141717271    -0.000162151812    -0.000066788000

  **** Optimization is complete! (in 10 steps) ****
    Final optimized geometry and variables:
    Molecular point group: c1

    Geometry (in Angstrom), charge = 0, multiplicity = 1:

    H            1.712733747669     1.359990397005    -2.142988174099
    C            1.005517875049     1.094098515299    -1.367812398501
    C            1.608840755588     0.004768853101    -0.480549082119
    H            0.779904179616     1.988219321246    -0.799537274958
    H            0.095888060180     0.762131249643    -1.850622659638
    C            0.752417757948    -0.396043333108     0.729846408195
    H            2.532908622469     0.397983648144    -0.074399332073
    H            1.836751052678    -0.869488567236    -1.073438702776
    N           -0.702674477120    -0.269690725864     0.444206106142
    H            0.910859657968    -1.424218318797     1.009595773561
    H            0.926935140298     0.253985629882     1.569469538067
    O           -1.186182955356    -1.095281730770    -0.257773390480
    O           -1.278758195408     0.648557902534     0.919868694741

  Mulliken Charges: (a.u.)
   Center  Symbol    Alpha    Beta     Spin     Total
       1     H     0.44586  0.44586  0.00000  0.10829
       2     C     3.15210  3.15210  0.00000 -0.30420
       3     C     3.09389  3.09389  0.00000 -0.18778
       4     H     0.44590  0.44590  0.00000  0.10821
       5     H     0.44286  0.44286  0.00000  0.11429
       6     C     3.04400  3.04400  0.00000 -0.08799
       7     H     0.44666  0.44666  0.00000  0.10668
       8     H     0.44139  0.44139  0.00000  0.11722
       9     N     3.27830  3.27830  0.00000  0.44341
      10     H     0.42970  0.42970  0.00000  0.14060
      11     H     0.43339  0.43339  0.00000  0.13321
      12     O     4.17472  4.17472  0.00000 -0.34944
      13     O     4.17125  4.17125  0.00000 -0.34250

   Total alpha = 24.00000, Total beta = 24.00000, Total charge = -0.00000

*** Psi4 exiting successfully. Buy a developer a beer!
