  ==> Input File <==

--------------------------------------------------------------------------
set {
	reference rhf
	basis 6-31G*
}

set_num_threads( 4 )
memory 2 gb

molecule MOL {
0 1

H	 3.067867	 -1.245074	 0.778873
O	 2.155860	 -1.496766	 0.817631
C	 1.356969	 -0.487092	 0.409314
C	 1.860425	 0.739939	 -0.003274
C	 -0.009113	 -0.709005	 0.411609
H	 2.923872	 0.910575	 -0.004300
C	 0.998384	 1.743311	 -0.412907
H	 -0.399306	 -1.656324	 0.730060
C	 -0.865228	 0.300799	 0.000000
H	 1.399730	 2.688687	 -0.730026
C	 -0.368268	 1.530250	 -0.413827
C	 -2.333960	 0.069074	 0.000000
H	 -1.039677	 2.308215	 -0.731608
O	 -2.847347	 -1.003763	 0.000000
H	 -2.943845	 0.977528	 0.000000

	symmetry c1
}
set optking {
	frozen_dihedral = ("
		11 9 12 14
	")
}

ee = optimize('scf')
oeprop('DIPOLE', 'QUADRUPOLE', 'MULLIKEN_CHARGES')
f=open( 'psi4out.xyz', 'w' )
f.write( "15  " )
f.write( str(ee) + "\n" )
f.write( MOL.save_string_xyz() )
f.close()
--------------------------------------------------------------------------

    Molecular point group: c1
  Charge       = 0
  Multiplicity = 1
  Basis Set: 6-31G*
  Basis Set:
  @DF-RHF Final Energy:  -418.28480274965352
    Total Energy =                       -418.2848027496539771
    Molecular point group: c1
  Basis Set: 6-31G*
  Basis Set:
  Basis Set: 6-31G*
  Basis Set:
  @DF-RHF Final Energy:  -418.28353619864424
    Total Energy =                       -418.2835361986445832
  Basis Set: 6-31G*
  Basis Set:
  Basis Set: 6-31G*
  Basis Set:
  @DF-RHF Final Energy:  -418.28494914223489
    Total Energy =                       -418.2849491422341544
  Basis Set: 6-31G*
  Basis Set:
  Basis Set: 6-31G*
  Basis Set:
  @DF-RHF Final Energy:  -418.28500933177907
    Total Energy =                       -418.2850093317789515
  Basis Set: 6-31G*
  Basis Set:
  Charge       = 0
  Multiplicity = 1
  Basis Set: 6-31G*
  Basis Set:

    Orbital Energies (a.u.)
    -----------------------

    Doubly Occupied:

       1A    -20.601734     2A    -20.565192     3A    -11.332754
       4A    -11.312838     5A    -11.253165     6A    -11.252279
       7A    -11.249282     8A    -11.245784     9A    -11.239515
      10A     -1.421471    11A     -1.405544    12A     -1.169442
      13A     -1.048586    14A     -1.026907    15A     -0.899972
      16A     -0.845520    17A     -0.813701    18A     -0.736037
      19A     -0.702023    20A     -0.685282    21A     -0.640437
      22A     -0.636443    23A     -0.611838    24A     -0.601355
      25A     -0.575449    26A     -0.548690    27A     -0.541903
      28A     -0.513386    29A     -0.486598    30A     -0.423643
      31A     -0.353423    32A     -0.325573

  @DF-RHF Final Energy:  -418.28500981338755

   => Energetics <=

    Nuclear Repulsion Energy =            403.1402110595932982
    One-Electron Energy =               -1368.7189101868950729
    Two-Electron Energy =                 547.2936893139137737
    DFT Exchange-Correlation Energy =       0.0000000000000000
    Empirical Dispersion Energy =           0.0000000000000000
    PCM Polarization Energy =               0.0000000000000000
    EFP Energy =                            0.0000000000000000
    Total Energy =                       -418.2850098133880010
    Molecular point group: c1
  Basis Set: 6-31G*
  Basis Set:

  -Total Gradient:
     Atom            X                  Y                   Z
    ------   -----------------  -----------------  -----------------
       1       -0.000001036569     0.000010566744     0.000026598250
       2       -0.000002972193     0.000000154867    -0.000009086019
       3        0.000006749478    -0.000025686088    -0.000069562431
       4       -0.000005026732     0.000033382324     0.000100956723
       5       -0.000001274670    -0.000010781131    -0.000025049845
       6       -0.000000089941    -0.000002546992    -0.000011596337
       7        0.000001629368    -0.000032801774    -0.000077943689
       8       -0.000003345745     0.000009849409     0.000017212914
       9       -0.000312841680     0.001465728014     0.002322851543
      10        0.000000514377     0.000005488597     0.000013506789
      11        0.000226823320    -0.001031162509    -0.002691060973
      12       -0.000023469458    -0.000346040787     0.003959899579
      13       -0.000000281970     0.000000912583     0.000007917520
      14        0.000106243291    -0.000081854468    -0.003573699361
      15        0.000008379126     0.000004791212     0.000009055334

  **** Optimization is complete! (in 5 steps) ****
    Final optimized geometry and variables:
    Molecular point group: c1

    Geometry (in Angstrom), charge = 0, multiplicity = 1:

    H            3.070589069334    -1.270523375970     0.651259761290
    O            2.157799866595    -1.516719170477     0.704438677377
    C            1.359109940749    -0.505553132767     0.299623811528
    C            1.862896454496     0.718294195979    -0.121185575551
    C           -0.007663991577    -0.724787059270     0.310149002877
    H            2.926863612681     0.885256131212    -0.133392062139
    C            0.999862937466     1.722644076711    -0.526598958647
    H           -0.395841303981    -1.676142425787     0.619158696745
    C           -0.864893329597     0.291873338984    -0.080648682203
    H            1.401310928197     2.663600919687    -0.856339723341
    C           -0.367817326977     1.517883392116    -0.504732948526
    C           -2.332290051020     0.049108637522    -0.113440002237
    H           -1.039678436342     2.299219454274    -0.813256330431
    O           -2.834754759873    -1.028774387454    -0.106543415153
    H           -2.949446811702     0.949843838723    -0.183113535781

  Mulliken Charges: (a.u.)
   Center  Symbol    Alpha    Beta     Spin     Total
       1     H     0.27060  0.27060  0.00000  0.45880
       2     O     4.37596  4.37596  0.00000 -0.75191
       3     C     2.79470  2.79470  0.00000  0.41060
       4     C     3.13504  3.13504  0.00000 -0.27008
       5     C     3.11369  3.11369  0.00000 -0.22738
       6     H     0.39913  0.39913  0.00000  0.20175
       7     C     3.09428  3.09428  0.00000 -0.18856
       8     H     0.37164  0.37164  0.00000  0.25672
       9     C     3.04256  3.04256  0.00000 -0.08511
      10     H     0.39309  0.39309  0.00000  0.21383
      11     C     3.11588  3.11588  0.00000 -0.23177
      12     C     2.83593  2.83593  0.00000  0.32813
      13     H     0.39355  0.39355  0.00000  0.21290
      14     O     4.24161  4.24161  0.00000 -0.48321
      15     H     0.42235  0.42235  0.00000  0.15531

   Total alpha = 32.00000, Total beta = 32.00000, Total charge = -0.00000
