  ==> Input File <==

--------------------------------------------------------------------------
set {
	reference rhf
	basis 6-31G*
}

set_num_threads( 4 )
memory 2 gb

molecule MOL {
0 1

H	 3.089270	 -1.380733	 0.000000
O	 2.178328	 -1.639175	 0.000000
C	 1.368216	 -0.558384	 0.000000
C	 1.860335	 0.740509	 -0.000000
C	 0.002197	 -0.780696	 0.000000
H	 2.923753	 0.911324	 -0.000000
C	 0.987037	 1.815228	 -0.000000
H	 -0.379245	 -1.783481	 0.000000
C	 -0.865228	 0.300799	 -0.000000
H	 1.379669	 2.815837	 -0.000000
C	 -0.379640	 1.602327	 -0.000000
C	 -2.333960	 0.069074	 0.000000
H	 -1.059782	 2.435641	 -0.000000
O	 -2.847347	 -1.003763	 0.000000
H	 -2.943845	 0.977528	 -0.000000

	symmetry c1
}
set optking {
	frozen_dihedral = ("
		4 3 2 1
	")
}

ee = optimize('scf')
oeprop('DIPOLE', 'QUADRUPOLE', 'MULLIKEN_CHARGES')
f=open( 'psi4out.xyz', 'w' )
f.write( "15  " )
f.write( str(ee) + "\n" )
f.write( MOL.save_string_xyz() )
f.close()
--------------------------------------------------------------------------

    Molecular point group: c1
  Charge       = 0
  Multiplicity = 1
  Basis Set: 6-31G*
  Basis Set:

    Orbital Energies (a.u.)
    -----------------------

    Doubly Occupied:

       1A    -20.601718     2A    -20.564399     3A    -11.332409
       4A    -11.312857     5A    -11.253281     6A    -11.251788
       7A    -11.250013     8A    -11.246210     9A    -11.239502
      10A     -1.421466    11A     -1.404997    12A     -1.169618
      13A     -1.048727    14A     -1.027159    15A     -0.900104
      16A     -0.845846    17A     -0.813381    18A     -0.735902
      19A     -0.702209    20A     -0.685729    21A     -0.639582
      22A     -0.635655    23A     -0.611141    24A     -0.601672
      25A     -0.574397    26A     -0.550481    27A     -0.543009
      28A     -0.513183    29A     -0.486282    30A     -0.423501
      31A     -0.353563    32A     -0.325829

  @DF-RHF Final Energy:  -418.28618520725382

   => Energetics <=

    Nuclear Repulsion Energy =            403.1677503402635807
    One-Electron Energy =               -1368.7766528881434169
    Two-Electron Energy =                 547.3227173406260135
    DFT Exchange-Correlation Energy =       0.0000000000000000
    Empirical Dispersion Energy =           0.0000000000000000
    PCM Polarization Energy =               0.0000000000000000
    EFP Energy =                            0.0000000000000000
    Total Energy =                       -418.2861852072537658
    Molecular point group: c1
  Basis Set: 6-31G*
  Basis Set:

  -Total Gradient:
     Atom            X                  Y                   Z
    ------   -----------------  -----------------  -----------------
       1       -0.000001916672     0.000016504941    -0.000000000000
       2       -0.000036493078     0.000016552627     0.000000000000
       3        0.000149320067     0.000028726917    -0.000000000000
       4       -0.000005559634    -0.000075194135    -0.000000000000
       5       -0.000130003335     0.000047689941     0.000000000000
       6       -0.000024819992    -0.000002313943     0.000000000000
       7       -0.000011294524    -0.000052258430    -0.000000000000
       8        0.000015274927    -0.000018615151    -0.000000000000
       9        0.000081536828    -0.000025879247    -0.000000000000
      10        0.000009297587     0.000044070035     0.000000000000
      11       -0.000028645964     0.000026325397     0.000000000000
      12       -0.000156526389    -0.000160826799    -0.000000000000
      13       -0.000004696036    -0.000002239486     0.000000000000
      14        0.000099767845     0.000099523629     0.000000000000
      15        0.000044758376     0.000057933712     0.000000000000

  **** Optimization is complete! (in 1 steps) ****
    Final optimized geometry and variables:
    Molecular point group: c1

    Geometry (in Angstrom), charge = 0, multiplicity = 1:

    H            3.089270375672    -1.380732554072     0.000000000000
    O            2.178328375672    -1.639174554072     0.000000000000
    C            1.368216375672    -0.558383554072     0.000000000000
    C            1.860335375672     0.740509445928     0.000000000000
    C            0.002197375672    -0.780695554072     0.000000000000
    H            2.923753375672     0.911324445928     0.000000000000
    C            0.987037375672     1.815228445928     0.000000000000
    H           -0.379244624328    -1.783480554072     0.000000000000
    C           -0.865227624328     0.300799445928     0.000000000000
    H            1.379669375672     2.815837445928     0.000000000000
    C           -0.379639624328     1.602327445928     0.000000000000
    C           -2.333959624328     0.069074445928     0.000000000000
    H           -1.059781624328     2.435641445928     0.000000000000
    O           -2.847346624328    -1.003762554072     0.000000000000
    H           -2.943844624328     0.977528445928     0.000000000000

  Mulliken Charges: (a.u.)
   Center  Symbol    Alpha    Beta     Spin     Total
       1     H     0.27064  0.27064  0.00000  0.45871
       2     O     4.37596  4.37596  0.00000 -0.75192
       3     C     2.79456  2.79456  0.00000  0.41088
       4     C     3.13441  3.13441  0.00000 -0.26883
       5     C     3.11357  3.11357  0.00000 -0.22714
       6     H     0.39897  0.39897  0.00000  0.20206
       7     C     3.09497  3.09497  0.00000 -0.18994
       8     H     0.37024  0.37024  0.00000  0.25951
       9     C     3.04579  3.04579  0.00000 -0.09159
      10     H     0.39300  0.39300  0.00000  0.21401
      11     C     3.11536  3.11536  0.00000 -0.23073
      12     C     2.83263  2.83263  0.00000  0.33475
      13     H     0.39326  0.39326  0.00000  0.21347
      14     O     4.24482  4.24482  0.00000 -0.48964
      15     H     0.42181  0.42181  0.00000  0.15639

   Total alpha = 32.00000, Total beta = 32.00000, Total charge =  0.00000
