  ==> Input File <==

--------------------------------------------------------------------------
set {
	reference rhf
	basis 6-31G*
}

set_num_threads( 1 )
memory 2 gb

molecule MOL {
0 1

H	 -2.798360	 -0.862255	 -0.071053
N	 -1.863561	 -0.715187	 0.256814
C	 -1.344686	 0.554728	 -0.219830
H	 -1.300452	 -1.461917	 -0.101532
C	 0.081427	 0.741154	 0.254071
H	 -1.362155	 0.656231	 -1.305829
H	 -1.952773	 1.354456	 0.191809
O	 0.874168	 -0.245412	 -0.342030
H	 0.444037	 1.730782	 -0.023037
H	 0.121165	 0.653424	 1.337565
C	 1.155519	 -1.331476	 0.481910
H	 1.769613	 -2.020524	 -0.081825
H	 1.699716	 -1.024371	 1.373267
H	 0.245825	 -1.841691	 0.791664

	symmetry c1
}
set optking {
	frozen_dihedral = ("
		8 5 3 6,
		6 3 2 4,
		5 8 11 13
	")
}

ee = energy('scf')
oeprop('DIPOLE', 'QUADRUPOLE', 'MULLIKEN_CHARGES')
f=open( 'psi4out.xyz', 'w' )
f.write( "14  " )
f.write( str(ee) + "\n" )
f.write( MOL.save_string_xyz() )
f.close()
--------------------------------------------------------------------------

    Molecular point group: c1

    Geometry (in Angstrom), charge = 0, multiplicity = 1:

       Center              X                  Y                   Z               Mass
    ------------   -----------------  -----------------  -----------------  -----------------
           H         -2.577706305068    -0.633061564146    -0.156932057965     1.007825032070
           N         -1.642907305068    -0.485993564146     0.170934942035    14.003074004780
           C         -1.124032305068     0.783921435854    -0.305709057965    12.000000000000
           H         -1.079798305068    -1.232723564146    -0.187411057965     1.007825032070
           C          0.302080694932     0.970347435854     0.168191942035    12.000000000000
           H         -1.141501305068     0.885424435854    -1.391708057965     1.007825032070
           H         -1.732119305068     1.583649435854     0.105929942035     1.007825032070
           O          1.094821694932    -0.016218564146    -0.427909057965    15.994914619560
           H          0.664690694932     1.959975435854    -0.108916057965     1.007825032070
           H          0.341818694932     0.882617435854     1.251685942035     1.007825032070
           C          1.376172694932    -1.102282564146     0.396030942035    12.000000000000
           H          1.990266694932    -1.791330564146    -0.167704057965     1.007825032070
           H          1.920369694932    -0.795177564146     1.287387942035     1.007825032070
           H          0.466478694932    -1.612497564146     0.705784942035     1.007825032070

  Charge       = 0
  Multiplicity = 1
  Basis Set: 6-31G*
  Basis Set:

    Orbital Energies (a.u.)
    -----------------------

    Doubly Occupied:

       1A    -20.554816     2A    -15.535817     3A    -11.265672
       4A    -11.263807     5A    -11.240159     6A     -1.381497
       7A     -1.179766     8A     -1.001417     9A     -0.907417
      10A     -0.817078    11A     -0.698569    12A     -0.670930
      13A     -0.643554    14A     -0.608039    15A     -0.598853
      16A     -0.552016    17A     -0.531252    18A     -0.506510
      19A     -0.470227    20A     -0.413532    21A     -0.382791

  @DF-RHF Final Energy:  -248.11590347336048

   => Energetics <=

    Nuclear Repulsion Energy =            199.4405300347773107
    One-Electron Energy =                -732.6653956640934666
    Two-Electron Energy =                 285.1089621559559646
    DFT Exchange-Correlation Energy =       0.0000000000000000
    Empirical Dispersion Energy =           0.0000000000000000
    PCM Polarization Energy =               0.0000000000000000
    EFP Energy =                            0.0000000000000000
    Total Energy =                       -248.1159034733601629

  Mulliken Charges: (a.u.)
   Center  Symbol    Alpha    Beta     Spin     Total
       1     H     0.32998  0.32998  0.00000  0.34004
       2     N     3.92933  3.92933  0.00000 -0.85867
       3     C     3.06439  3.06439  0.00000 -0.12877
       4     H     0.32619  0.32619  0.00000  0.34761
       5     C     3.00091  3.00091  0.00000 -0.00182
       6     H     0.42588  0.42588  0.00000  0.14824
       7     H     0.42330  0.42330  0.00000  0.15340
       8     O     4.30850  4.30850  0.00000 -0.61700
       9     H     0.41737  0.41737  0.00000  0.16526
      10     H     0.42147  0.42147  0.00000  0.15706
      11     C     3.08671  3.08671  0.00000 -0.17343
      12     H     0.41402  0.41402  0.00000  0.17197
      13     H     0.42574  0.42574  0.00000  0.14852
      14     H     0.42620  0.42620  0.00000  0.14760

   Total alpha = 21.00000, Total beta = 21.00000, Total charge =  0.00000
