  ==> Input File <==

--------------------------------------------------------------------------
set {
	reference rhf
	basis 6-31G*
}

set_num_threads( 4 )
memory 2 gb

molecule MOL {
0 1

H	 1.447540	 -2.009041	 -0.896327
C	 0.595268	 -2.484845	 -0.396281
C	 -0.700401	 -1.718761	 -0.469045
O	 0.732310	 -3.530759	 0.150904
C	 -0.558097	 -0.297372	 0.091132
H	 -1.457692	 -2.280331	 0.065399
H	 -0.996399	 -1.665745	 -1.516139
C	 -1.850991	 0.512573	 -0.019058
H	 -0.253851	 -0.351813	 1.133842
H	 0.238815	 0.223972	 -0.436115
C	 -3.096943	 -0.368295	 -0.099594
H	 -1.800724	 1.150330	 -0.898172
H	 -1.931651	 1.177355	 0.838044
H	 -3.060452	 -1.020287	 -0.967456
H	 -3.996858	 0.233488	 -0.175704
H	 -3.191959	 -0.995686	 0.782074

	symmetry c1
}
set optking {
	frozen_dihedral = ("
		9 5 8 12
	")
}

ee = optimize('scf')
oeprop('DIPOLE', 'QUADRUPOLE', 'MULLIKEN_CHARGES')
f=open( 'psi4out.xyz', 'w' )
f.write( "16  " )
f.write( str(ee) + "\n" )
f.write( MOL.save_string_xyz() )
f.close()
--------------------------------------------------------------------------

    Molecular point group: c1
  Charge       = 0
  Multiplicity = 1
  Basis Set: 6-31G*
  Basis Set:
  @DF-RHF Final Energy:  -270.01011926912179
    Total Energy =                       -270.0101192691217875
    Molecular point group: c1
  Basis Set: 6-31G*
  Basis Set:
  Basis Set: 6-31G*
  Basis Set:
  @DF-RHF Final Energy:  -270.01126862898593
    Total Energy =                       -270.0112686289858743
  Basis Set: 6-31G*
  Basis Set:
  Basis Set: 6-31G*
  Basis Set:
  @DF-RHF Final Energy:  -270.01333327765877
    Total Energy =                       -270.0133332776588873
  Basis Set: 6-31G*
  Basis Set:
  Basis Set: 6-31G*
  Basis Set:
  @DF-RHF Final Energy:  -270.01329760976409
    Total Energy =                       -270.0132976097640949
  Basis Set: 6-31G*
  Basis Set:
  @DF-RHF Final Energy:  -270.01347711739572
    Total Energy =                       -270.0134771173957233
  Basis Set: 6-31G*
  Basis Set:
  @DF-RHF Final Energy:  -270.01358534934195
    Total Energy =                       -270.0135853493421791
  Basis Set: 6-31G*
  Basis Set:
  Basis Set: 6-31G*
  Basis Set:
  @DF-RHF Final Energy:  -270.01358912604599
    Total Energy =                       -270.0135891260457583
  Basis Set: 6-31G*
  Basis Set:
  Basis Set: 6-31G*
  Basis Set:
  @DF-RHF Final Energy:  -270.01359555985289
    Total Energy =                       -270.0135955598527744
  Basis Set: 6-31G*
  Basis Set:
  Charge       = 0
  Multiplicity = 1
  Basis Set: 6-31G*
  Basis Set:

    Orbital Energies (a.u.)
    -----------------------

    Doubly Occupied:

       1A    -20.562474     2A    -11.326460     3A    -11.236849
       4A    -11.235081     5A    -11.229531     6A    -11.218634
       7A     -1.402300     8A     -1.094048     9A     -1.014882
      10A     -0.915701    11A     -0.811124    12A     -0.786325
      13A     -0.678543    14A     -0.643542    15A     -0.634472
      16A     -0.595363    17A     -0.578114    18A     -0.559946
      19A     -0.537358    20A     -0.510191    21A     -0.486611
      22A     -0.478039    23A     -0.466311    24A     -0.409870

  @DF-RHF Final Energy:  -270.01359633246943

   => Energetics <=

    Nuclear Repulsion Energy =            232.1454015597101090
    One-Electron Energy =                -825.4944540780079478
    Two-Electron Energy =                 323.3354561858283773
    DFT Exchange-Correlation Energy =       0.0000000000000000
    Empirical Dispersion Energy =           0.0000000000000000
    PCM Polarization Energy =               0.0000000000000000
    EFP Energy =                            0.0000000000000000
    Total Energy =                       -270.0135963324694899
    Molecular point group: c1
  Basis Set: 6-31G*
  Basis Set:

  -Total Gradient:
     Atom            X                  Y                   Z
    ------   -----------------  -----------------  -----------------
       1       -0.000001081290     0.000006061425     0.000011806963
       2       -0.000003046769    -0.000015223930    -0.000019040374
       3        0.000014387665     0.000034983688     0.000021866732
       4       -0.000002235877    -0.000006820446    -0.000003834365
       5       -0.003693322918    -0.005220603517     0.001621564910
       6        0.000006085054    -0.000006080011    -0.000004282464
       7       -0.000004501171    -0.000018454532    -0.000010072529
       8       -0.002305817727    -0.004299650870    -0.004348269324
       9        0.003458518929     0.005068832992    -0.000681069096
      10       -0.000002154496    -0.000004435904     0.000009437931
      11       -0.000002228851    -0.000005428984     0.000018775339
      12        0.002537356456     0.004479978164     0.003390997626
      13        0.000000899536    -0.000007408905    -0.000006463682
      14        0.000008648796    -0.000007555105     0.000000084035
      15        0.000003900179     0.000000324571    -0.000005268811
      16       -0.000015407517     0.000001481366     0.000003767107

  **** Optimization is complete! (in 9 steps) ****
    Final optimized geometry and variables:
    Molecular point group: c1

    Geometry (in Angstrom), charge = 0, multiplicity = 1:

    H            2.321373418346    -0.595110961246    -0.747312472918
    C            1.490297293440    -1.132621520636    -0.275194972502
    C            0.149202893536    -0.450862512278    -0.366695986515
    O            1.682069375470    -2.175382163589     0.261380245232
    C            0.201433904962     0.959745132265     0.233544024412
    H           -0.580237532324    -1.079006282415     0.127675337684
    H           -0.116897434292    -0.387727758286    -1.421255267237
    C           -1.076342289330     1.810621606549     0.066496867539
    H            0.476500574106     0.913130619195     1.283770779379
    H            1.020933202471     1.500632817726    -0.236274971763
    C           -2.401640293006     1.050089155098     0.056794885093
    H           -0.984170662388     2.430933464135    -0.820962496267
    H           -1.099987305245     2.521547853000     0.888544693951
    H           -2.484765489583     0.382114165484    -0.793892410055
    H           -3.232741261476     1.746107585869     0.007049778151
    H           -2.523613223909     0.457031349480     0.958466075428

  Mulliken Charges: (a.u.)
   Center  Symbol    Alpha    Beta     Spin     Total
       1     H     0.43211  0.43211  0.00000  0.13577
       2     C     2.82978  2.82978  0.00000  0.34044
       3     C     3.21000  3.21000  0.00000 -0.42000
       4     O     4.23689  4.23689  0.00000 -0.47377
       5     C     3.16853  3.16853  0.00000 -0.33706
       6     H     0.39705  0.39705  0.00000  0.20590
       7     H     0.40990  0.40990  0.00000  0.18020
       8     C     3.15372  3.15372  0.00000 -0.30745
       9     H     0.41121  0.41121  0.00000  0.17757
      10     H     0.41802  0.41802  0.00000  0.16397
      11     C     3.24392  3.24392  0.00000 -0.48785
      12     H     0.41885  0.41885  0.00000  0.16231
      13     H     0.41693  0.41693  0.00000  0.16614
      14     H     0.41905  0.41905  0.00000  0.16190
      15     H     0.41588  0.41588  0.00000  0.16823
      16     H     0.41816  0.41816  0.00000  0.16369

   Total alpha = 24.00000, Total beta = 24.00000, Total charge =  0.00000
