  ==> Input File <==

--------------------------------------------------------------------------
set {
	reference rhf
	basis 6-31G*
}

set_num_threads( 1 )
memory 2 gb

molecule MOL {
0 1

H	 -2.670120	 -0.790423	 1.449016
C	 -2.665749	 -0.968072	 0.375441
O	 -1.387698	 -0.833918	 -0.157407
H	 -2.992932	 -1.981273	 0.186979
H	 -3.368758	 -0.279197	 -0.091095
C	 -0.832474	 0.432873	 0.004502
C	 0.587304	 0.425549	 -0.511619
H	 -1.411390	 1.173028	 -0.549324
H	 -0.831349	 0.723894	 1.052982
O	 1.392611	 -0.295398	 0.366430
H	 0.605261	 -0.017128	 -1.505461
H	 0.943829	 1.453017	 -0.594634
C	 2.706965	 -0.449871	 -0.062409
H	 2.756559	 -0.644779	 -1.131878
H	 3.305899	 0.433456	 0.155466
H	 3.125548	 -1.294566	 0.467107

	symmetry c1
}
set optking {
	frozen_dihedral = ("
		3 6 7 11,
		2 3 6 7
	")
}

ee = energy('scf')
oeprop('DIPOLE', 'QUADRUPOLE', 'MULLIKEN_CHARGES')
f=open( 'psi4out.xyz', 'w' )
f.write( "16  " )
f.write( str(ee) + "\n" )
f.write( MOL.save_string_xyz() )
f.close()
--------------------------------------------------------------------------

    Molecular point group: c1

    Geometry (in Angstrom), charge = 0, multiplicity = 1:

       Center              X                  Y                   Z               Mass
    ------------   -----------------  -----------------  -----------------  -----------------
           H         -2.637805293329    -0.501629081689     1.444030277710     1.007825032070
           C         -2.633434293329    -0.679278081689     0.370455277710    12.000000000000
           O         -1.355383293329    -0.545124081689    -0.162392722290    15.994914619560
           H         -2.960617293329    -1.692479081689     0.181993277710     1.007825032070
           H         -3.336443293329     0.009596918311    -0.096080722290     1.007825032070
           C         -0.800159293329     0.721666918311    -0.000483722290    12.000000000000
           C          0.619618706671     0.714342918311    -0.516604722290    12.000000000000
           H         -1.379075293329     1.461821918311    -0.554309722290     1.007825032070
           H         -0.799034293329     1.012687918311     1.047996277710     1.007825032070
           O          1.424925706671    -0.006604081689     0.361444277710    15.994914619560
           H          0.637575706671     0.271665918311    -1.510446722290     1.007825032070
           H          0.976143706671     1.741810918311    -0.599619722290     1.007825032070
           C          2.739279706671    -0.161077081689    -0.067394722290    12.000000000000
           H          2.788873706671    -0.355985081689    -1.136863722290     1.007825032070
           H          3.338213706671     0.722249918311     0.150480277710     1.007825032070
           H          3.157862706671    -1.005772081689     0.462121277710     1.007825032070

  Charge       = 0
  Multiplicity = 1
  Basis Set: 6-31G*
  Basis Set:

    Orbital Energies (a.u.)
    -----------------------

    Doubly Occupied:

       1A    -20.553591     2A    -20.552971     3A    -11.269099
       4A    -11.268391     5A    -11.263542     6A    -11.263193
       7A     -1.388202     8A     -1.370582     9A     -1.030747
      10A     -0.935930    11A     -0.891969    12A     -0.824367
      13A     -0.683806    14A     -0.680127    15A     -0.657261
      16A     -0.636053    17A     -0.629042    18A     -0.596998
      19A     -0.551830    20A     -0.535088    21A     -0.508418
      22A     -0.477717    23A     -0.463042    24A     -0.419404
      25A     -0.409694

  @DF-RHF Final Energy:  -306.97659313052765

   => Energetics <=

    Nuclear Repulsion Energy =            258.8479259350170310
    One-Electron Energy =                -931.9268176739229830
    Two-Electron Energy =                 366.1022986083782484
    DFT Exchange-Correlation Energy =       0.0000000000000000
    Empirical Dispersion Energy =           0.0000000000000000
    PCM Polarization Energy =               0.0000000000000000
    EFP Energy =                            0.0000000000000000
    Total Energy =                       -306.9765931305276467

  Mulliken Charges: (a.u.)
   Center  Symbol    Alpha    Beta     Spin     Total
       1     H     0.42806  0.42806  0.00000  0.14389
       2     C     3.07950  3.07950  0.00000 -0.15900
       3     O     4.30092  4.30092  0.00000 -0.60184
       4     H     0.41131  0.41131  0.00000  0.17738
       5     H     0.43188  0.43188  0.00000  0.13623
       6     C     2.99348  2.99348  0.00000  0.01303
       7     C     2.99389  2.99389  0.00000  0.01221
       8     H     0.43229  0.43229  0.00000  0.13542
       9     H     0.42270  0.42270  0.00000  0.15460
      10     O     4.30137  4.30137  0.00000 -0.60274
      11     H     0.42202  0.42202  0.00000  0.15595
      12     H     0.43259  0.43259  0.00000  0.13483
      13     C     3.07847  3.07847  0.00000 -0.15693
      14     H     0.43021  0.43021  0.00000  0.13958
      15     H     0.42935  0.42935  0.00000  0.14130
      16     H     0.41196  0.41196  0.00000  0.17608

   Total alpha = 25.00000, Total beta = 25.00000, Total charge =  0.00000
