                              Psi4 1.0.54 Driver

  ==> Input File <==

--------------------------------------------------------------------------
set {
	reference rhf
	basis cc-pvtz
}

set_num_threads( 4 )
memory 2 gb

molecule MOL {
0 1

O	 3.219313	 0.959291	 -0.614106
C	 2.698710	 0.058177	 -0.050237
C	 1.246364	 -0.005813	 0.348416
O	 3.344101	 -1.038700	 0.312317
C	 0.453207	 1.232821	 -0.049003
H	 0.839270	 -0.907818	 -0.092281
H	 1.216683	 -0.160521	 1.422434
C	 -0.998367	 1.217982	 0.432195
H	 0.481498	 1.345443	 -1.127236
H	 0.951413	 2.105557	 0.354893
C	 -1.882951	 0.151251	 -0.211235
H	 -1.429490	 2.193659	 0.228843
H	 -1.019755	 1.099323	 1.513279
C	 -3.214199	 0.703680	 -0.713617
H	 -1.346934	 -0.302574	 -1.041657
H	 -2.080831	 -0.647837	 0.497170
C	 -4.108816	 -0.354416	 -1.353044
H	 -3.025045	 1.495244	 -1.434718
H	 -3.745492	 1.168213	 0.113911
C	 -5.435980	 0.205439	 -1.854017
H	 -3.579364	 -0.819337	 -2.180238
H	 -4.301127	 -1.144954	 -0.632680
H	 -6.046272	 -0.570698	 -2.301387
H	 -5.278474	 0.974713	 -2.602695
H	 -6.005412	 0.647390	 -1.043071
C	 4.720529	 -1.114346	 0.001449
H	 4.874321	 -1.055557	 -1.065852
H	 5.057824	 -2.067950	 0.373977
H	 5.264321	 -0.313596	 0.480350

	symmetry c1
}
set optking {
	frozen_dihedral = ("
		15 11 8 5
	")
}

ee,wfn = optimize('scf', return_wfn=True)
oeprop( wfn, 'DIPOLE', 'QUADRUPOLE', 'MULLIKEN_CHARGES')
f=open( 'psi4out.xyz', 'w' )
f.write( "29  " )
f.write( str(ee) + "\n" )
f.write( MOL.save_string_xyz() )
f.close()
--------------------------------------------------------------------------

    Molecular point group: c1
  Charge       = 0
  Multiplicity = 1
  Basis Set: CC-PVTZ
  Basis Set:
  @DF-RHF Final Energy:  -501.22045723712699
    Total Energy =                       -501.2204572371267659
    Molecular point group: c1
  Basis Set: CC-PVTZ
  Basis Set:
  Basis Set: CC-PVTZ
  Basis Set:
  @DF-RHF Final Energy:  -501.22074848349007
    Total Energy =                       -501.2207484834891602
  Basis Set: CC-PVTZ
  Basis Set:
  Basis Set: CC-PVTZ
  Basis Set:
  @DF-RHF Final Energy:  -501.22081006585063
    Total Energy =                       -501.2208100658510830
  Basis Set: CC-PVTZ
  Basis Set:
  Basis Set: CC-PVTZ
  Basis Set:
  @DF-RHF Final Energy:  -501.22076076179599
    Total Energy =                       -501.2207607617958729
  Basis Set: CC-PVTZ
  Basis Set:
  Basis Set: CC-PVTZ
  Basis Set:
  @DF-RHF Final Energy:  -501.22081126561829
    Total Energy =                       -501.2208112656179537
  Basis Set: CC-PVTZ
  Basis Set:
  Basis Set: CC-PVTZ
  Basis Set:
  @DF-RHF Final Energy:  -501.22081169481123
    Total Energy =                       -501.2208116948118004
  Basis Set: CC-PVTZ
  Basis Set:
  Basis Set: CC-PVTZ
  Basis Set:
  @DF-RHF Final Energy:  -501.22081389468633
    Total Energy =                       -501.2208138946866711
  Basis Set: CC-PVTZ
  Basis Set:
  Charge       = 0
  Multiplicity = 1
  Basis Set: CC-PVTZ
  Basis Set:

    Orbital Energies (a.u.)
    -----------------------

    Doubly Occupied:

       1A    -20.595950     2A    -20.533782     3A    -11.364146
       4A    -11.278216     5A    -11.232753     6A    -11.217280
       7A    -11.215175     8A    -11.213869     9A    -11.213608
      10A    -11.212596    11A    -11.206933    12A     -1.471839
      13A     -1.365417    14A     -1.098446    15A     -1.067946
      16A     -1.019333    17A     -0.977826    18A     -0.928880
      19A     -0.862498    20A     -0.801318    21A     -0.790871
      22A     -0.765284    23A     -0.702114    24A     -0.685720
      25A     -0.675611    26A     -0.651406    27A     -0.628852
      28A     -0.607120    29A     -0.593557    30A     -0.579639
      31A     -0.567076    32A     -0.554213    33A     -0.533982
      34A     -0.528601    35A     -0.519399    36A     -0.512843
      37A     -0.494449    38A     -0.477784    39A     -0.473052
      40A     -0.461270    41A     -0.459267    42A     -0.456386
      43A     -0.444054    44A     -0.436613

  @DF-RHF Final Energy:  -501.22081410207352

   => Energetics <=

    Nuclear Repulsion Energy =            612.1509409784621312
    One-Electron Energy =               -1895.7895622744781576
    Two-Electron Energy =                 782.4178071939423944
    DFT Exchange-Correlation Energy =       0.0000000000000000
    Empirical Dispersion Energy =           0.0000000000000000
    PCM Polarization Energy =               0.0000000000000000
    EFP Energy =                            0.0000000000000000
    Total Energy =                       -501.2208141020736321
    Molecular point group: c1
  Basis Set: CC-PVTZ
  Basis Set:

  -Total Gradient:
     Atom            X                  Y                   Z
    ------   -----------------  -----------------  -----------------
       1       -0.000027526368    -0.000034639168     0.000037916215
       2        0.000028428190     0.000014208071    -0.000024516722
       3       -0.000004768483    -0.000005256443    -0.000023346630
       4        0.000000479782     0.000012231507    -0.000014685721
       5       -0.000530225598     0.001498677544    -0.001606261274
       6        0.000004377575     0.000008635259     0.000012553697
       7        0.000005640013     0.000008456304     0.000001772717
       8        0.001022605616    -0.002632013494     0.002756017521
       9        0.000001032226     0.000003378378    -0.000008245525
      10       -0.000007586114    -0.000014838851    -0.000003541773
      11       -0.001633484960     0.003291281086    -0.003019594938
      12       -0.000006420076    -0.000001864121    -0.000002541377
      13        0.000000620916     0.000001413497    -0.000001492219
      14       -0.000004399134     0.000008977770    -0.000005397143
      15        0.001141251077    -0.002162567787     0.001893653096
      16        0.000011257647     0.000000705754     0.000001594377
      17        0.000002828544    -0.000000253671    -0.000000960524
      18       -0.000004381064     0.000003009975    -0.000004432460
      19       -0.000001918600     0.000001828780     0.000000041658
      20        0.000002992726     0.000003015855     0.000006330609
      21        0.000001883386     0.000000378192    -0.000001496828
      22       -0.000000892822    -0.000000208003     0.000000544712
      23        0.000002034985    -0.000001740537     0.000001058752
      24        0.000001376624    -0.000000676551    -0.000000684059
      25       -0.000001293541     0.000000876791     0.000000627621
      26        0.000012269734     0.000002187951    -0.000003463337
      27       -0.000005476986     0.000002467787     0.000012699471
      28       -0.000000398367    -0.000001317810     0.000000884379
      29       -0.000010306937    -0.000006354068    -0.000005034294

  **** Optimization is complete! (in 8 steps) ****
    Final optimized geometry and variables:
    Molecular point group: c1

    Geometry (in Angstrom), charge = 0, multiplicity = 1:

    O            3.159466661212     0.741090599409    -0.308302417896
    C            2.638226993113    -0.126388597445     0.305601836099
    C            1.198369823506    -0.141369658872     0.750670768191
    O            3.271359798835    -1.223148651123     0.689172760152
    C            0.421014628510     1.104808551487     0.346280549045
    H            0.751306280760    -1.043423754432     0.348422717133
    H            1.197399364466    -0.267099091988     1.828709778274
    C           -1.038659488404     1.077305580188     0.800325845890
    H            0.464965568960     1.223615345357    -0.730397292244
    H            0.913495325177     1.973814324851     0.765858175065
    C           -1.910050446387     0.011158102360     0.106986204677
    H           -1.458795162793     2.057605391028     0.600355109696
    H           -1.083715413394     0.951218657970     1.877942115471
    C           -3.250839845485     0.545790225239    -0.387434671601
    H           -1.365405508025    -0.428764347974    -0.723842606244
    H           -2.094216569167    -0.812525344298     0.791056960141
    C           -4.128363842679    -0.518752894697    -1.038500940856
    H           -3.074095610685     1.349874959764    -1.097956837329
    H           -3.787079129013     0.991812012345     0.447180328196
    C           -5.463121992843     0.026391587703    -1.535691539134
    H           -3.590827424950    -0.967270696446    -1.869668234382
    H           -4.309473972414    -1.319304398483    -0.326377476364
    H           -6.061314489735    -0.754279398534    -1.991418862648
    H           -5.316223242267     0.805222720570    -2.276586305652
    H           -6.039919048668     0.451782715097    -0.721111066430
    C            4.635019645296    -1.341608930192     0.337993313770
    H            4.755264684176    -1.326313307546    -0.735101239702
    H            4.963766456039    -2.287990024400     0.735745889673
    H            5.211106109253    -0.535991005988     0.768489495351

  Mulliken Charges: (a.u.)
   Center  Symbol    Alpha    Beta     Spin     Total
       1     O     4.19690  4.19690  0.00000 -0.39381
       2     C     2.80565  2.80565  0.00000  0.38870
       3     C     3.10065  3.10065  0.00000 -0.20130
       4     O     4.14727  4.14727  0.00000 -0.29455
       5     C     3.09100  3.09100  0.00000 -0.18199
       6     H     0.43825  0.43825  0.00000  0.12351
       7     H     0.43968  0.43968  0.00000  0.12064
       8     C     3.10781  3.10781  0.00000 -0.21563
       9     H     0.44583  0.44583  0.00000  0.10833
      10     H     0.44141  0.44141  0.00000  0.11719
      11     C     3.09874  3.09874  0.00000 -0.19749
      12     H     0.44608  0.44608  0.00000  0.10784
      13     H     0.44966  0.44966  0.00000  0.10068
      14     C     3.08542  3.08542  0.00000 -0.17084
      15     H     0.45354  0.45354  0.00000  0.09292
      16     H     0.45006  0.45006  0.00000  0.09989
      17     C     3.08433  3.08433  0.00000 -0.16867
      18     H     0.45392  0.45392  0.00000  0.09215
      19     H     0.45348  0.45348  0.00000  0.09305
      20     C     3.15058  3.15058  0.00000 -0.30116
      21     H     0.45450  0.45450  0.00000  0.09099
      22     H     0.45489  0.45489  0.00000  0.09021
      23     H     0.44838  0.44838  0.00000  0.10323
      24     H     0.45487  0.45487  0.00000  0.09026
      25     H     0.45521  0.45521  0.00000  0.08959
      26     C     3.03792  3.03792  0.00000 -0.07585
      27     H     0.45440  0.45440  0.00000  0.09121
      28     H     0.44527  0.44527  0.00000  0.10945
      29     H     0.45428  0.45428  0.00000  0.09144

   Total alpha = 44.00000, Total beta = 44.00000, Total charge = -0.00000

*** Psi4 exiting successfully. Buy a developer a beer!
