                              Psi4 1.0.54 Driver

  ==> Input File <==

--------------------------------------------------------------------------
set {
	reference rhf
	basis cc-pvtz
}

set_num_threads( 4 )
memory 2 gb

molecule MOL {
0 1

H	 2.614283	 2.028610	 0.296620
O	 3.358864	 1.662087	 -0.142800
C	 3.565468	 0.338079	 0.273842
C	 2.533667	 -0.637565	 -0.272227
H	 4.548038	 0.064914	 -0.086598
H	 3.593945	 0.282242	 1.360360
C	 1.114816	 -0.402372	 0.240993
H	 2.544552	 -0.580764	 -1.356576
H	 2.850574	 -1.642962	 -0.005497
C	 0.113298	 -1.420414	 -0.302504
H	 0.796373	 0.598427	 -0.031033
H	 1.113377	 -0.446476	 1.328807
C	 -0.442357	 -1.102132	 -1.691820
H	 0.576879	 -2.403814	 -0.318136
H	 -0.719092	 -1.490247	 0.392277
C	 0.576265	 -1.175348	 -2.827950
H	 -1.247828	 -1.799558	 -1.904756
H	 -0.895884	 -0.113550	 -1.678678
C	 -0.045708	 -0.948006	 -4.203405
H	 1.061171	 -2.149035	 -2.811593
H	 1.361696	 -0.441695	 -2.673503
C	 0.969179	 -1.016711	 -5.339704
H	 -0.824485	 -1.686814	 -4.371466
H	 -0.537876	 0.020807	 -4.218712
H	 1.456196	 -1.985756	 -5.371384
H	 0.494864	 -0.853946	 -6.300766
H	 1.741757	 -0.264120	 -5.221034

	symmetry c1
}
set optking {
	frozen_dihedral = ("
		14 10 7 4
	")
}

ee,wfn = optimize('scf', return_wfn=True)
oeprop( wfn, 'DIPOLE', 'QUADRUPOLE', 'MULLIKEN_CHARGES')
f=open( 'psi4out.xyz', 'w' )
f.write( "27  " )
f.write( str(ee) + "\n" )
f.write( MOL.save_string_xyz() )
f.close()
--------------------------------------------------------------------------

    Molecular point group: c1
  Charge       = 0
  Multiplicity = 1
  Basis Set: CC-PVTZ
  Basis Set:
  @DF-RHF Final Energy:  -388.41975405298547
    Total Energy =                       -388.4197540529854678
    Molecular point group: c1
  Basis Set: CC-PVTZ
  Basis Set:
  Basis Set: CC-PVTZ
  Basis Set:
  @DF-RHF Final Energy:  -388.42282455379302
    Total Energy =                       -388.4228245537925659
  Basis Set: CC-PVTZ
  Basis Set:
  Basis Set: CC-PVTZ
  Basis Set:
  @DF-RHF Final Energy:  -388.42307481863696
    Total Energy =                       -388.4230748186371329
  Basis Set: CC-PVTZ
  Basis Set:
  Basis Set: CC-PVTZ
  Basis Set:
  @DF-RHF Final Energy:  -388.42308191995795
    Total Energy =                       -388.4230819199585767
  Basis Set: CC-PVTZ
  Basis Set:
  Basis Set: CC-PVTZ
  Basis Set:
  @DF-RHF Final Energy:  -388.42309421090152
    Total Energy =                       -388.4230942109018088
  Basis Set: CC-PVTZ
  Basis Set:
  Charge       = 0
  Multiplicity = 1
  Basis Set: CC-PVTZ
  Basis Set:

    Orbital Energies (a.u.)
    -----------------------

    Doubly Occupied:

       1A    -20.545218     2A    -11.264543     3A    -11.218068
       4A    -11.215434     5A    -11.212722     6A    -11.211906
       7A    -11.211848     8A    -11.209650     9A    -11.205162
      10A     -1.362991    11A     -1.093823    12A     -1.060058
      13A     -1.010781    14A     -0.950836    15A     -0.888763
      16A     -0.826918    17A     -0.793798    18A     -0.775855
      19A     -0.697178    20A     -0.648327    21A     -0.632919
      22A     -0.615497    23A     -0.611562    24A     -0.584509
      25A     -0.570718    26A     -0.553455    27A     -0.547326
      28A     -0.523631    29A     -0.511155    30A     -0.496220
      31A     -0.484947    32A     -0.470928    33A     -0.467465
      34A     -0.459213    35A     -0.455169    36A     -0.435852
      37A     -0.424622

  @DF-RHF Final Energy:  -388.42309458282523

   => Energetics <=

    Nuclear Repulsion Energy =            469.9254772480902602
    One-Electron Energy =               -1458.1989949421481469
    Two-Electron Energy =                 599.8504231112327716
    DFT Exchange-Correlation Energy =       0.0000000000000000
    Empirical Dispersion Energy =           0.0000000000000000
    PCM Polarization Energy =               0.0000000000000000
    EFP Energy =                            0.0000000000000000
    Total Energy =                       -388.4230945828251151
    Molecular point group: c1
  Basis Set: CC-PVTZ
  Basis Set:

  -Total Gradient:
     Atom            X                  Y                   Z
    ------   -----------------  -----------------  -----------------
       1        0.000009347162    -0.000010038286    -0.000000198174
       2       -0.000014730772     0.000015041955    -0.000009929510
       3        0.000016791213    -0.000034800816    -0.000011518837
       4       -0.000090729440     0.000561687544    -0.000674326534
       5       -0.000004179912     0.000008357376     0.000007911440
       6       -0.000006616646    -0.000004571584    -0.000011649974
       7        0.000037581479    -0.000812639388     0.001235778354
       8        0.000006813084    -0.000000000553     0.000039281809
       9       -0.000006658211     0.000012631576    -0.000008760192
      10        0.000495282887     0.000429000402    -0.001607131447
      11        0.000006240823    -0.000001803182     0.000001276925
      12        0.000015399177     0.000008568476     0.000005789807
      13       -0.000020392863     0.000041649182     0.000002534095
      14       -0.000446919515    -0.000173197450     0.001085534737
      15        0.000007505631    -0.000004405120    -0.000011029035
      16       -0.000011985539    -0.000025303232    -0.000019073033
      17        0.000033643062     0.000009160114    -0.000001591906
      18       -0.000023116925    -0.000008947881    -0.000014281012
      19        0.000008577513    -0.000010940134    -0.000000307883
      20       -0.000040341658     0.000060479787    -0.000023010916
      21       -0.000054416596    -0.000080462818    -0.000038919102
      22        0.000024064616     0.000046055403    -0.000005247148
      23        0.000072722786     0.000051081397     0.000035983622
      24        0.000048548908    -0.000088246630     0.000002446295
      25       -0.000052683496     0.000062831783     0.000014373027
      26        0.000029354240     0.000005860294     0.000016452109
      27       -0.000039101011    -0.000057048211    -0.000010387517

  **** Optimization is complete! (in 6 steps) ****
    Final optimized geometry and variables:
    Molecular point group: c1

    Geometry (in Angstrom), charge = 0, multiplicity = 1:

    H            1.412611513822     2.434966765734     2.024853801086
    O            2.181946434215     2.050945038745     1.647688705072
    C            2.296205156847     0.707856505638     2.039304206151
    C            1.283529375780    -0.206455759463     1.365523714569
    H            3.297203050862     0.404500651576     1.763755000913
    H            2.219126075240     0.620533007824     3.121320719707
    C           -0.162235555329     0.065963558533     1.783734652995
    H            1.403914188703    -0.114461262906     0.294674025969
    H            1.537267081146    -1.231773598272     1.624412062054
    C           -1.218632527406    -0.883267325407     1.198219486448
    H           -0.434885754353     1.088024786162     1.531852027322
    H           -0.211271592062    -0.003042820177     2.867552026398
    C           -1.787114138821    -0.537151329780    -0.181903247409
    H           -0.828600664818    -1.898321188885     1.194813158746
    H           -2.059961645400    -0.898665296421     1.884309971082
    C           -0.828148123267    -0.606380276401    -1.368892366966
    H           -2.612236163516    -1.218658403757    -0.371476557457
    H           -2.226468288260     0.456938101598    -0.140016516397
    C           -1.541203218591    -0.451972139370    -2.710070129389
    H           -0.297391282639    -1.555503817378    -1.354120248383
    H           -0.074821316913     0.169087691464    -1.286215274558
    C           -0.590803798940    -0.487090933089    -3.902139562264
    H           -2.281222929372    -1.240308013516    -2.815990536201
    H           -2.092046609932     0.484695427028    -2.717099578460
    H           -0.047711611780    -1.425486754663    -3.941747059864
    H           -1.128417580332    -0.377225891138    -4.836973445707
    H            0.139236129711     0.313215720959    -3.844733131459

  Mulliken Charges: (a.u.)
   Center  Symbol    Alpha    Beta     Spin     Total
       1     H     0.39248  0.39248  0.00000  0.21505
       2     O     4.20578  4.20578  0.00000 -0.41156
       3     C     2.98200  2.98200  0.00000  0.03599
       4     C     3.09109  3.09109  0.00000 -0.18218
       5     H     0.44781  0.44781  0.00000  0.10438
       6     H     0.46783  0.46783  0.00000  0.06434
       7     C     3.11102  3.11102  0.00000 -0.22204
       8     H     0.44774  0.44774  0.00000  0.10451
       9     H     0.45518  0.45518  0.00000  0.08963
      10     C     3.10503  3.10503  0.00000 -0.21007
      11     H     0.45668  0.45668  0.00000  0.08664
      12     H     0.44580  0.44580  0.00000  0.10840
      13     C     3.09270  3.09270  0.00000 -0.18540
      14     H     0.45309  0.45309  0.00000  0.09381
      15     H     0.44401  0.44401  0.00000  0.11199
      16     C     3.09662  3.09662  0.00000 -0.19323
      17     H     0.44903  0.44903  0.00000  0.10194
      18     H     0.45335  0.45335  0.00000  0.09330
      19     C     3.08352  3.08352  0.00000 -0.16703
      20     H     0.45241  0.45241  0.00000  0.09519
      21     H     0.44903  0.44903  0.00000  0.10194
      22     C     3.15072  3.15072  0.00000 -0.30145
      23     H     0.45438  0.45438  0.00000  0.09125
      24     H     0.45479  0.45479  0.00000  0.09042
      25     H     0.45524  0.45524  0.00000  0.08952
      26     H     0.44835  0.44835  0.00000  0.10330
      27     H     0.45431  0.45431  0.00000  0.09137

   Total alpha = 37.00000, Total beta = 37.00000, Total charge = -0.00000

*** Psi4 exiting successfully. Buy a developer a beer!
