  ==> Input File <==

--------------------------------------------------------------------------
set {
	reference rhf
	basis 6-31G*
}

set_num_threads( 1 )
memory 2 gb

molecule MOL {
0 1

H	 -2.817379	 -0.274430	 0.811810
C	 -2.645458	 0.373282	 -0.045542
O	 -1.289006	 0.489545	 -0.331653
H	 -3.125747	 -0.058833	 -0.912572
H	 -3.096429	 1.343428	 0.159079
C	 -0.534021	 1.042280	 0.699720
C	 0.927453	 1.016298	 0.318112
H	 -0.838963	 2.073768	 0.880656
H	 -0.673388	 0.484293	 1.623425
O	 1.392611	 -0.295398	 0.366430
H	 1.044709	 1.432037	 -0.680597
H	 1.490129	 1.642784	 1.011369
C	 2.706965	 -0.449871	 -0.062409
H	 2.756559	 -0.644779	 -1.131878
H	 3.305899	 0.433456	 0.155466
H	 3.125548	 -1.294566	 0.467107

	symmetry c1
}
set optking {
	frozen_dihedral = ("
		3 6 7 11,
		2 3 6 7
	")
}

ee = energy('scf')
oeprop('DIPOLE', 'QUADRUPOLE', 'MULLIKEN_CHARGES')
f=open( 'psi4out.xyz', 'w' )
f.write( "16  " )
f.write( str(ee) + "\n" )
f.write( MOL.save_string_xyz() )
f.close()
--------------------------------------------------------------------------

    Molecular point group: c1

    Geometry (in Angstrom), charge = 0, multiplicity = 1:

       Center              X                  Y                   Z               Mass
    ------------   -----------------  -----------------  -----------------  -----------------
           H         -2.909492896478    -0.630456122367     0.657733816366     1.007825032070
           C         -2.737571896478     0.017255877633    -0.199618183634    12.000000000000
           O         -1.381119896478     0.133518877633    -0.485729183634    15.994914619560
           H         -3.217860896478    -0.414859122367    -1.066648183634     1.007825032070
           H         -3.188542896478     0.987401877633     0.005002816366     1.007825032070
           C         -0.626134896478     0.686253877633     0.545643816366    12.000000000000
           C          0.835339103522     0.660271877633     0.164035816366    12.000000000000
           H         -0.931076896478     1.717741877633     0.726579816366     1.007825032070
           H         -0.765501896478     0.128266877633     1.469348816366     1.007825032070
           O          1.300497103522    -0.651424122367     0.212353816366    15.994914619560
           H          0.952595103522     1.076010877633    -0.834673183634     1.007825032070
           H          1.398015103522     1.286757877633     0.857292816366     1.007825032070
           C          2.614851103522    -0.805897122367    -0.216485183634    12.000000000000
           H          2.664445103522    -1.000805122367    -1.285954183634     1.007825032070
           H          3.213785103522     0.077429877633     0.001389816366     1.007825032070
           H          3.033434103522    -1.650592122367     0.313030816366     1.007825032070

  Charge       = 0
  Multiplicity = 1
  Basis Set: 6-31G*
  Basis Set:

    Orbital Energies (a.u.)
    -----------------------

    Doubly Occupied:

       1A    -20.553470     2A    -20.552038     3A    -11.269162
       4A    -11.268354     5A    -11.263437     6A    -11.262996
       7A     -1.387939     8A     -1.370315     9A     -1.030613
      10A     -0.935738    11A     -0.892032    12A     -0.824365
      13A     -0.683465    14A     -0.680103    15A     -0.657279
      16A     -0.634233    17A     -0.629886    18A     -0.596461
      19A     -0.551340    20A     -0.537750    21A     -0.507325
      22A     -0.477923    23A     -0.463151    24A     -0.418192
      25A     -0.409148

  @DF-RHF Final Energy:  -306.97574258036542

   => Energetics <=

    Nuclear Repulsion Energy =            258.8462272425508104
    One-Electron Energy =                -931.9304178993696723
    Two-Electron Energy =                 366.1084480764535556
    DFT Exchange-Correlation Energy =       0.0000000000000000
    Empirical Dispersion Energy =           0.0000000000000000
    PCM Polarization Energy =               0.0000000000000000
    EFP Energy =                            0.0000000000000000
    Total Energy =                       -306.9757425803653632

  Mulliken Charges: (a.u.)
   Center  Symbol    Alpha    Beta     Spin     Total
       1     H     0.42808  0.42808  0.00000  0.14385
       2     C     3.07950  3.07950  0.00000 -0.15900
       3     O     4.30085  4.30085  0.00000 -0.60170
       4     H     0.41131  0.41131  0.00000  0.17738
       5     H     0.43191  0.43191  0.00000  0.13618
       6     C     2.99339  2.99339  0.00000  0.01322
       7     C     2.99455  2.99455  0.00000  0.01091
       8     H     0.43237  0.43237  0.00000  0.13525
       9     H     0.42282  0.42282  0.00000  0.15437
      10     O     4.30170  4.30170  0.00000 -0.60340
      11     H     0.42272  0.42272  0.00000  0.15456
      12     H     0.43167  0.43167  0.00000  0.13666
      13     C     3.07794  3.07794  0.00000 -0.15588
      14     H     0.42408  0.42408  0.00000  0.15184
      15     H     0.43244  0.43244  0.00000  0.13512
      16     H     0.41467  0.41467  0.00000  0.17065

   Total alpha = 25.00000, Total beta = 25.00000, Total charge =  0.00000
