                              Psi4 1.0.54 Driver

  ==> Input File <==

--------------------------------------------------------------------------
set {
	reference rhf
	basis cc-pvtz
}

set_num_threads( 4 )
memory 2 gb

molecule MOL {
0 1

H	 -2.470391	 1.440332	 2.323459
C	 -2.407034	 0.554794	 1.725030
C	 -1.320516	 0.322482	 1.030152
H	 -3.238431	 -0.122267	 1.712154
O	 -1.189946	 -0.765863	 0.237511
H	 -0.478180	 0.989902	 1.042365
C	 0.026572	 -0.995256	 -0.379403
C	 1.057223	 0.049888	 -0.004615
H	 -0.054361	 -1.010670	 -1.459674
H	 0.397526	 -1.952058	 -0.044198
F	 2.203233	 -0.234060	 -0.590375
F	 0.698147	 1.254887	 -0.392621
F	 1.266440	 0.094219	 1.288722

	symmetry c1
}
set optking {
	frozen_dihedral = ("
		3 5 7 9
	")
}

ee,wfn = optimize('scf', return_wfn=True)
oeprop( wfn, 'DIPOLE', 'QUADRUPOLE', 'MULLIKEN_CHARGES')
f=open( 'psi4out.xyz', 'w' )
f.write( "13  " )
f.write( str(ee) + "\n" )
f.write( MOL.save_string_xyz() )
f.close()
--------------------------------------------------------------------------

    Molecular point group: c1
  Charge       = 0
  Multiplicity = 1
  Basis Set: CC-PVTZ
  Basis Set:
  @DF-RHF Final Energy:  -527.71605374646003
    Total Energy =                       -527.7160537464600338
    Molecular point group: c1
  Basis Set: CC-PVTZ
  Basis Set:
  Basis Set: CC-PVTZ
  Basis Set:
  @DF-RHF Final Energy:  -527.72699373586420
    Total Energy =                       -527.7269937358644256
  Basis Set: CC-PVTZ
  Basis Set:
  Basis Set: CC-PVTZ
  Basis Set:
  @DF-RHF Final Energy:  -527.73086403244247
    Total Energy =                       -527.7308640324425824
  Basis Set: CC-PVTZ
  Basis Set:
  Basis Set: CC-PVTZ
  Basis Set:
  @DF-RHF Final Energy:  -527.73185478862888
    Total Energy =                       -527.7318547886288798
  Basis Set: CC-PVTZ
  Basis Set:
  @DF-RHF Final Energy:  -527.73202750998894
    Total Energy =                       -527.7320275099891660
  @DF-RHF Final Energy:  -527.73205632763631
    Total Energy =                       -527.7320563276365419
  @DF-RHF Final Energy:  -527.73206590900759
    Total Energy =                       -527.7320659090077015
  @DF-RHF Final Energy:  -527.73206819683310
    Total Energy =                       -527.7320681968330973
  Basis Set: CC-PVTZ
  Basis Set:
  @DF-RHF Final Energy:  -527.73207009252997
    Total Energy =                       -527.7320700925300798
  Basis Set: CC-PVTZ
  Basis Set:
  Basis Set: CC-PVTZ
  Basis Set:
  @DF-RHF Final Energy:  -527.73207373739547
    Total Energy =                       -527.7320737373954671
  Basis Set: CC-PVTZ
  Basis Set:
  Basis Set: CC-PVTZ
  Basis Set:
  @DF-RHF Final Energy:  -527.73207667323345
    Total Energy =                       -527.7320766732332231
  Basis Set: CC-PVTZ
  Basis Set:
  Charge       = 0
  Multiplicity = 1
  Basis Set: CC-PVTZ
  Basis Set:

    Orbital Energies (a.u.)
    -----------------------

    Doubly Occupied:

       1A    -26.348681     2A    -26.348254     3A    -26.347978
       4A    -20.598507     5A    -11.508524     6A    -11.321736
       7A    -11.295608     8A    -11.210049     9A     -1.759171
      10A     -1.654542    11A     -1.654381    12A     -1.435624
      13A     -1.089136    14A     -1.023952    15A     -0.938283
      16A     -0.852869    17A     -0.848453    18A     -0.843304
      19A     -0.766135    20A     -0.732155    21A     -0.730329
      22A     -0.707924    23A     -0.690731    24A     -0.671101
      25A     -0.664412    26A     -0.659531    27A     -0.651080
      28A     -0.590030    29A     -0.560266    30A     -0.532146
      31A     -0.501067    32A     -0.352360

  @DF-RHF Final Energy:  -527.73207764731615

   => Energetics <=

    Nuclear Repulsion Energy =            416.3449507968875878
    One-Electron Energy =               -1556.3774147104925305
    Two-Electron Energy =                 612.3003862662886831
    DFT Exchange-Correlation Energy =       0.0000000000000000
    Empirical Dispersion Energy =           0.0000000000000000
    PCM Polarization Energy =               0.0000000000000000
    EFP Energy =                            0.0000000000000000
    Total Energy =                       -527.7320776473162596
    Molecular point group: c1
  Basis Set: CC-PVTZ
  Basis Set:

  -Total Gradient:
     Atom            X                  Y                   Z
    ------   -----------------  -----------------  -----------------
       1        0.000001945240    -0.000001729587    -0.000002825796
       2        0.000025560376    -0.000006146294    -0.000016726666
       3       -0.000012950015    -0.000075422961     0.000070427895
       4        0.000034360550     0.000031833681    -0.000009033671
       5       -0.000059945846     0.000096669566    -0.000080436007
       6       -0.000026310177    -0.000026906101     0.000007306232
       7        0.000078745594     0.000074408690     0.000019951695
       8        0.000084670260    -0.000090430348    -0.000000980492
       9       -0.000017450218    -0.000086694526     0.000013695571
      10       -0.000015789749     0.000008300666    -0.000001916317
      11       -0.000065902996     0.000022974791     0.000031932239
      12       -0.000026312203     0.000051313057    -0.000024328893
      13       -0.000000620816     0.000001829369    -0.000007065785

  **** Optimization is complete! (in 12 steps) ****
    Final optimized geometry and variables:
    Molecular point group: c1

    Geometry (in Angstrom), charge = 0, multiplicity = 1:

    H           -3.225725428188     0.880364534175     1.920090750368
    C           -2.882129637134     0.046087777619     1.343450455221
    C           -1.782655691635     0.160313120758     0.637793531801
    H           -3.455035628759    -0.860319716274     1.351546610877
    O           -1.344835272635    -0.853068490884    -0.143921598926
    H           -1.214063246048     1.066673009151     0.624991303599
    C           -0.059447649229    -0.969838530610    -0.658386491578
    C            0.963110277425     0.091144257915    -0.303038101456
    H           -0.114045779615    -0.988264667194    -1.738794154435
    H            0.358356138751    -1.908759842369    -0.320794846563
    F            2.112226134228    -0.251854079823    -0.844108124849
    F            0.650472371507     1.283057713003    -0.768533165082
    F            1.151018681662     0.207676828561     0.992208432481

  Mulliken Charges: (a.u.)
   Center  Symbol    Alpha    Beta     Spin     Total
       1     H     0.42534  0.42534  0.00000  0.14932
       2     C     3.19828  3.19828  0.00000 -0.39656
       3     C     2.96548  2.96548  0.00000  0.06904
       4     H     0.42593  0.42593  0.00000  0.14813
       5     O     4.14790  4.14790  0.00000 -0.29581
       6     H     0.42577  0.42577  0.00000  0.14846
       7     C     2.98988  2.98988  0.00000  0.02024
       8     C     2.69166  2.69166  0.00000  0.61669
       9     H     0.45172  0.45172  0.00000  0.09656
      10     H     0.45077  0.45077  0.00000  0.09846
      11     F     4.60582  4.60582  0.00000 -0.21163
      12     F     4.61201  4.61201  0.00000 -0.22403
      13     F     4.60944  4.60944  0.00000 -0.21888

   Total alpha = 32.00000, Total beta = 32.00000, Total charge =  0.00000

*** Psi4 exiting successfully. Buy a developer a beer!
