                              Psi4 1.0.54 Driver

  ==> Input File <==

--------------------------------------------------------------------------
set {
	reference rhf
	basis cc-pvtz
}

set_num_threads( 4 )
memory 2 gb

molecule MOL {
0 1

O	 0.395927	 1.296676	 -0.000076
C	 0.503051	 0.114301	 -0.000074
C	 -0.701422	 -0.805636	 -0.000109
C	 1.858118	 -0.556123	 0.000212
C	 -2.031317	 -0.085754	 -0.158951
H	 -0.557465	 -1.533944	 -0.794010
H	 -0.677606	 -1.376759	 0.924386
H	 -2.066036	 0.463998	 -1.089970
H	 -2.847795	 -0.797901	 -0.150901
H	 -2.187260	 0.622578	 0.643656
H	 1.961106	 -1.191101	 -0.872843
H	 2.636688	 0.191085	 -0.000109
H	 1.961070	 -1.190284	 0.873873

	symmetry c1
}
set optking {
	frozen_dihedral = ("
		6 3 2 1
	")
}

ee,wfn = optimize('scf', return_wfn=True)
oeprop( wfn, 'DIPOLE', 'QUADRUPOLE', 'MULLIKEN_CHARGES')
f=open( 'psi4out.xyz', 'w' )
f.write( "13  " )
f.write( str(ee) + "\n" )
f.write( MOL.save_string_xyz() )
f.close()
--------------------------------------------------------------------------

    Molecular point group: c1
  Charge       = 0
  Multiplicity = 1
  Basis Set: CC-PVTZ
  Basis Set:
  @DF-RHF Final Energy:  -231.08352711267008
    Total Energy =                       -231.0835271126701969
    Molecular point group: c1
  Basis Set: CC-PVTZ
  Basis Set:
  Basis Set: CC-PVTZ
  Basis Set:
  @DF-RHF Final Energy:  -231.08318917142137
    Total Energy =                       -231.0831891714215089
  Basis Set: CC-PVTZ
  Basis Set:
  Basis Set: CC-PVTZ
  Basis Set:
  @DF-RHF Final Energy:  -231.08355592901844
    Total Energy =                       -231.0835559290185302
  Basis Set: CC-PVTZ
  Basis Set:
  Basis Set: CC-PVTZ
  Basis Set:
  @DF-RHF Final Energy:  -231.08356992851077
    Total Energy =                       -231.0835699285107694
  Basis Set: CC-PVTZ
  Basis Set:
  Basis Set: CC-PVTZ
  Basis Set:
  @DF-RHF Final Energy:  -231.08357637594105
    Total Energy =                       -231.0835763759408792
  Basis Set: CC-PVTZ
  Basis Set:
  Basis Set: CC-PVTZ
  Basis Set:
  @DF-RHF Final Energy:  -231.08358278928696
    Total Energy =                       -231.0835827892871066
  Basis Set: CC-PVTZ
  Basis Set:
  Basis Set: CC-PVTZ
  Basis Set:
  @DF-RHF Final Energy:  -231.08358449482301
    Total Energy =                       -231.0835844948230147
  Basis Set: CC-PVTZ
  Basis Set:
  Charge       = 0
  Multiplicity = 1
  Basis Set: CC-PVTZ
  Basis Set:

    Orbital Energies (a.u.)
    -----------------------

    Doubly Occupied:

       1A    -20.539804     2A    -11.321294     3A    -11.233678
       4A    -11.227540     5A    -11.212673     6A     -1.399977
       7A     -1.062892     8A     -1.001328     9A     -0.879203
      10A     -0.731161    11A     -0.661076    12A     -0.642047
      13A     -0.624477    14A     -0.583799    15A     -0.571710
      16A     -0.522452    17A     -0.513630    18A     -0.509569
      19A     -0.488919    20A     -0.405202

  @DF-RHF Final Energy:  -231.08358457023081

   => Energetics <=

    Nuclear Repulsion Energy =            177.3039822709496889
    One-Electron Energy =                -664.5102723673384162
    Two-Electron Energy =                 256.1227055261579153
    DFT Exchange-Correlation Energy =       0.0000000000000000
    Empirical Dispersion Energy =           0.0000000000000000
    PCM Polarization Energy =               0.0000000000000000
    EFP Energy =                            0.0000000000000000
    Total Energy =                       -231.0835845702308120
    Molecular point group: c1
  Basis Set: CC-PVTZ
  Basis Set:

  -Total Gradient:
     Atom            X                  Y                   Z
    ------   -----------------  -----------------  -----------------
       1       -0.000003249141     0.000022578021     0.000200642420
       2        0.000037597281    -0.000057070256    -0.000252700361
       3       -0.000112756808     0.000139420646    -0.000075616506
       4       -0.000012951495     0.000021874977     0.000002223907
       5        0.000003823373     0.000003532346     0.000001553146
       6        0.000088077262    -0.000117863404     0.000129038212
       7        0.000002009638     0.000000357167     0.000000891137
       8       -0.000001956974     0.000002164946    -0.000002919734
       9        0.000001217613    -0.000001547531     0.000000033987
      10       -0.000000004565    -0.000000400747    -0.000000299750
      11        0.000001900673    -0.000002899196     0.000002073949
      12       -0.000004914021    -0.000009170126    -0.000001156719
      13        0.000001207162    -0.000000976840    -0.000003763687

  **** Optimization is complete! (in 8 steps) ****
    Final optimized geometry and variables:
    Molecular point group: c1

    Geometry (in Angstrom), charge = 0, multiplicity = 1:

    O            0.397336121310     1.297538706365    -0.006955310591
    C            0.502320527572     0.115404431734     0.026560065526
    C           -0.703675765311    -0.801874233273     0.051753373005
    C            1.855920530128    -0.557162765058     0.047995015576
    C           -2.033396447385    -0.083021130930    -0.112675173336
    H           -0.568197748951    -1.555901811722    -0.718732170039
    H           -0.672497720313    -1.343262585032     0.994299028967
    H           -2.077184212198     0.440667517776    -1.058657595312
    H           -2.851526412317    -0.792368200852    -0.076772272375
    H           -2.178124013533     0.647589573238     0.671311336615
    H            2.002582534643    -1.107779646530    -0.875229735477
    H            2.632777550614     0.184854428703     0.149816774288
    H            1.916835099728    -1.270441847181     0.862021321209

  Mulliken Charges: (a.u.)
   Center  Symbol    Alpha    Beta     Spin     Total
       1     O     4.16976  4.16976  0.00000 -0.33951
       2     C     2.86295  2.86295  0.00000  0.27411
       3     C     3.10064  3.10064  0.00000 -0.20128
       4     C     3.14952  3.14952  0.00000 -0.29903
       5     C     3.14143  3.14143  0.00000 -0.28286
       6     H     0.44720  0.44720  0.00000  0.10561
       7     H     0.44610  0.44610  0.00000  0.10781
       8     H     0.44905  0.44905  0.00000  0.10189
       9     H     0.45072  0.45072  0.00000  0.09856
      10     H     0.44631  0.44631  0.00000  0.10739
      11     H     0.44944  0.44944  0.00000  0.10112
      12     H     0.43559  0.43559  0.00000  0.12882
      13     H     0.45131  0.45131  0.00000  0.09738

   Total alpha = 20.00000, Total beta = 20.00000, Total charge = -0.00000

*** Psi4 exiting successfully. Buy a developer a beer!
