                              Psi4 1.0.54 Driver

  ==> Input File <==

--------------------------------------------------------------------------
set {
	reference rhf
	basis cc-pvtz
}

set_num_threads( 4 )
memory 2 gb

molecule MOL {
0 1

H	 3.761726	 0.212256	 -0.649033
N	 3.091268	 -0.241216	 -0.065538
C	 1.860978	 0.530248	 0.016256
H	 3.507699	 -0.344505	 0.836274
C	 0.644130	 -0.381765	 -0.031064
H	 1.835721	 1.204666	 -0.833114
H	 1.808789	 1.151975	 0.911067
C	 -0.678115	 0.376691	 0.025731
H	 0.693998	 -0.977147	 -0.936845
H	 0.693309	 -1.082142	 0.800523
C	 -1.900706	 -0.535531	 -0.022488
H	 -0.725296	 1.079516	 -0.802982
H	 -0.715474	 0.974884	 0.933278
C	 -3.220513	 0.226854	 0.028039
H	 -1.865036	 -1.134397	 -0.928236
H	 -1.857948	 -1.236381	 0.806820
H	 -3.309098	 0.911849	 -0.808725
H	 -4.066838	 -0.449485	 -0.008086
H	 -3.301685	 0.809374	 0.939860

	symmetry c1
}
set optking {
	frozen_dihedral = ("
		1 2 3 6
	")
}

ee,wfn = optimize('scf', return_wfn=True)
oeprop( wfn, 'DIPOLE', 'QUADRUPOLE', 'MULLIKEN_CHARGES')
f=open( 'psi4out.xyz', 'w' )
f.write( "19  " )
f.write( str(ee) + "\n" )
f.write( MOL.save_string_xyz() )
f.close()
--------------------------------------------------------------------------

    Molecular point group: c1
  Charge       = 0
  Multiplicity = 1
  Basis Set: CC-PVTZ
  Basis Set:
  @DF-RHF Final Energy:  -251.44578031708801
    Total Energy =                       -251.4457803170881220
    Molecular point group: c1
  Basis Set: CC-PVTZ
  Basis Set:
  Basis Set: CC-PVTZ
  Basis Set:
  @DF-RHF Final Energy:  -251.44607480587317
    Total Energy =                       -251.4460748058732520
  Basis Set: CC-PVTZ
  Basis Set:
  Basis Set: CC-PVTZ
  Basis Set:
  @DF-RHF Final Energy:  -251.44615137401382
    Total Energy =                       -251.4461513740138230
  Basis Set: CC-PVTZ
  Basis Set:
  Basis Set: CC-PVTZ
  Basis Set:
  @DF-RHF Final Energy:  -251.44615516712233
    Total Energy =                       -251.4461551671222423
  Basis Set: CC-PVTZ
  Basis Set:
  Charge       = 0
  Multiplicity = 1
  Basis Set: CC-PVTZ
  Basis Set:

    Orbital Energies (a.u.)
    -----------------------

    Doubly Occupied:

       1A    -15.524584     2A    -11.238528     3A    -11.210211
       4A    -11.208203     5A    -11.204259     6A    -11.202709
       7A     -1.175187     8A     -1.072371     9A     -0.998318
      10A     -0.900549    11A     -0.811253    12A     -0.786463
      13A     -0.676299    14A     -0.637125    15A     -0.615873
      16A     -0.581357    17A     -0.568080    18A     -0.555383
      19A     -0.519878    20A     -0.504012    21A     -0.473717
      22A     -0.463037    23A     -0.458738    24A     -0.455843
      25A     -0.378426

  @DF-RHF Final Energy:  -251.44615562514119

   => Energetics <=

    Nuclear Repulsion Energy =            245.6583961949650927
    One-Electron Energy =                -825.7682996611488306
    Two-Electron Energy =                 328.6637478410427775
    DFT Exchange-Correlation Energy =       0.0000000000000000
    Empirical Dispersion Energy =           0.0000000000000000
    PCM Polarization Energy =               0.0000000000000000
    EFP Energy =                            0.0000000000000000
    Total Energy =                       -251.4461556251409320
    Molecular point group: c1
  Basis Set: CC-PVTZ
  Basis Set:

  -Total Gradient:
     Atom            X                  Y                   Z
    ------   -----------------  -----------------  -----------------
       1       -0.000848056640    -0.001172279862    -0.001906836656
       2        0.001341138953     0.001797297258     0.002669649503
       3       -0.001467034305    -0.002151029515    -0.001956288881
       4       -0.000015110474    -0.000005791760    -0.000001322450
       5        0.000051903973     0.000044579264     0.000031450703
       6        0.000976374313     0.001501215804     0.001162610721
       7       -0.000012985275    -0.000003748681     0.000011884045
       8       -0.000008792851    -0.000020849759    -0.000011246773
       9       -0.000001320266     0.000006661099     0.000009995772
      10        0.000006540699     0.000001990178    -0.000000913279
      11       -0.000022855399     0.000016276951    -0.000011641990
      12        0.000000147913    -0.000001745205     0.000005015227
      13        0.000004000189    -0.000010332216    -0.000004348351
      14       -0.000006467559    -0.000008098651     0.000002881280
      15        0.000002006431    -0.000000927009    -0.000002009057
      16        0.000002344864     0.000005420536    -0.000000355958
      17        0.000000948319    -0.000002286240    -0.000000049937
      18       -0.000002379194     0.000001978359     0.000001672699
      19       -0.000000403693     0.000001669446    -0.000000146618

  **** Optimization is complete! (in 5 steps) ****
    Final optimized geometry and variables:
    Molecular point group: c1

    Geometry (in Angstrom), charge = 0, multiplicity = 1:

    H            3.784506919265     0.210999167057    -0.651172818947
    N            3.100545392385    -0.238156844323    -0.085016773020
    C            1.858226437289     0.520318731077    -0.016498468709
    H            3.494288369261    -0.405847764711     0.814029326066
    C            0.637862286161    -0.389389005820    -0.041536230504
    H            1.823782410579     1.204760171227    -0.857494775646
    H            1.818131040600     1.147477131903     0.873123235943
    C           -0.681854147665     0.371438589050     0.035270797980
    H            0.672692545705    -0.987565822838    -0.946389814591
    H            0.706225719077    -1.088516912002     0.788247870767
    C           -1.907404447909    -0.537637641910     0.006323400775
    H           -0.741634424417     1.075418668460    -0.792202201270
    H           -0.704197599700     0.969938304067     0.943478249142
    C           -3.224706078745     0.227020023510     0.081530145747
    H           -1.888750933451    -1.134663313597    -0.901155156839
    H           -1.851327054814    -1.240346208119     0.833142041405
    H           -3.326757268864     0.913881822742    -0.752229866558
    H           -4.072977550814    -0.447592977501     0.059095442824
    H           -3.288665336331     0.807949660980     0.995770035180

  Mulliken Charges: (a.u.)
   Center  Symbol    Alpha    Beta     Spin     Total
       1     H     0.42457  0.42457  0.00000  0.15086
       2     N     3.69764  3.69764  0.00000 -0.39529
       3     C     3.04207  3.04207  0.00000 -0.08414
       4     H     0.42775  0.42775  0.00000  0.14449
       5     C     3.06531  3.06531  0.00000 -0.13063
       6     H     0.45645  0.45645  0.00000  0.08710
       7     H     0.46251  0.46251  0.00000  0.07498
       8     C     3.09629  3.09629  0.00000 -0.19258
       9     H     0.45341  0.45341  0.00000  0.09319
      10     H     0.45895  0.45895  0.00000  0.08209
      11     C     3.08292  3.08292  0.00000 -0.16584
      12     H     0.45666  0.45666  0.00000  0.08668
      13     H     0.45707  0.45707  0.00000  0.08585
      14     C     3.14965  3.14965  0.00000 -0.29930
      15     H     0.45405  0.45405  0.00000  0.09191
      16     H     0.45465  0.45465  0.00000  0.09070
      17     H     0.45557  0.45557  0.00000  0.08885
      18     H     0.44869  0.44869  0.00000  0.10262
      19     H     0.45577  0.45577  0.00000  0.08845

   Total alpha = 25.00000, Total beta = 25.00000, Total charge = -0.00000

*** Psi4 exiting successfully. Buy a developer a beer!
