  ==> Input File <==

--------------------------------------------------------------------------
set {
	reference rhf
	basis 6-31G*
}

set_num_threads( 4 )
memory 2 gb

molecule MOL {
0 1

H	 1.720920	 0.251717	 -3.081193
O	 2.221219	 0.540421	 -2.330159
C	 1.473261	 0.522005	 -1.208823
C	 2.085744	 0.923954	 -0.025926
C	 0.150149	 0.125165	 -1.203565
H	 3.115100	 1.227885	 -0.056100
C	 1.372775	 0.927041	 1.155061
H	 -0.346777	 -0.189306	 -2.100057
C	 -0.536158	 0.140425	 0.000000
H	 1.853478	 1.238864	 2.063657
C	 0.041863	 0.532662	 1.186419
N	 -1.935604	 -0.280333	 0.000000
H	 -0.524231	 0.529693	 2.094678
O	 -2.161694	 -1.452901	 0.000000
O	 -2.770341	 0.571417	 0.000000

	symmetry c1
}
set optking {
	frozen_dihedral = ("
		11 9 12 14
	")
}

ee = optimize('scf')
oeprop('DIPOLE', 'QUADRUPOLE', 'MULLIKEN_CHARGES')
f=open( 'psi4out.xyz', 'w' )
f.write( "15  " )
f.write( str(ee) + "\n" )
f.write( MOL.save_string_xyz() )
f.close()
--------------------------------------------------------------------------

    Molecular point group: c1
  Charge       = 0
  Multiplicity = 1
  Basis Set: 6-31G*
  Basis Set:
  @DF-RHF Final Energy:  -509.01656278671248
    Total Energy =                       -509.0165627867123703
    Molecular point group: c1
  Basis Set: 6-31G*
  Basis Set:
  Basis Set: 6-31G*
  Basis Set:
  @DF-RHF Final Energy:  -509.01330222302380
    Total Energy =                       -509.0133022230234019
  Basis Set: 6-31G*
  Basis Set:
  Basis Set: 6-31G*
  Basis Set:
  @DF-RHF Final Energy:  -509.01624328163456
    Total Energy =                       -509.0162432816342744
  Basis Set: 6-31G*
  Basis Set:
  Basis Set: 6-31G*
  Basis Set:
  @DF-RHF Final Energy:  -509.01691310498410
    Total Energy =                       -509.0169131049840416
  Basis Set: 6-31G*
  Basis Set:
  Charge       = 0
  Multiplicity = 1
  Basis Set: 6-31G*
  Basis Set:

    Orbital Energies (a.u.)
    -----------------------

    Doubly Occupied:

       1A    -20.618211     2A    -20.610576     3A    -20.610265
       4A    -15.859360     5A    -11.333874     6A    -11.317349
       7A    -11.269051     8A    -11.268689     9A    -11.263025
      10A    -11.254259    11A     -1.642176    12A     -1.439288
      13A     -1.426320    14A     -1.202612    15A     -1.095594
      16A     -1.048643    17A     -0.965626    18A     -0.884635
      19A     -0.830664    20A     -0.789296    21A     -0.763892
      22A     -0.734686    23A     -0.721144    24A     -0.710564
      25A     -0.668227    26A     -0.635535    27A     -0.618343
      28A     -0.592659    29A     -0.563929    30A     -0.548943
      31A     -0.533437    32A     -0.490913    33A     -0.485121
      34A     -0.455609    35A     -0.373762    36A     -0.343121

  @DF-RHF Final Energy:  -509.01691463127742

   => Energetics <=

    Nuclear Repulsion Energy =            502.4718318228344174
    One-Electron Energy =               -1691.0386999721795291
    Two-Electron Energy =                 679.5499535180674684
    DFT Exchange-Correlation Energy =       0.0000000000000000
    Empirical Dispersion Energy =           0.0000000000000000
    PCM Polarization Energy =               0.0000000000000000
    EFP Energy =                            0.0000000000000000
    Total Energy =                       -509.0169146312775865
    Molecular point group: c1
  Basis Set: 6-31G*
  Basis Set:

  -Total Gradient:
     Atom            X                  Y                   Z
    ------   -----------------  -----------------  -----------------
       1       -0.000005077549     0.000004220476     0.000001365413
       2        0.000047621076     0.000009850764    -0.000051746491
       3       -0.000121926114    -0.000036093104    -0.000003590505
       4        0.000018860917    -0.000042977000     0.000038925424
       5        0.000111237458     0.000067330065    -0.000117395973
       6       -0.000006281124    -0.000003886074    -0.000005228246
       7       -0.000005409511     0.000088748406    -0.000004502659
       8        0.000014862578     0.000009508680     0.000036862387
       9       -0.001388895917     0.003791222344     0.000649876259
      10       -0.000008100501    -0.000012019807     0.000008649054
      11        0.000876894502    -0.002762410167     0.000482139242
      12        0.000339884705    -0.001057363662    -0.004277350379
      13        0.000013525222     0.000014472084    -0.000027945891
      14        0.000119795063    -0.000200011244     0.003288206417
      15       -0.000006990806     0.000129408239    -0.000018264044

  **** Optimization is complete! (in 5 steps) ****
    Final optimized geometry and variables:
    Molecular point group: c1

    Geometry (in Angstrom), charge = 0, multiplicity = 1:

    H            1.788764103052     0.017372928128    -2.797153411756
    O            2.286150573823     0.307968049897    -2.045017818764
    C            1.538613507863     0.293940062653    -0.925825511963
    C            2.151546332221     0.690980281053     0.258185223163
    C            0.212055519640    -0.101704641940    -0.922135373443
    H            3.182848004407     0.987674427429     0.230549247822
    C            1.435817528876     0.694799609918     1.436934635820
    H           -0.278283488530    -0.429727209938    -1.820847874284
    C           -0.472063067395    -0.065797013857     0.276662593783
    H            1.918198190548     0.997250081175     2.347980592172
    C            0.099696034376     0.312933841945     1.465725474518
    N           -1.866085490008    -0.509560669198     0.279906231772
    H           -0.469332515818     0.318761338483     2.375376558456
    O           -2.059594445313    -1.685334103757     0.261609392902
    O           -2.705301101844     0.335000926659     0.324654420848

  Mulliken Charges: (a.u.)
   Center  Symbol    Alpha    Beta     Spin     Total
       1     H     0.26741  0.26741  0.00000  0.46519
       2     O     4.37406  4.37406  0.00000 -0.74812
       3     C     2.79029  2.79029  0.00000  0.41943
       4     C     3.11655  3.11655  0.00000 -0.23310
       5     C     3.13526  3.13526  0.00000 -0.27051
       6     H     0.38237  0.38237  0.00000  0.23527
       7     C     3.09516  3.09516  0.00000 -0.19033
       8     H     0.38159  0.38159  0.00000  0.23681
       9     C     2.88699  2.88699  0.00000  0.22601
      10     H     0.38670  0.38670  0.00000  0.22659
      11     C     3.10156  3.10156  0.00000 -0.20312
      12     N     3.25755  3.25755  0.00000  0.48490
      13     H     0.37741  0.37741  0.00000  0.24519
      14     O     4.22434  4.22434  0.00000 -0.44868
      15     O     4.22276  4.22276  0.00000 -0.44553

   Total alpha = 36.00000, Total beta = 36.00000, Total charge = -0.00000
