  ==> Input File <==

--------------------------------------------------------------------------
set {
	reference rhf
	basis cc-pvtz
}

set_num_threads( 4 )
memory 2 gb

molecule MOL {
0 1

H	 1.323402	 -1.197186	 2.025694
O	 0.647336	 -0.639270	 1.688472
C	 1.135873	 0.113391	 0.608264
C	 0.027642	 1.012027	 0.090274
H	 1.463324	 -0.543914	 -0.193293
H	 1.994940	 0.703581	 0.915088
C	 -1.138737	 0.285728	 -0.581921
H	 0.464661	 1.708096	 -0.618252
H	 -0.340737	 1.603071	 0.925246
C	 -1.933983	 -0.631436	 0.343653
H	 -0.763151	 -0.285569	 -1.422081
H	 -1.808359	 1.035291	 -0.992333
H	 -2.789188	 -1.049673	 -0.174718
H	 -1.335629	 -1.461368	 0.700418
H	 -2.305435	 -0.092167	 1.209725

	symmetry c1
}
set optking {
	frozen_dihedral = ("
		2 3 4 8
	")
}

ee = optimize('scf')
oeprop('DIPOLE', 'QUADRUPOLE', 'MULLIKEN_CHARGES')
f=open( 'psi4out.xyz', 'w' )
f.write( "15  " )
f.write( str(ee) + "\n" )
f.write( MOL.save_string_xyz() )
f.close()
--------------------------------------------------------------------------

    Molecular point group: c1
  Charge       = 0
  Multiplicity = 1
  Basis Set: CC-PVTZ
  Basis Set:
  @DF-RHF Final Energy:  -232.23476289860389
    Total Energy =                       -232.2347628986036625
    Molecular point group: c1
  Basis Set: CC-PVTZ
  Basis Set:
  Basis Set: CC-PVTZ
  Basis Set:
  @DF-RHF Final Energy:  -232.23579762044122
    Total Energy =                       -232.2357976204413035
  Basis Set: CC-PVTZ
  Basis Set:
  Basis Set: CC-PVTZ
  Basis Set:
  @DF-RHF Final Energy:  -232.23605880105825
    Total Energy =                       -232.2360588010583342
  Basis Set: CC-PVTZ
  Basis Set:
  Basis Set: CC-PVTZ
  Basis Set:
  @DF-RHF Final Energy:  -232.23610611844884
    Total Energy =                       -232.2361061184488449
  Basis Set: CC-PVTZ
  Basis Set:
  Basis Set: CC-PVTZ
  Basis Set:
  @DF-RHF Final Energy:  -232.23611021386802
    Total Energy =                       -232.2361102138677893
  Basis Set: CC-PVTZ
  Basis Set:
  Charge       = 0
  Multiplicity = 1
  Basis Set: CC-PVTZ
  Basis Set:

    Orbital Energies (a.u.)
    -----------------------

    Doubly Occupied:

       1A    -20.547209     2A    -11.266972     3A    -11.212030
       4A    -11.209877     5A    -11.193550     6A     -1.365200
       7A     -1.063469     8A     -0.971923     9A     -0.862618
      10A     -0.779389    11A     -0.707399    12A     -0.647463
      13A     -0.604919    14A     -0.581124    15A     -0.551878
      16A     -0.539181    17A     -0.510194    18A     -0.470430
      19A     -0.468585    20A     -0.452234    21A     -0.430839

  @DF-RHF Final Energy:  -232.23611057321722

   => Energetics <=

    Nuclear Repulsion Energy =            192.3323328412441811
    One-Electron Energy =                -696.2639278989900049
    Two-Electron Energy =                 271.6954844845286630
    DFT Exchange-Correlation Energy =       0.0000000000000000
    Empirical Dispersion Energy =           0.0000000000000000
    PCM Polarization Energy =               0.0000000000000000
    EFP Energy =                            0.0000000000000000
    Total Energy =                       -232.2361105732171609
    Molecular point group: c1
  Basis Set: CC-PVTZ
  Basis Set:

  -Total Gradient:
     Atom            X                  Y                   Z
    ------   -----------------  -----------------  -----------------
       1        0.000000430246     0.000002786391     0.000007052756
       2       -0.000061582311    -0.000183848077    -0.000112723850
       3        0.000075106012     0.000178307622     0.000153745377
       4        0.000035588511     0.000137216793     0.000158372626
       5       -0.000009941131    -0.000004217516    -0.000005566845
       6       -0.000004726072     0.000011732380    -0.000026948864
       7        0.000003370639     0.000001786753    -0.000000910812
       8       -0.000036406725    -0.000139514407    -0.000188765761
       9       -0.000003854350    -0.000008770465    -0.000007057685
      10        0.000009946787    -0.000011070575     0.000012750411
      11        0.000006751723     0.000015926506     0.000016685058
      12        0.000008428040     0.000008036027    -0.000008574214
      13       -0.000004312642    -0.000004626787     0.000008858964
      14       -0.000019554647     0.000001806140    -0.000005061191
      15        0.000000755922    -0.000005550782    -0.000001855973

  **** Optimization is complete! (in 6 steps) ****
    Final optimized geometry and variables:
    Molecular point group: c1

    Geometry (in Angstrom), charge = 0, multiplicity = 1:

    H            1.734513659586    -1.197350492059     1.474710104847
    O            1.000654928274    -0.687816293169     1.184796151701
    C            1.387156600721     0.150626703434     0.126681964719
    C            0.215778775472     1.002586597152    -0.328823614766
    H            1.756657424185    -0.440214332264    -0.709428520344
    H            2.194273224638     0.804982267780     0.446662369798
    C           -0.922847649087     0.263656661296    -1.038936980023
    H            0.619535121613     1.743734224910    -1.013164879539
    H           -0.171332975534     1.546963329168     0.527379998613
    C           -1.835854138183    -0.565588017601    -0.138610773674
    H           -0.503332503492    -0.371434927203    -1.815311327711
    H           -1.527882329460     1.004209756235    -1.553528596973
    H           -2.647061884092    -0.994714346509    -0.716975225545
    H           -1.299601050054    -1.368026083460     0.345923131661
    H           -2.275375901423     0.051926039905     0.637883599420

  Mulliken Charges: (a.u.)
   Center  Symbol    Alpha    Beta     Spin     Total
       1     H     0.39623  0.39623  0.00000  0.20753
       2     O     4.19672  4.19672  0.00000 -0.39343
       3     C     2.97258  2.97258  0.00000  0.05485
       4     C     3.09530  3.09530  0.00000 -0.19060
       5     H     0.47434  0.47434  0.00000  0.05133
       6     H     0.46458  0.46458  0.00000  0.07083
       7     C     3.08712  3.08712  0.00000 -0.17424
       8     H     0.44944  0.44944  0.00000  0.10112
       9     H     0.45219  0.45219  0.00000  0.09562
      10     C     3.14391  3.14391  0.00000 -0.28781
      11     H     0.45826  0.45826  0.00000  0.08349
      12     H     0.45091  0.45091  0.00000  0.09819
      13     H     0.45337  0.45337  0.00000  0.09325
      14     H     0.44723  0.44723  0.00000  0.10554
      15     H     0.45784  0.45784  0.00000  0.08433

   Total alpha = 21.00000, Total beta = 21.00000, Total charge = -0.00000
