                              Psi4 1.0.54 Driver

  ==> Input File <==

--------------------------------------------------------------------------
set {
	reference rhf
	basis cc-pvtz
}

set_num_threads( 4 )
memory 2 gb

molecule MOL {
0 1

H	 -1.088256	 -1.364742	 0.152233
O	 -1.432053	 -0.565244	 -0.200812
C	 -0.727158	 0.534527	 0.310686
C	 0.680222	 0.664433	 -0.252229
H	 -1.306802	 1.408001	 0.044211
H	 -0.690821	 0.490158	 1.397609
C	 0.755311	 1.459078	 -1.552593
H	 1.311792	 1.128621	 0.498025
H	 1.068465	 -0.336801	 -0.417903
H	 0.431388	 2.484472	 -1.412005
H	 1.770835	 1.493753	 -1.928173
H	 0.134394	 1.012308	 -2.323188

	symmetry c1
}
set optking {
	frozen_dihedral = ("
		8 4 3 2
	")
}

ee,wfn = optimize('scf', return_wfn=True)
oeprop( wfn, 'DIPOLE', 'QUADRUPOLE', 'MULLIKEN_CHARGES')
f=open( 'psi4out.xyz', 'w' )
f.write( "12  " )
f.write( str(ee) + "\n" )
f.write( MOL.save_string_xyz() )
f.close()
--------------------------------------------------------------------------

    Molecular point group: c1
  Charge       = 0
  Multiplicity = 1
  Basis Set: CC-PVTZ
  Basis Set:
  @DF-RHF Final Energy:  -193.18789617412133
    Total Energy =                       -193.1878961741213629
    Molecular point group: c1
  Basis Set: CC-PVTZ
  Basis Set:
  Basis Set: CC-PVTZ
  Basis Set:
  @DF-RHF Final Energy:  -193.18827778553427
    Total Energy =                       -193.1882777855343534
  Basis Set: CC-PVTZ
  Basis Set:
  Basis Set: CC-PVTZ
  Basis Set:
  @DF-RHF Final Energy:  -193.18832701318203
    Total Energy =                       -193.1883270131821178
  Basis Set: CC-PVTZ
  Basis Set:
  Basis Set: CC-PVTZ
  Basis Set:
  @DF-RHF Final Energy:  -193.18833093476320
    Total Energy =                       -193.1883309347631439
  Basis Set: CC-PVTZ
  Basis Set:
  Charge       = 0
  Multiplicity = 1
  Basis Set: CC-PVTZ
  Basis Set:

    Orbital Energies (a.u.)
    -----------------------

    Doubly Occupied:

       1A    -20.545750     2A    -11.266087     3A    -11.218345
       4A    -11.208870     5A     -1.363987     6A     -1.050215
       7A     -0.920913     8A     -0.819023     9A     -0.683224
      10A     -0.632791    11A     -0.626517    12A     -0.570414
      13A     -0.532731    14A     -0.525421    15A     -0.484956
      16A     -0.468194    17A     -0.431015

  @DF-RHF Final Energy:  -193.18833121333103

   => Energetics <=

    Nuclear Repulsion Energy =            132.3169431327219172
    One-Electron Energy =                -524.3136470513977656
    Two-Electron Energy =                 198.8083727053448229
    DFT Exchange-Correlation Energy =       0.0000000000000000
    Empirical Dispersion Energy =           0.0000000000000000
    PCM Polarization Energy =               0.0000000000000000
    EFP Energy =                            0.0000000000000000
    Total Energy =                       -193.1883312133310255
    Molecular point group: c1
  Basis Set: CC-PVTZ
  Basis Set:

  -Total Gradient:
     Atom            X                  Y                   Z
    ------   -----------------  -----------------  -----------------
       1        0.000002997283    -0.000005001532     0.000003440478
       2        0.001395168131    -0.002337443706     0.002922958185
       3       -0.001619763954     0.002112975380    -0.003559896683
       4       -0.000948589430     0.004871988007    -0.001134020090
       5       -0.000005512481    -0.000012149978    -0.000007156700
       6       -0.000011167749    -0.000004545886    -0.000000258150
       7        0.000009191651    -0.000010062781     0.000009269446
       8        0.001186573482    -0.004595421821     0.001774249563
       9        0.000001342764    -0.000009783687    -0.000004382287
      10        0.000007360064    -0.000013926049     0.000007629075
      11       -0.000014425037     0.000015091509    -0.000001424492
      12       -0.000003174724    -0.000011719453    -0.000010408345

  **** Optimization is complete! (in 5 steps) ****
    Final optimized geometry and variables:
    Molecular point group: c1

    Geometry (in Angstrom), charge = 0, multiplicity = 1:

    H           -0.783465412966    -1.841806191223     0.455029482013
    O           -1.215286507799    -1.042611238962     0.215019145888
    C           -0.513500206278     0.050973389884     0.745526793950
    C            0.895909111843     0.191883852354     0.172668976723
    H           -1.107107621456     0.927611183981     0.522145067534
    H           -0.463596979910    -0.036097361807     1.827911399895
    C            0.953532683973     0.951929815571    -1.146217208714
    H            1.543852539070     0.643035948306     0.918038219382
    H            1.294629503229    -0.809803398827     0.027155761847
    H            0.630979694867     1.979551031228    -1.017178617015
    H            1.959669241455     0.968648945967    -1.548674293876
    H            0.305690188108     0.489731998202    -1.881924701604

  Mulliken Charges: (a.u.)
   Center  Symbol    Alpha    Beta     Spin     Total
       1     H     0.39464  0.39464  0.00000  0.21072
       2     O     4.20475  4.20475  0.00000 -0.40951
       3     C     2.96893  2.96893  0.00000  0.06213
       4     C     3.08321  3.08321  0.00000 -0.16641
       5     H     0.46081  0.46081  0.00000  0.07838
       6     H     0.46563  0.46563  0.00000  0.06874
       7     C     3.14980  3.14980  0.00000 -0.29960
       8     H     0.45466  0.45466  0.00000  0.09068
       9     H     0.46359  0.46359  0.00000  0.07282
      10     H     0.45570  0.45570  0.00000  0.08861
      11     H     0.45019  0.45019  0.00000  0.09962
      12     H     0.44808  0.44808  0.00000  0.10384

   Total alpha = 17.00000, Total beta = 17.00000, Total charge = -0.00000

*** Psi4 exiting successfully. Buy a developer a beer!
