  ==> Input File <==

--------------------------------------------------------------------------
set {
	reference rhf
	basis 6-31G*
}

set_num_threads( 1 )
memory 2 gb

molecule MOL {
0 1

O	 3.225979	 0.970355	 -0.599647
C	 2.701189	 0.057885	 -0.047330
C	 1.245376	 -0.013843	 0.345420
O	 3.347903	 -1.046386	 0.304773
C	 0.455112	 1.231400	 -0.050772
H	 0.838542	 -0.913825	 -0.103701
H	 1.208210	 -0.175333	 1.419774
C	 -0.998893	 1.219485	 0.433193
H	 0.482531	 1.345121	 -1.130325
H	 0.957290	 2.103070	 0.354729
C	 -1.883438	 0.145884	 -0.207175
H	 -1.431207	 2.195402	 0.224832
H	 -1.019646	 1.105716	 1.516076
C	 -3.347647	 0.245583	 0.225435
H	 -1.822183	 0.231698	 -1.291012
H	 -1.510341	 -0.844814	 0.042401
C	 -4.327122	 -0.282450	 -0.824300
H	 -3.586878	 1.283906	 0.448792
H	 -3.486903	 -0.304916	 1.154551
C	 -5.787360	 -0.175772	 -0.386091
H	 -4.188624	 0.265890	 -1.753700
H	 -4.092328	 -1.321507	 -1.045687
H	 -6.456823	 -0.557736	 -1.150636
H	 -6.063531	 0.856542	 -0.190507
H	 -5.966243	 -0.742606	 0.523290
C	 4.728119	 -1.109107	 -0.004993
H	 4.882018	 -1.033965	 -1.071845
H	 5.068212	 -2.067527	 0.355250
H	 5.265056	 -0.311663	 0.488280

	symmetry c1
}
set optking {
	frozen_dihedral = ("
		21 17 14 11,
		15 11 8 5,
		6 3 5 9,
		11 8 5 9,
		2 4 26 27,
		1 2 4 26,
		6 3 2 1
	")
}

ee = energy('scf')
oeprop('DIPOLE', 'QUADRUPOLE', 'MULLIKEN_CHARGES')
f=open( 'psi4out.xyz', 'w' )
f.write( "29  " )
f.write( str(ee) + "\n" )
f.write( MOL.save_string_xyz() )
f.close()
--------------------------------------------------------------------------

    Molecular point group: c1

    Geometry (in Angstrom), charge = 0, multiplicity = 1:

       Center              X                  Y                   Z               Mass
    ------------   -----------------  -----------------  -----------------  -----------------
           O          3.241876336623     0.870849727081    -0.522908302875    15.994914619560
           C          2.717086336623    -0.041620272919     0.029408697125    12.000000000000
           C          1.261273336623    -0.113348272919     0.422158697125    12.000000000000
           O          3.363800336623    -1.145891272919     0.381511697125    15.994914619560
           C          0.471009336623     1.131894727081     0.025966697125    12.000000000000
           H          0.854439336623    -1.013330272919    -0.026962302875     1.007825032070
           H          1.224107336623    -0.274838272919     1.496512697125     1.007825032070
           C         -0.982995663377     1.119979727081     0.509931697125    12.000000000000
           H          0.498428336623     1.245615727081    -1.053586302875     1.007825032070
           H          0.973187336623     2.003564727081     0.431467697125     1.007825032070
           C         -1.867540663377     0.046378727081    -0.130436302875    12.000000000000
           H         -1.415309663377     2.095896727081     0.301570697125     1.007825032070
           H         -1.003748663377     1.006210727081     1.592814697125     1.007825032070
           C         -3.331749663377     0.146077727081     0.302173697125    12.000000000000
           H         -1.806285663377     0.132192727081    -1.214273302875     1.007825032070
           H         -1.494443663377    -0.944319272919     0.119139697125     1.007825032070
           C         -4.311224663377    -0.381955272919    -0.747561302875    12.000000000000
           H         -3.570980663377     1.184400727081     0.525530697125     1.007825032070
           H         -3.471005663377    -0.404421272919     1.231289697125     1.007825032070
           C         -5.771462663377    -0.275277272919    -0.309352302875    12.000000000000
           H         -4.172726663377     0.166384727081    -1.676961302875     1.007825032070
           H         -4.076430663377    -1.421012272919    -0.968948302875     1.007825032070
           H         -6.440925663377    -0.657241272919    -1.073897302875     1.007825032070
           H         -6.047633663377     0.757036727081    -0.113768302875     1.007825032070
           H         -5.950345663377    -0.842111272919     0.600028697125     1.007825032070
           C          4.744016336623    -1.208612272919     0.071745697125    12.000000000000
           H          4.897915336623    -1.133470272919    -0.995106302875     1.007825032070
           H          5.084109336623    -2.167032272919     0.431988697125     1.007825032070
           H          5.280953336623    -0.411168272919     0.565018697125     1.007825032070

  Charge       = 0
  Multiplicity = 1
  Basis Set: 6-31G*
  Basis Set:

    Orbital Energies (a.u.)
    -----------------------

    Doubly Occupied:

       1A    -20.603325     2A    -20.545161     3A    -11.371957
       4A    -11.280638     5A    -11.234694     6A    -11.218915
       7A    -11.217758     8A    -11.215902     9A    -11.215243
      10A    -11.213667    11A    -11.208730    12A     -1.469030
      13A     -1.362472    14A     -1.098060    15A     -1.066677
      16A     -1.019297    17A     -0.977124    18A     -0.928451
      19A     -0.861487    20A     -0.799991    21A     -0.790177
      22A     -0.763798    23A     -0.700964    24A     -0.682277
      25A     -0.671955    26A     -0.649292    27A     -0.627804
      28A     -0.604543    29A     -0.597186    30A     -0.580274
      31A     -0.565573    32A     -0.551111    33A     -0.532119
      34A     -0.530207    35A     -0.517163    36A     -0.511331
      37A     -0.495778    38A     -0.476996    39A     -0.471163
      40A     -0.461330    41A     -0.456813    42A     -0.455602
      43A     -0.441150    44A     -0.435226

  @DF-RHF Final Energy:  -501.04152695924097

   => Energetics <=

    Nuclear Repulsion Energy =            610.0182463096763286
    One-Electron Energy =               -1891.1626333575793524
    Two-Electron Energy =                 780.1028600886623963
    DFT Exchange-Correlation Energy =       0.0000000000000000
    Empirical Dispersion Energy =           0.0000000000000000
    PCM Polarization Energy =               0.0000000000000000
    EFP Energy =                            0.0000000000000000
    Total Energy =                       -501.0415269592405139

  Mulliken Charges: (a.u.)
   Center  Symbol    Alpha    Beta     Spin     Total
       1     O     4.28597  4.28597  0.00000 -0.57194
       2     C     2.60486  2.60486  0.00000  0.79029
       3     C     3.20970  3.20970  0.00000 -0.41941
       4     O     4.30745  4.30745  0.00000 -0.61491
       5     C     3.15398  3.15398  0.00000 -0.30796
       6     H     0.39888  0.39888  0.00000  0.20225
       7     H     0.40125  0.40125  0.00000  0.19750
       8     C     3.15782  3.15782  0.00000 -0.31563
       9     H     0.41305  0.41305  0.00000  0.17390
      10     H     0.40883  0.40883  0.00000  0.18235
      11     C     3.15610  3.15610  0.00000 -0.31220
      12     H     0.41799  0.41799  0.00000  0.16401
      13     H     0.42367  0.42367  0.00000  0.15266
      14     C     3.15127  3.15127  0.00000 -0.30254
      15     H     0.42200  0.42200  0.00000  0.15601
      16     H     0.42206  0.42206  0.00000  0.15589
      17     C     3.15248  3.15248  0.00000 -0.30495
      18     H     0.42291  0.42291  0.00000  0.15418
      19     H     0.42262  0.42262  0.00000  0.15476
      20     C     3.23966  3.23966  0.00000 -0.47933
      21     H     0.42246  0.42246  0.00000  0.15507
      22     H     0.42315  0.42315  0.00000  0.15371
      23     H     0.41927  0.41927  0.00000  0.16147
      24     H     0.42154  0.42154  0.00000  0.15691
      25     H     0.42190  0.42190  0.00000  0.15621
      26     C     3.09240  3.09240  0.00000 -0.18479
      27     H     0.40909  0.40909  0.00000  0.18182
      28     H     0.40853  0.40853  0.00000  0.18294
      29     H     0.40913  0.40913  0.00000  0.18173

   Total alpha = 44.00000, Total beta = 44.00000, Total charge =  0.00000
