                              Psi4 1.0.54 Driver

  ==> Input File <==

--------------------------------------------------------------------------
set {
	reference rhf
	basis cc-pvtz
}

set_num_threads( 4 )
memory 2 gb

molecule MOL {
0 1

H	 -2.089017	 0.424344	 -2.348242
C	 -2.792845	 1.035597	 -1.766966
C	 -2.653809	 0.914422	 -0.273689
O	 -3.587069	 1.712297	 -2.322477
C	 -1.216901	 1.136108	 0.207794
H	 -3.342492	 1.606280	 0.193625
H	 -2.965986	 -0.094724	 -0.013931
C	 -0.247837	 0.040196	 -0.230469
H	 -0.872882	 2.093195	 -0.169002
H	 -1.209325	 1.218376	 1.291938
C	 1.181757	 0.280428	 0.247371
H	 -0.259600	 -0.030819	 -1.314870
H	 -0.591284	 -0.923375	 0.136958
C	 2.151032	 -0.811012	 -0.202643
H	 1.515939	 1.247397	 -0.115449
H	 1.191514	 0.341223	 1.333422
C	 3.580021	 -0.656538	 0.320835
H	 2.170545	 -0.847575	 -1.289412
H	 1.766632	 -1.772905	 0.124928
C	 4.327657	 0.562694	 -0.213579
H	 4.138806	 -1.549270	 0.057813
H	 3.561991	 -0.620783	 1.406976
H	 4.355973	 0.557257	 -1.298551
H	 3.867136	 1.491650	 0.100501
H	 5.351524	 0.571613	 0.142204

	symmetry c1
}
set optking {
	frozen_dihedral = ("
		6 3 5 8
	")
}

ee,wfn = optimize('scf', return_wfn=True)
oeprop( wfn, 'DIPOLE', 'QUADRUPOLE', 'MULLIKEN_CHARGES')
f=open( 'psi4out.xyz', 'w' )
f.write( "25  " )
f.write( str(ee) + "\n" )
f.write( MOL.save_string_xyz() )
f.close()
--------------------------------------------------------------------------

    Molecular point group: c1
  Charge       = 0
  Multiplicity = 1
  Basis Set: CC-PVTZ
  Basis Set:
  @DF-RHF Final Energy:  -387.25784233596602
    Total Energy =                       -387.2578423359663020
    Molecular point group: c1
  Basis Set: CC-PVTZ
  Basis Set:
  Basis Set: CC-PVTZ
  Basis Set:
  @DF-RHF Final Energy:  -387.25843794353091
    Total Energy =                       -387.2584379435312485
  Basis Set: CC-PVTZ
  Basis Set:
  Basis Set: CC-PVTZ
  Basis Set:
  @DF-RHF Final Energy:  -387.25792972641295
    Total Energy =                       -387.2579297264129536
  Basis Set: CC-PVTZ
  Basis Set:
  Basis Set: CC-PVTZ
  Basis Set:
  @DF-RHF Final Energy:  -387.25858606870901
    Total Energy =                       -387.2585860687090644
  Basis Set: CC-PVTZ
  Basis Set:
  @DF-RHF Final Energy:  -387.25861367323978
    Total Energy =                       -387.2586136732396653
  @DF-RHF Final Energy:  -387.25862942105414
    Total Energy =                       -387.2586294210539108
  Basis Set: CC-PVTZ
  Basis Set:
  @DF-RHF Final Energy:  -387.25864272840278
    Total Energy =                       -387.2586427284028332
  Basis Set: CC-PVTZ
  Basis Set:
  Basis Set: CC-PVTZ
  Basis Set:
  @DF-RHF Final Energy:  -387.25865609922704
    Total Energy =                       -387.2586560992269824
  Basis Set: CC-PVTZ
  Basis Set:
  Basis Set: CC-PVTZ
  Basis Set:
  @DF-RHF Final Energy:  -387.25865875771780
    Total Energy =                       -387.2586587577179671
  Basis Set: CC-PVTZ
  Basis Set:
  Charge       = 0
  Multiplicity = 1
  Basis Set: CC-PVTZ
  Basis Set:

    Orbital Energies (a.u.)
    -----------------------

    Doubly Occupied:

       1A    -20.550978     2A    -11.319652     3A    -11.233609
       4A    -11.232933     5A    -11.225374     6A    -11.219648
       7A    -11.218078     8A    -11.217418     9A    -11.209855
      10A     -1.405321    11A     -1.106087    12A     -1.071117
      13A     -1.015263    14A     -0.944478    15A     -0.877839
      16A     -0.827743    17A     -0.784552    18A     -0.779836
      19A     -0.680880    20A     -0.661070    21A     -0.634494
      22A     -0.620134    23A     -0.611780    24A     -0.583909
      25A     -0.574392    26A     -0.565282    27A     -0.538425
      28A     -0.520007    29A     -0.515549    30A     -0.503376
      31A     -0.485658    32A     -0.483152    33A     -0.467403
      34A     -0.461301    35A     -0.445610    36A     -0.409701

  @DF-RHF Final Energy:  -387.25865906296985

   => Energetics <=

    Nuclear Repulsion Energy =            437.7444866850834160
    One-Electron Energy =               -1392.0024781678205272
    Two-Electron Energy =                 566.9993324197675975
    DFT Exchange-Correlation Energy =       0.0000000000000000
    Empirical Dispersion Energy =           0.0000000000000000
    PCM Polarization Energy =               0.0000000000000000
    EFP Energy =                            0.0000000000000000
    Total Energy =                       -387.2586590629695138
    Molecular point group: c1
  Basis Set: CC-PVTZ
  Basis Set:

  -Total Gradient:
     Atom            X                  Y                   Z
    ------   -----------------  -----------------  -----------------
       1       -0.000000175096     0.000000384070     0.000002214353
       2       -0.000013531212     0.000009012994     0.000007721575
       3        0.000033567149     0.000215990539    -0.000233935497
       4        0.000002086245    -0.000002570933    -0.000004534024
       5        0.000047489501     0.000114320464    -0.000207757654
       6       -0.000032345357    -0.000212290744     0.000235535665
       7        0.000001898499    -0.000004121846     0.000005730730
       8       -0.000038730355    -0.000121143153     0.000191043216
       9       -0.000003336671    -0.000003846896    -0.000004822874
      10        0.000001238851     0.000000372206     0.000001137833
      11        0.000000160280    -0.000001985292     0.000002702519
      12       -0.000000529884     0.000002109838     0.000003165744
      13       -0.000000761289     0.000002680458     0.000001536673
      14       -0.000001547845     0.000002863058    -0.000000529654
      15        0.000001131586    -0.000001676998     0.000000899503
      16        0.000000205234     0.000000656474     0.000000935993
      17        0.000003766042    -0.000003951259    -0.000000999600
      18        0.000001363142    -0.000000794500     0.000000693005
      19       -0.000000135088     0.000001266638     0.000000257872
      20       -0.000000939143     0.000002888114    -0.000000402939
      21       -0.000001148011     0.000000415149     0.000000405272
      22       -0.000000310443    -0.000000525861    -0.000000975481
      23        0.000000902041    -0.000000232781     0.000000111533
      24        0.000000132238    -0.000000378973    -0.000000608041
      25       -0.000000450426     0.000000559233     0.000000474275

  **** Optimization is complete! (in 10 steps) ****
    Final optimized geometry and variables:
    Molecular point group: c1

    Geometry (in Angstrom), charge = 0, multiplicity = 1:

    H           -2.453902915003    -0.206138153703    -1.951114784608
    C           -2.969876527564     0.511617630762    -1.303679057967
    C           -2.769126078513     0.331656508426     0.177085122616
    O           -3.634216358805     1.364092637343    -1.785312695619
    C           -1.321751648441     0.580409103033     0.628747343145
    H           -3.441765792907     1.010591689673     0.683502922073
    H           -3.057375244648    -0.684992435913     0.433974044058
    C           -0.311311034454    -0.469067589638     0.167299056125
    H           -1.009266383249     1.564890945184     0.293255398493
    H           -1.318498880558     0.615531520948     1.713000711493
    C            1.092471040369    -0.216902944929     0.712167448282
    H           -0.266718176895    -0.496702679716    -0.917545674106
    H           -0.648817424840    -1.452884091606     0.484027016284
    C            2.106486588420    -1.262962676531     0.253190738250
    H            1.415279225372     0.773214990252     0.406763123122
    H            1.056980926653    -0.205679718787     1.799110537036
    C            3.508273246261    -1.100193878750     0.843473417240
    H            2.172394106711    -1.247264687151    -0.832352612494
    H            1.733524600535    -2.248268545576     0.519378137172
    C            4.245264051217     0.161030023262     0.399468716714
    H            4.100190879252    -1.965683176691     0.562403678420
    H            3.444308084890    -1.117452239049     1.928281394009
    H            4.317839223084     0.209134648444    -0.682361837468
    H            3.748729005244     1.062368482476     0.737957969232
    H            5.253187361141     0.176717927692     0.797847312008

  Mulliken Charges: (a.u.)
   Center  Symbol    Alpha    Beta     Spin     Total
       1     H     0.46231  0.46231  0.00000  0.07538
       2     C     2.90339  2.90339  0.00000  0.19321
       3     C     3.08886  3.08886  0.00000 -0.17772
       4     O     4.16676  4.16676  0.00000 -0.33353
       5     C     3.10868  3.10868  0.00000 -0.21736
       6     H     0.43718  0.43718  0.00000  0.12564
       7     H     0.45051  0.45051  0.00000  0.09898
       8     C     3.09583  3.09583  0.00000 -0.19167
       9     H     0.44451  0.44451  0.00000  0.11097
      10     H     0.44489  0.44489  0.00000  0.11022
      11     C     3.09183  3.09183  0.00000 -0.18366
      12     H     0.45188  0.45188  0.00000  0.09624
      13     H     0.45230  0.45230  0.00000  0.09540
      14     C     3.09550  3.09550  0.00000 -0.19101
      15     H     0.45033  0.45033  0.00000  0.09934
      16     H     0.45307  0.45307  0.00000  0.09386
      17     C     3.09069  3.09069  0.00000 -0.18137
      18     H     0.45330  0.45330  0.00000  0.09339
      19     H     0.44942  0.44942  0.00000  0.10116
      20     C     3.15259  3.15259  0.00000 -0.30519
      21     H     0.44783  0.44783  0.00000  0.10434
      22     H     0.45444  0.45444  0.00000  0.09111
      23     H     0.45440  0.45440  0.00000  0.09120
      24     H     0.45372  0.45372  0.00000  0.09256
      25     H     0.44575  0.44575  0.00000  0.10850

   Total alpha = 36.00000, Total beta = 36.00000, Total charge =  0.00000

*** Psi4 exiting successfully. Buy a developer a beer!
