  ==> Input File <==

--------------------------------------------------------------------------
set {
	reference rhf
	basis 6-31G*
}

set_num_threads( 1 )
memory 2 gb

molecule MOL {
0 1

H	 -3.420663	 1.227371	 -1.044276
O	 -3.452007	 0.283848	 -0.965577
C	 -3.181085	 -0.079926	 0.364119
C	 -1.765924	 0.277073	 0.805136
H	 -3.327791	 -1.152017	 0.410903
H	 -3.905698	 0.375695	 1.036898
C	 -1.713137	 1.036939	 2.131158
H	 -1.177017	 -0.637395	 0.881936
H	 -1.302072	 0.870791	 0.019285
C	 -0.287521	 1.370407	 2.575676
H	 -2.208469	 0.449882	 2.898439
H	 -2.285648	 1.957981	 2.034689
C	 -0.243064	 2.136151	 3.900721
H	 0.281381	 0.447608	 2.660597
H	 0.203496	 1.961824	 1.803839
C	 1.158678	 2.570815	 4.343827
H	 -0.693533	 1.527379	 4.683134
H	 -0.866799	 3.023119	 3.810946
C	 2.102438	 1.417511	 4.689675
H	 1.060315	 3.213317	 5.215496
H	 1.607979	 3.183967	 3.565126
H	 1.673398	 0.779467	 5.457765
H	 3.049327	 1.793553	 5.064948
H	 2.318906	 0.796602	 3.826670

	symmetry c1
}
set optking {
	frozen_dihedral = ("
		20 16 13 17,
		17 13 10 7,
		13 10 7 11,
		11 7 4 3,
		1 2 3 5
	")
}

ee = energy('scf')
oeprop('DIPOLE', 'QUADRUPOLE', 'MULLIKEN_CHARGES')
f=open( 'psi4out.xyz', 'w' )
f.write( "24  " )
f.write( str(ee) + "\n" )
f.write( MOL.save_string_xyz() )
f.close()
--------------------------------------------------------------------------

    Molecular point group: c1

    Geometry (in Angstrom), charge = 0, multiplicity = 1:

       Center              X                  Y                   Z               Mass
    ------------   -----------------  -----------------  -----------------  -----------------
           H         -2.461025690471     0.114196130903    -3.222512065609     1.007825032070
           O         -2.492369690471    -0.829326869097    -3.143813065609    15.994914619560
           C         -2.221447690471    -1.193100869097    -1.814117065609    12.000000000000
           C         -0.806286690471    -0.836101869097    -1.373100065609    12.000000000000
           H         -2.368153690471    -2.265191869097    -1.767333065609     1.007825032070
           H         -2.946060690471    -0.737479869097    -1.141338065609     1.007825032070
           C         -0.753499690471    -0.076235869097    -0.047078065609    12.000000000000
           H         -0.217379690471    -1.750569869097    -1.296300065609     1.007825032070
           H         -0.342434690471    -0.242383869097    -2.158951065609     1.007825032070
           C          0.672116309529     0.257232130903     0.397439934391    12.000000000000
           H         -1.248831690471    -0.663292869097     0.720202934391     1.007825032070
           H         -1.326010690471     0.844806130903    -0.143547065609     1.007825032070
           C          0.716573309529     1.022976130903     1.722484934391    12.000000000000
           H          1.241018309529    -0.665566869097     0.482360934391     1.007825032070
           H          1.163133309529     0.848649130903    -0.374397065609     1.007825032070
           C          2.118315309529     1.457640130903     2.165590934391    12.000000000000
           H          0.266104309529     0.414204130903     2.504897934391     1.007825032070
           H          0.092838309529     1.909944130903     1.632709934391     1.007825032070
           C          3.062075309529     0.304336130903     2.511438934391    12.000000000000
           H          2.019952309529     2.100142130903     3.037259934391     1.007825032070
           H          2.567616309529     2.070792130903     1.386889934391     1.007825032070
           H          2.633035309529    -0.333707869097     3.279528934391     1.007825032070
           H          4.008964309529     0.680378130903     2.886711934391     1.007825032070
           H          3.278543309529    -0.316572869097     1.648433934391     1.007825032070

  Charge       = 0
  Multiplicity = 1
  Basis Set: 6-31G*
  Basis Set:

    Orbital Energies (a.u.)
    -----------------------

    Doubly Occupied:

       1A    -20.550990     2A    -11.265643     3A    -11.219915
       4A    -11.216934     5A    -11.216548     6A    -11.215474
       7A    -11.214783     8A    -11.209447     9A     -1.357948
      10A     -1.093196    11A     -1.051610    12A     -0.986851
      13A     -0.915737    14A     -0.851563    15A     -0.804358
      16A     -0.780059    17A     -0.687451    18A     -0.657528
      19A     -0.623582    20A     -0.614154    21A     -0.598427
      22A     -0.585413    23A     -0.557429    24A     -0.540354
      25A     -0.531784    26A     -0.508152    27A     -0.492058
      28A     -0.484592    29A     -0.474783    30A     -0.462563
      31A     -0.456820    32A     -0.442752    33A     -0.421906

  @DF-RHF Final Energy:  -349.24112652476919

   => Energetics <=

    Nuclear Repulsion Energy =            380.7162611974928836
    One-Electron Energy =               -1227.7331304979707056
    Two-Electron Energy =                 497.7757427757093183
    DFT Exchange-Correlation Energy =       0.0000000000000000
    Empirical Dispersion Energy =           0.0000000000000000
    PCM Polarization Energy =               0.0000000000000000
    EFP Energy =                            0.0000000000000000
    Total Energy =                       -349.2411265247684469

  Mulliken Charges: (a.u.)
   Center  Symbol    Alpha    Beta     Spin     Total
       1     H     0.28405  0.28405  0.00000  0.43190
       2     O     4.37052  4.37052  0.00000 -0.74103
       3     C     2.99359  2.99359  0.00000  0.01281
       4     C     3.17301  3.17301  0.00000 -0.34602
       5     H     0.41453  0.41453  0.00000  0.17094
       6     H     0.42855  0.42855  0.00000  0.14289
       7     C     3.15867  3.15867  0.00000 -0.31734
       8     H     0.41726  0.41726  0.00000  0.16549
       9     H     0.41695  0.41695  0.00000  0.16611
      10     C     3.15386  3.15386  0.00000 -0.30773
      11     H     0.42138  0.42138  0.00000  0.15723
      12     H     0.42541  0.42541  0.00000  0.14917
      13     C     3.15244  3.15244  0.00000 -0.30487
      14     H     0.42035  0.42035  0.00000  0.15930
      15     H     0.42362  0.42362  0.00000  0.15275
      16     C     3.15240  3.15240  0.00000 -0.30479
      17     H     0.42407  0.42407  0.00000  0.15187
      18     H     0.42278  0.42278  0.00000  0.15445
      19     C     3.24132  3.24132  0.00000 -0.48263
      20     H     0.42082  0.42082  0.00000  0.15836
      21     H     0.42333  0.42333  0.00000  0.15334
      22     H     0.42223  0.42223  0.00000  0.15554
      23     H     0.41896  0.41896  0.00000  0.16207
      24     H     0.41990  0.41990  0.00000  0.16020

   Total alpha = 33.00000, Total beta = 33.00000, Total charge =  0.00000
