  ==> Input File <==

--------------------------------------------------------------------------
set {
	reference rhf
	basis 6-31G*
}

set_num_threads( 4 )
memory 2 gb

molecule MOL {
0 1

H	 -2.798360	 -0.862255	 -0.071053
N	 -1.863561	 -0.715187	 0.256814
C	 -1.344686	 0.554728	 -0.219830
H	 -1.300452	 -1.461917	 -0.101532
C	 0.081427	 0.741154	 0.254071
H	 -1.362155	 0.656231	 -1.305829
H	 -1.952773	 1.354456	 0.191809
O	 0.481787	 -0.427600	 0.910433
H	 0.737336	 0.937804	 -0.593720
H	 0.133667	 1.590900	 0.931152
C	 1.752340	 -0.362530	 1.475263
H	 1.950029	 -1.314612	 1.948715
H	 2.514850	 -0.180783	 0.719930
H	 1.814512	 0.423903	 2.224575

	symmetry c1
}
set optking {
	frozen_dihedral = ("
		8 5 3 6
	")
}

ee = optimize('scf')
oeprop('DIPOLE', 'QUADRUPOLE', 'MULLIKEN_CHARGES')
f=open( 'psi4out.xyz', 'w' )
f.write( "14  " )
f.write( str(ee) + "\n" )
f.write( MOL.save_string_xyz() )
f.close()
--------------------------------------------------------------------------

    Molecular point group: c1
  Charge       = 0
  Multiplicity = 1
  Basis Set: 6-31G*
  Basis Set:
  @DF-RHF Final Energy:  -248.10859005462638
    Total Energy =                       -248.1085900546261200
    Molecular point group: c1
  Basis Set: 6-31G*
  Basis Set:
  Basis Set: 6-31G*
  Basis Set:
  @DF-RHF Final Energy:  -248.10923419042740
    Total Energy =                       -248.1092341904272871
  Basis Set: 6-31G*
  Basis Set:
  Basis Set: 6-31G*
  Basis Set:
  @DF-RHF Final Energy:  -248.11165701129383
    Total Energy =                       -248.1116570112938007
  Basis Set: 6-31G*
  Basis Set:
  Basis Set: 6-31G*
  Basis Set:
  @DF-RHF Final Energy:  -248.11192416244322
    Total Energy =                       -248.1119241624433016
  Basis Set: 6-31G*
  Basis Set:
  Basis Set: 6-31G*
  Basis Set:
  @DF-RHF Final Energy:  -248.11200674306812
    Total Energy =                       -248.1120067430681502
  Basis Set: 6-31G*
  Basis Set:
  Basis Set: 6-31G*
  Basis Set:
  @DF-RHF Final Energy:  -248.11202226698393
    Total Energy =                       -248.1120222669837858
  Basis Set: 6-31G*
  Basis Set:
  Charge       = 0
  Multiplicity = 1
  Basis Set: 6-31G*
  Basis Set:

    Orbital Energies (a.u.)
    -----------------------

    Doubly Occupied:

       1A    -20.557066     2A    -15.523790     3A    -11.270742
       4A    -11.266455     5A    -11.242785     6A     -1.382783
       7A     -1.168360     8A     -0.994594     9A     -0.910164
      10A     -0.814802    11A     -0.681878    12A     -0.675473
      13A     -0.647403    14A     -0.605926    15A     -0.596611
      16A     -0.559805    17A     -0.519516    18A     -0.494286
      19A     -0.470776    20A     -0.420337    21A     -0.367039

  @DF-RHF Final Energy:  -248.11202307280897

   => Energetics <=

    Nuclear Repulsion Energy =            194.7444093742189750
    One-Electron Energy =                -723.3716838213285882
    Two-Electron Energy =                 280.5152513743006466
    DFT Exchange-Correlation Energy =       0.0000000000000000
    Empirical Dispersion Energy =           0.0000000000000000
    PCM Polarization Energy =               0.0000000000000000
    EFP Energy =                            0.0000000000000000
    Total Energy =                       -248.1120230728089382
    Molecular point group: c1
  Basis Set: 6-31G*
  Basis Set:

  -Total Gradient:
     Atom            X                  Y                   Z
    ------   -----------------  -----------------  -----------------
       1        0.000017091109     0.000013686408     0.000022056588
       2        0.000028338656     0.000054671230    -0.000057537540
       3        0.000393733141    -0.004969462483     0.000388134185
       4       -0.000002931190    -0.000000923810     0.000010024849
       5        0.001514244686    -0.000665340750    -0.003831363999
       6       -0.000708232473     0.004315174904     0.000490384367
       7        0.000005276901     0.000008702175    -0.000016491200
       8       -0.001245819288     0.001242279427     0.003006332778
       9        0.000000239172    -0.000003798567     0.000005994475
      10        0.000010112503     0.000007530959    -0.000000751636
      11       -0.000018741735    -0.000012542519    -0.000025858095
      12        0.000003442582     0.000002685015     0.000004678657
      13        0.000008172774     0.000004608451     0.000006487456
      14       -0.000004926839     0.000002729559    -0.000002090887

  **** Optimization is complete! (in 7 steps) ****
    Final optimized geometry and variables:
    Molecular point group: c1

    Geometry (in Angstrom), charge = 0, multiplicity = 1:

    H           -2.639847937885    -0.803283657755    -0.840519298568
    N           -1.801842281596    -0.628988708023    -0.322010395911
    C           -1.184758744104     0.605440367134    -0.766653112722
    H           -1.185198322056    -1.404700414023    -0.451022527609
    C            0.258414054415     0.776769450085    -0.238979659925
    H           -1.173350877434     0.733915014420    -1.850685064561
    H           -1.785722005822     1.427034653594    -0.390005913402
    O            0.692561060584    -0.379223546074     0.409558335062
    H            0.930224595655     1.009980582703    -1.063671788291
    H            0.302819383736     1.614642666876     0.454121709318
    C            1.984656503885    -0.289463229456     0.916673702038
    H            2.212397447569    -1.230369924282     1.398331622439
    H            2.713172476543    -0.111182317019     0.127277213266
    H            2.068348952282     0.510759276346     1.649531705255

  Mulliken Charges: (a.u.)
   Center  Symbol    Alpha    Beta     Spin     Total
       1     H     0.33455  0.33455  0.00000  0.33089
       2     N     3.91774  3.91774  0.00000 -0.83548
       3     C     3.07327  3.07327  0.00000 -0.14653
       4     H     0.32287  0.32287  0.00000  0.35425
       5     C     2.98913  2.98913  0.00000  0.02175
       6     H     0.43247  0.43247  0.00000  0.13505
       7     H     0.41776  0.41776  0.00000  0.16447
       8     O     4.30463  4.30463  0.00000 -0.60926
       9     H     0.43072  0.43072  0.00000  0.13856
      10     H     0.42713  0.42713  0.00000  0.14575
      11     C     3.07947  3.07947  0.00000 -0.15894
      12     H     0.41110  0.41110  0.00000  0.17780
      13     H     0.43083  0.43083  0.00000  0.13834
      14     H     0.42832  0.42832  0.00000  0.14335

   Total alpha = 21.00000, Total beta = 21.00000, Total charge = -0.00000
