  ==> Input File <==

--------------------------------------------------------------------------
set {
	reference rhf
	basis 6-31G*
}

set_num_threads( 4 )
memory 2 gb

molecule MOL {
0 1

O	 0.625848	 1.349995	 -0.000749
C	 0.486307	 0.169203	 0.000779
C	 1.608116	 -0.841643	 0.000302
O	 -0.698257	 -0.426125	 0.001050
C	 2.990107	 -0.200498	 -0.000684
H	 1.468623	 -1.481519	 -0.865924
H	 1.469683	 -1.481289	 0.866878
H	 3.129736	 0.423364	 -0.875135
H	 3.757882	 -0.966877	 -0.001197
H	 3.130964	 0.423383	 0.873533
C	 -0.795150	 -1.698589	 -0.630494
C	 -2.229623	 -2.163905	 -0.496037
H	 -0.106684	 -2.382430	 -0.153044
H	 -0.501889	 -1.601119	 -1.666877
H	 -2.509550	 -2.251241	 0.547597
H	 -2.348648	 -3.134793	 -0.965991
H	 -2.907010	 -1.465743	 -0.974549

	symmetry c1
}
set optking {
	frozen_dihedral = ("
		11 4 2 3
	")
}

ee = optimize('scf')
oeprop('DIPOLE', 'QUADRUPOLE', 'MULLIKEN_CHARGES')
f=open( 'psi4out.xyz', 'w' )
f.write( "17  " )
f.write( str(ee) + "\n" )
f.write( MOL.save_string_xyz() )
f.close()
--------------------------------------------------------------------------

    Molecular point group: c1
  Charge       = 0
  Multiplicity = 1
  Basis Set: 6-31G*
  Basis Set:
  @DF-RHF Final Energy:  -344.88661244436901
    Total Energy =                       -344.8866124443687795
    Molecular point group: c1
  Basis Set: 6-31G*
  Basis Set:
  Basis Set: 6-31G*
  Basis Set:
  @DF-RHF Final Energy:  -344.88719872107072
    Total Energy =                       -344.8871987210708880
  Basis Set: 6-31G*
  Basis Set:
  Basis Set: 6-31G*
  Basis Set:
  @DF-RHF Final Energy:  -344.89366778287916
    Total Energy =                       -344.8936677828792199
  Basis Set: 6-31G*
  Basis Set:
  Basis Set: 6-31G*
  Basis Set:
  @DF-RHF Final Energy:  -344.89557148579377
    Total Energy =                       -344.8955714857938801
  Basis Set: 6-31G*
  Basis Set:
  @DF-RHF Final Energy:  -344.89520625496004
    Total Energy =                       -344.8952062549602715
  @DF-RHF Final Energy:  -344.89544371082457
    Total Energy =                       -344.8954437108243951
  Basis Set: 6-31G*
  Basis Set:
  @DF-RHF Final Energy:  -344.89593919487862
    Total Energy =                       -344.8959391948785651
  Basis Set: 6-31G*
  Basis Set:
  Basis Set: 6-31G*
  Basis Set:
  @DF-RHF Final Energy:  -344.89594190511042
    Total Energy =                       -344.8959419051102486
  Basis Set: 6-31G*
  Basis Set:
  Basis Set: 6-31G*
  Basis Set:
  @DF-RHF Final Energy:  -344.89595593277119
    Total Energy =                       -344.8959559327710735
  Basis Set: 6-31G*
  Basis Set:
  Charge       = 0
  Multiplicity = 1
  Basis Set: 6-31G*
  Basis Set:

    Orbital Energies (a.u.)
    -----------------------

    Doubly Occupied:

       1A    -20.596222     2A    -20.541783     3A    -11.372809
       4A    -11.299826     5A    -11.246624     6A    -11.227310
       7A    -11.219747     8A     -1.460507     9A     -1.364761
      10A     -1.063592    11A     -1.046024    12A     -0.901131
      13A     -0.879879    14A     -0.770960    15A     -0.704593
      16A     -0.693837    17A     -0.654758    18A     -0.635760
      19A     -0.594074    20A     -0.570083    21A     -0.560511
      22A     -0.538233    23A     -0.525945    24A     -0.519669
      25A     -0.508978    26A     -0.493698    27A     -0.445958
      28A     -0.431063

  @DF-RHF Final Energy:  -344.89595607548767

   => Energetics <=

    Nuclear Repulsion Energy =            315.1823960080548659
    One-Electron Energy =               -1094.4200317722820728
    Two-Electron Energy =                 434.3416796887396458
    DFT Exchange-Correlation Energy =       0.0000000000000000
    Empirical Dispersion Energy =           0.0000000000000000
    PCM Polarization Energy =               0.0000000000000000
    EFP Energy =                            0.0000000000000000
    Total Energy =                       -344.8959560754875611
    Molecular point group: c1
  Basis Set: 6-31G*
  Basis Set:

  -Total Gradient:
     Atom            X                  Y                   Z
    ------   -----------------  -----------------  -----------------
       1        0.000008478206     0.000016001631     0.000003315181
       2       -0.000403786569     0.000548953980    -0.004168072984
       3        0.000039796065    -0.000006859078     0.002047113590
       4        0.000902265718    -0.001574150563     0.004090382136
       5       -0.000001366929     0.000005826022    -0.000015568072
       6       -0.000005689345     0.000003211926    -0.000014209537
       7        0.000007394853    -0.000000631931    -0.000009959843
       8        0.000001868322     0.000002244998     0.000001662499
       9       -0.000003799451    -0.000002120212     0.000001688530
      10       -0.000003280456    -0.000002096842     0.000003529282
      11       -0.000542084070     0.001012611278    -0.001928941692
      12        0.000001967329    -0.000000168811    -0.000004247297
      13       -0.000002726197    -0.000001973315    -0.000002169128
      14       -0.000000784635    -0.000001690806    -0.000002997566
      15        0.000003441848     0.000000165455    -0.000000705075
      16        0.000000389326     0.000000178452    -0.000000688763
      17       -0.000002084014     0.000000497815    -0.000000131259

  **** Optimization is complete! (in 10 steps) ****
    Final optimized geometry and variables:
    Molecular point group: c1

    Geometry (in Angstrom), charge = 0, multiplicity = 1:

    O            0.317535372080     1.815346419702     0.200052640992
    C            0.256282136104     0.635506248858     0.127760942254
    C            1.480228809848    -0.259830908889     0.102768917851
    O           -0.939790580850     0.037122283431     0.152062741300
    C            2.780954888295     0.528139910854     0.206116995184
    H            1.471229967276    -0.854337196808    -0.806394592215
    H            1.389098163912    -0.965379567074     0.924291213730
    H            2.880688973354     1.221951383815    -0.619004158595
    H            3.628044615252    -0.149403075786     0.190801432962
    H            2.815564925629     1.101675827282     1.123602892020
    C           -1.170763962579    -1.228414560177    -0.440431292445
    C           -2.655899418661    -1.507600022962    -0.337330072123
    H           -0.603030154964    -1.995833821771     0.072755350006
    H           -0.857290226431    -1.209026872155    -1.478426844101
    H           -2.966533648037    -1.521596474937     0.700678893679
    H           -2.885755977517    -2.470764002249    -0.781460390910
    H           -3.221641378040    -0.741625258198    -0.853578413879

  Mulliken Charges: (a.u.)
   Center  Symbol    Alpha    Beta     Spin     Total
       1     O     4.26455  4.26455  0.00000 -0.52910
       2     C     2.60254  2.60254  0.00000  0.79492
       3     C     3.22839  3.22839  0.00000 -0.45677
       4     O     4.30940  4.30940  0.00000 -0.61880
       5     C     3.23488  3.23488  0.00000 -0.46975
       6     H     0.40532  0.40532  0.00000  0.18936
       7     H     0.40171  0.40171  0.00000  0.19657
       8     H     0.40790  0.40790  0.00000  0.18419
       9     H     0.41919  0.41919  0.00000  0.16162
      10     H     0.40715  0.40715  0.00000  0.18569
      11     C     3.00456  3.00456  0.00000 -0.00911
      12     C     3.24507  3.24507  0.00000 -0.49014
      13     H     0.41939  0.41939  0.00000  0.16122
      14     H     0.41775  0.41775  0.00000  0.16450
      15     H     0.40821  0.40821  0.00000  0.18357
      16     H     0.41793  0.41793  0.00000  0.16414
      17     H     0.40606  0.40606  0.00000  0.18788

   Total alpha = 28.00000, Total beta = 28.00000, Total charge = -0.00000
