  ==> Input File <==

--------------------------------------------------------------------------
set {
	reference rhf
	basis 6-31G*
}

set_num_threads( 4 )
memory 2 gb

molecule MOL {
0 1

H	 -2.390318	 -1.181557	 -1.997792
C	 -1.879165	 -0.736957	 -1.164467
C	 -2.581434	 -0.083377	 -0.166169
C	 -0.505578	 -0.812199	 -1.077599
H	 -3.653198	 -0.014047	 -0.215735
C	 -1.910395	 0.484267	 0.900703
H	 0.066292	 -1.310296	 -1.832344
C	 0.154804	 -0.237046	 -0.000077
H	 -2.473403	 0.986888	 1.665222
C	 -0.523606	 0.430375	 1.025271
N	 1.611208	 -0.370857	 -0.000034
C	 0.105883	 1.085837	 2.234835
O	 2.274126	 0.622059	 -0.008063
O	 2.068510	 -1.474748	 0.007823
H	 0.794660	 1.868870	 1.949222
H	 -0.673844	 1.516600	 2.850339
H	 0.662509	 0.373735	 2.828300

	symmetry c1
}
set optking {
	frozen_dihedral = ("
		4 8 11 13
	")
}

ee = optimize('scf')
oeprop('DIPOLE', 'QUADRUPOLE', 'MULLIKEN_CHARGES')
f=open( 'psi4out.xyz', 'w' )
f.write( "17  " )
f.write( str(ee) + "\n" )
f.write( MOL.save_string_xyz() )
f.close()
--------------------------------------------------------------------------

    Molecular point group: c1
  Charge       = 0
  Multiplicity = 1
  Basis Set: 6-31G*
  Basis Set:
  @DF-RHF Final Energy:  -473.20163232415842
    Total Energy =                       -473.2016323241582541
    Molecular point group: c1
  Basis Set: 6-31G*
  Basis Set:
  Basis Set: 6-31G*
  Basis Set:
  @DF-RHF Final Energy:  -473.19680308400808
    Total Energy =                       -473.1968030840079109
  Basis Set: 6-31G*
  Basis Set:
  Basis Set: 6-31G*
  Basis Set:
  @DF-RHF Final Energy:  -473.20231179129257
    Total Energy =                       -473.2023117912923453
  Basis Set: 6-31G*
  Basis Set:
  Basis Set: 6-31G*
  Basis Set:
  @DF-RHF Final Energy:  -473.20357907017029
    Total Energy =                       -473.2035790701709175
  Basis Set: 6-31G*
  Basis Set:
  @DF-RHF Final Energy:  -473.20368199902310
    Total Energy =                       -473.2036819990228196
  @DF-RHF Final Energy:  -473.20375156520765
    Total Energy =                       -473.2037515652078810
  @DF-RHF Final Energy:  -473.20379685896819
    Total Energy =                       -473.2037968589681896
  @DF-RHF Final Energy:  -473.20381772769872
    Total Energy =                       -473.2038177276983788
  @DF-RHF Final Energy:  -473.20382012315235
    Total Energy =                       -473.2038201231525818
  @DF-RHF Final Energy:  -473.20254849510241
    Total Energy =                       -473.2025484951024055
  @DF-RHF Final Energy:  -473.18302061054118
    Total Energy =                       -473.1830206105411207
  @DF-RHF Final Energy:  -473.20077159000283
    Total Energy =                       -473.2007715900025460
  @DF-RHF Final Energy:  -473.20325165784999
    Total Energy =                       -473.2032516578494779
  @DF-RHF Final Energy:  -473.20362862397059
    Total Energy =                       -473.2036286239708716
  Basis Set: 6-31G*
  Basis Set:
  @DF-RHF Final Energy:  -473.20378760262986
    Total Energy =                       -473.2037876026298591
  Basis Set: 6-31G*
  Basis Set:
  Basis Set: 6-31G*
  Basis Set:
  @DF-RHF Final Energy:  -473.20381188019610
    Total Energy =                       -473.2038118801963265
  Basis Set: 6-31G*
  Basis Set:
  Basis Set: 6-31G*
  Basis Set:
  @DF-RHF Final Energy:  -473.20381907215346
    Total Energy =                       -473.2038190721532374
  Basis Set: 6-31G*
  Basis Set:
  Charge       = 0
  Multiplicity = 1
  Basis Set: 6-31G*
  Basis Set:

    Orbital Energies (a.u.)
    -----------------------

    Doubly Occupied:

       1A    -20.603964     2A    -20.603654     3A    -15.852944
       4A    -11.301448     5A    -11.277961     6A    -11.267536
       7A    -11.260120     8A    -11.255708     9A    -11.254772
      10A    -11.238486    11A     -1.635086    12A     -1.418580
      13A     -1.201867    14A     -1.092114    15A     -1.072838
      16A     -0.979469    17A     -0.934716    18A     -0.852212
      19A     -0.820259    20A     -0.771401    21A     -0.733600
      22A     -0.728608    23A     -0.695320    24A     -0.654963
      25A     -0.636706    26A     -0.599778    27A     -0.597103
      28A     -0.568914    29A     -0.541670    30A     -0.525711
      31A     -0.520659    32A     -0.490889    33A     -0.479802
      34A     -0.449413    35A     -0.365165    36A     -0.353541

  @DF-RHF Final Energy:  -473.20381981748295

   => Energetics <=

    Nuclear Repulsion Energy =            509.8921280066456916
    One-Electron Energy =               -1654.9179355813978418
    Two-Electron Energy =                 671.8219877572694259
    DFT Exchange-Correlation Energy =       0.0000000000000000
    Empirical Dispersion Energy =           0.0000000000000000
    PCM Polarization Energy =               0.0000000000000000
    EFP Energy =                            0.0000000000000000
    Total Energy =                       -473.2038198174827812
    Molecular point group: c1
  Basis Set: 6-31G*
  Basis Set:

  -Total Gradient:
     Atom            X                  Y                   Z
    ------   -----------------  -----------------  -----------------
       1        0.000002835269    -0.000004854638    -0.000001351387
       2       -0.000032705054     0.000049808133    -0.000020562126
       3       -0.000007090328    -0.000042192284    -0.000017077889
       4        0.000268361709     0.003009277421    -0.001729125334
       5        0.000002653494     0.000002665865     0.000002525020
       6        0.000034652484     0.000007744998     0.000012110495
       7       -0.000014018163    -0.000019285359     0.000013588560
       8       -0.000322596066    -0.004200129468     0.000689700472
       9       -0.000003366949     0.000005427016     0.000001306136
      10       -0.000029483182    -0.000062386217     0.000124092421
      11       -0.000006417085     0.001282381933     0.005113173597
      12        0.000024275359    -0.000017083248     0.000015563103
      13        0.000111601237     0.000006088313    -0.004217473711
      14       -0.000005675793    -0.000019355549     0.000013857093
      15       -0.000004276572    -0.000008927996    -0.000000560922
      16       -0.000007852064     0.000004939094     0.000002060917
      17       -0.000010898299     0.000005881984    -0.000001826444

  **** Optimization is complete! (in 18 steps) ****
    Final optimized geometry and variables:
    Molecular point group: c1

    Geometry (in Angstrom), charge = 0, multiplicity = 1:

    H           -2.354534662797    -1.056478575387    -2.228993329334
    C           -1.850367279800    -0.622173232393    -1.385883888966
    C           -2.561703250668     0.049660444413    -0.406241362880
    C           -0.477905140430    -0.737104000628    -1.266685119407
    H           -3.630297649638     0.137120401097    -0.483149851336
    C           -1.907001082240     0.610416532857     0.677954502031
    H            0.103501798658    -1.266503232383    -1.997171474517
    C            0.147706285712    -0.161943599440    -0.179056522004
    H           -2.476001536648     1.122224566819     1.432839902124
    C           -0.525545655692     0.535695330905     0.814374337677
    N            1.605679591292    -0.260714476450    -0.137356125102
    C            0.173409623902     1.175922715555     1.991338886882
    O            2.226452752230     0.758325022714    -0.120224179969
    O            2.081086670326    -1.354529131368    -0.170829042786
    H            0.688243455090     2.079454215220     1.689256983144
    H           -0.548876222488     1.429767024369     2.756700215073
    H            0.908861348458     0.512615219753     2.431509112959

  Mulliken Charges: (a.u.)
   Center  Symbol    Alpha    Beta     Spin     Total
       1     H     0.38969  0.38969  0.00000  0.22061
       2     C     3.11031  3.11031  0.00000 -0.22062
       3     C     3.08609  3.08609  0.00000 -0.17218
       4     C     3.08212  3.08212  0.00000 -0.16424
       5     H     0.39071  0.39071  0.00000  0.21857
       6     C     3.12089  3.12089  0.00000 -0.24178
       7     H     0.37371  0.37371  0.00000  0.25258
       8     C     2.91486  2.91486  0.00000  0.17029
       9     H     0.39272  0.39272  0.00000  0.21457
      10     C     2.96636  2.96636  0.00000  0.06727
      11     N     3.26399  3.26399  0.00000  0.47201
      12     C     3.25175  3.25175  0.00000 -0.50350
      13     O     4.22638  4.22638  0.00000 -0.45276
      14     O     4.22520  4.22520  0.00000 -0.45039
      15     H     0.39162  0.39162  0.00000  0.21675
      16     H     0.41025  0.41025  0.00000  0.17949
      17     H     0.40334  0.40334  0.00000  0.19332

   Total alpha = 36.00000, Total beta = 36.00000, Total charge =  0.00000
