                              Psi4 1.0.54 Driver

  ==> Input File <==

--------------------------------------------------------------------------
set {
	reference rhf
	basis cc-pvtz
}

set_num_threads( 4 )
memory 2 gb

molecule MOL {
0 1

O	 3.219313	 0.959291	 -0.614106
C	 2.698710	 0.058177	 -0.050237
C	 1.246364	 -0.005813	 0.348416
O	 3.344101	 -1.038700	 0.312317
C	 0.453207	 1.232821	 -0.049003
H	 0.839270	 -0.907818	 -0.092281
H	 1.216683	 -0.160521	 1.422434
C	 -0.998367	 1.217982	 0.432195
H	 0.481498	 1.345443	 -1.127236
H	 0.951413	 2.105557	 0.354893
C	 -1.882951	 0.151251	 -0.211235
H	 -1.429490	 2.193659	 0.228843
H	 -1.019755	 1.099323	 1.513279
C	 -3.342450	 0.243269	 0.226009
H	 -1.826223	 0.246578	 -1.293162
H	 -1.508033	 -0.839650	 0.027695
C	 -4.234517	 -0.821434	 -0.405970
H	 -3.730149	 1.228245	 -0.022691
H	 -3.398860	 0.159952	 1.308941
C	 -5.680526	 -0.754404	 0.073969
H	 -4.209046	 -0.715023	 -1.487057
H	 -3.828609	 -1.805574	 -0.187877
H	 -6.285803	 -1.522810	 -0.393125
H	 -6.126698	 0.206198	 -0.161154
H	 -5.743086	 -0.891961	 1.148386
C	 4.720529	 -1.114346	 0.001449
H	 4.874321	 -1.055557	 -1.065852
H	 5.057824	 -2.067950	 0.373977
H	 5.264321	 -0.313596	 0.480350

	symmetry c1
}
set optking {
	frozen_dihedral = ("
		21 17 14 11
	")
}

ee,wfn = optimize('scf', return_wfn=True)
oeprop( wfn, 'DIPOLE', 'QUADRUPOLE', 'MULLIKEN_CHARGES')
f=open( 'psi4out.xyz', 'w' )
f.write( "29  " )
f.write( str(ee) + "\n" )
f.write( MOL.save_string_xyz() )
f.close()
--------------------------------------------------------------------------

    Molecular point group: c1
  Charge       = 0
  Multiplicity = 1
  Basis Set: CC-PVTZ
  Basis Set:
  @DF-RHF Final Energy:  -501.22493853523770
    Total Energy =                       -501.2249385352374702
    Molecular point group: c1
  Basis Set: CC-PVTZ
  Basis Set:
  Basis Set: CC-PVTZ
  Basis Set:
  @DF-RHF Final Energy:  -501.22493979960711
    Total Energy =                       -501.2249397996067728
  Basis Set: CC-PVTZ
  Basis Set:
  Basis Set: CC-PVTZ
  Basis Set:
  @DF-RHF Final Energy:  -501.22493440713686
    Total Energy =                       -501.2249344071365158
  Basis Set: CC-PVTZ
  Basis Set:
  Basis Set: CC-PVTZ
  Basis Set:
  @DF-RHF Final Energy:  -501.22494136425826
    Total Energy =                       -501.2249413642583704
  Basis Set: CC-PVTZ
  Basis Set:
  Charge       = 0
  Multiplicity = 1
  Basis Set: CC-PVTZ
  Basis Set:

    Orbital Energies (a.u.)
    -----------------------

    Doubly Occupied:

       1A    -20.595996     2A    -20.533842     3A    -11.364259
       4A    -11.278252     5A    -11.232952     6A    -11.217043
       7A    -11.215525     8A    -11.213937     9A    -11.213685
      10A    -11.212291    11A    -11.207098    12A     -1.471890
      13A     -1.365477    14A     -1.099354    15A     -1.068048
      16A     -1.020629    17A     -0.978166    18A     -0.929202
      19A     -0.862144    20A     -0.799731    21A     -0.790990
      22A     -0.765661    23A     -0.702974    24A     -0.685457
      25A     -0.676084    26A     -0.652051    27A     -0.629336
      28A     -0.605981    29A     -0.595933    30A     -0.582119
      31A     -0.568057    32A     -0.549656    33A     -0.533317
      34A     -0.531650    35A     -0.517286    36A     -0.512253
      37A     -0.497174    38A     -0.478208    39A     -0.470537
      40A     -0.462922    41A     -0.460649    42A     -0.458169
      43A     -0.443809    44A     -0.437428

  @DF-RHF Final Energy:  -501.22494131229416

   => Energetics <=

    Nuclear Repulsion Energy =            611.1587063056741727
    One-Electron Energy =               -1893.7928506174018821
    Two-Electron Energy =                 781.4092029994335462
    DFT Exchange-Correlation Energy =       0.0000000000000000
    Empirical Dispersion Energy =           0.0000000000000000
    PCM Polarization Energy =               0.0000000000000000
    EFP Energy =                            0.0000000000000000
    Total Energy =                       -501.2249413122940496
    Molecular point group: c1
  Basis Set: CC-PVTZ
  Basis Set:

  -Total Gradient:
     Atom            X                  Y                   Z
    ------   -----------------  -----------------  -----------------
       1        0.000004231710     0.000017961903     0.000031076396
       2       -0.000020810781    -0.000037146500    -0.000078270204
       3        0.000017123092     0.000009558946     0.000023379570
       4        0.000003591365     0.000008457769     0.000024494546
       5       -0.000007117554    -0.000007323908    -0.000019694364
       6        0.000024633420     0.000016134304     0.000003174202
       7       -0.000004190472    -0.000002131714     0.000006536837
       8        0.000008412582    -0.000018598666     0.000015303426
       9        0.000002108139    -0.000006338312    -0.000002420905
      10       -0.000005008061     0.000003657878    -0.000004910923
      11        0.000052137649    -0.000189773579     0.000240089882
      12        0.000002286088     0.000001550192     0.000005555747
      13        0.000002375279    -0.000008599829     0.000003995023
      14       -0.000156423589     0.000319383439    -0.000320145321
      15        0.000003678736    -0.000001713872    -0.000004184677
      16       -0.000021054419     0.000012969213     0.000001709846
      17        0.000416905170    -0.000375772255     0.000042889764
      18       -0.000000367742    -0.000011004718    -0.000008421498
      19       -0.000003141017     0.000009332572     0.000003326708
      20        0.000005190395    -0.000014631507     0.000016821055
      21       -0.000324569677     0.000263994434     0.000013498022
      22        0.000002014658     0.000010532037    -0.000001968898
      23        0.000003237923     0.000002692007     0.000007091941
      24        0.000005790320    -0.000008979825    -0.000002025362
      25       -0.000010570190     0.000004425372     0.000002164155
      26        0.000001484596     0.000001681912    -0.000000906778
      27       -0.000000775864    -0.000000034486     0.000001761382
      28       -0.000001458782     0.000000688392     0.000000544211
      29        0.000000287030    -0.000000971197    -0.000000463778

  **** Optimization is complete! (in 5 steps) ****
    Final optimized geometry and variables:
    Molecular point group: c1

    Geometry (in Angstrom), charge = 0, multiplicity = 1:

    O            3.216434354467     0.962085434141    -0.625545396240
    C            2.698660773842     0.063021567194    -0.055823683945
    C            1.247025781350    -0.002027739626     0.345347182337
    O            3.347216318177    -1.030194957440     0.312120076895
    C            0.450664850245     1.232979940227    -0.056991729930
    H            0.841218900899    -0.907034364521    -0.090369347344
    H            1.219202187227    -0.151576813960     1.420143365439
    C           -1.000032880645     1.217882304036     0.426871800467
    H            0.476848832086     1.340207657157    -1.135829105858
    H            0.947850464166     2.108739697879     0.341604264830
    C           -1.885023074741     0.149312825900    -0.212938226684
    H           -1.432239751272     2.192859236966     0.222460238697
    H           -1.019381305687     1.101256912446     1.508232632472
    C           -3.343874779267     0.241366273740     0.226505463475
    H           -1.829520366985     0.242146884466    -1.295213606785
    H           -1.509649699439    -0.840897783827     0.027850797506
    C           -4.238042645887    -0.820084008650    -0.408055769397
    H           -3.731871733574     1.227634093269    -0.016217819671
    H           -3.397440387450     0.152619845580     1.309215110923
    C           -5.684291052045    -0.749145123987     0.071135240826
    H           -4.213690338905    -0.709631979376    -1.488767350008
    H           -3.835566400790    -1.805985043022    -0.192104752550
    H           -6.292726361084    -1.511911020623    -0.401073520408
    H           -6.125799474203     0.214881180752    -0.158844945614
    H           -5.748578660126    -0.892623222791     1.144655841733
    C            4.723361780044    -1.104351559407    -0.000390240680
    H            4.875406440570    -1.051306828531    -1.068243294135
    H            5.063558144316    -2.054989331985     0.377066228454
    H            5.265956291349    -0.299563322152     0.473075977268

  Mulliken Charges: (a.u.)
   Center  Symbol    Alpha    Beta     Spin     Total
       1     O     4.19699  4.19699  0.00000 -0.39398
       2     C     2.80485  2.80485  0.00000  0.39030
       3     C     3.10167  3.10167  0.00000 -0.20334
       4     O     4.14722  4.14722  0.00000 -0.29444
       5     C     3.09265  3.09265  0.00000 -0.18529
       6     H     0.43909  0.43909  0.00000  0.12182
       7     H     0.43991  0.43991  0.00000  0.12017
       8     C     3.10388  3.10388  0.00000 -0.20776
       9     H     0.44623  0.44623  0.00000  0.10753
      10     H     0.43957  0.43957  0.00000  0.12087
      11     C     3.09282  3.09282  0.00000 -0.18563
      12     H     0.44537  0.44537  0.00000  0.10925
      13     H     0.45374  0.45374  0.00000  0.09252
      14     C     3.08607  3.08607  0.00000 -0.17214
      15     H     0.45306  0.45306  0.00000  0.09388
      16     H     0.45405  0.45405  0.00000  0.09191
      17     C     3.08331  3.08331  0.00000 -0.16662
      18     H     0.45363  0.45363  0.00000  0.09274
      19     H     0.45522  0.45522  0.00000  0.08956
      20     C     3.15057  3.15057  0.00000 -0.30115
      21     H     0.45433  0.45433  0.00000  0.09133
      22     H     0.45519  0.45519  0.00000  0.08963
      23     H     0.44836  0.44836  0.00000  0.10327
      24     H     0.45496  0.45496  0.00000  0.09007
      25     H     0.45528  0.45528  0.00000  0.08944
      26     C     3.03813  3.03813  0.00000 -0.07625
      27     H     0.45435  0.45435  0.00000  0.09131
      28     H     0.44528  0.44528  0.00000  0.10944
      29     H     0.45423  0.45423  0.00000  0.09155

   Total alpha = 44.00000, Total beta = 44.00000, Total charge =  0.00000

*** Psi4 exiting successfully. Buy a developer a beer!
