                              Psi4 1.0.54 Driver

  ==> Input File <==

--------------------------------------------------------------------------
set {
	reference rhf
	basis cc-pvtz
}

set_num_threads( 4 )
memory 2 gb

molecule MOL {
0 1

H	 -0.366580	 2.045936	 -0.305741
C	 0.351829	 1.335402	 0.083179
N	 -0.000018	 0.000080	 -0.334836
H	 1.327156	 1.599860	 -0.305475
H	 0.380566	 1.445403	 1.171445
C	 -0.018902	 -0.128197	 -1.772044
C	 0.837438	 -0.998136	 0.285224
H	 -0.353591	 -1.119476	 -2.050328
H	 -0.708764	 0.589156	 -2.198285
H	 0.963082	 0.036694	 -2.225464
H	 0.773564	 -0.916943	 1.362958
H	 0.502000	 -1.988506	 0.004559
H	 1.889942	 -0.904620	 0.001323

	symmetry c1
}
set optking {
	frozen_dihedral = ("
		6 3 2 1
	")
}

ee,wfn = optimize('scf', return_wfn=True)
oeprop( wfn, 'DIPOLE', 'QUADRUPOLE', 'MULLIKEN_CHARGES')
f=open( 'psi4out.xyz', 'w' )
f.write( "13  " )
f.write( str(ee) + "\n" )
f.write( MOL.save_string_xyz() )
f.close()
--------------------------------------------------------------------------

    Molecular point group: c1
  Charge       = 0
  Multiplicity = 1
  Basis Set: CC-PVTZ
  Basis Set:
  @DF-RHF Final Energy:  -173.33321725883229
    Total Energy =                       -173.3332172588323488
    Molecular point group: c1
  Basis Set: CC-PVTZ
  Basis Set:
  Basis Set: CC-PVTZ
  Basis Set:
  @DF-RHF Final Energy:  -173.33390242412807
    Total Energy =                       -173.3339024241280981
  Basis Set: CC-PVTZ
  Basis Set:
  Basis Set: CC-PVTZ
  Basis Set:
  @DF-RHF Final Energy:  -173.33399061407630
    Total Energy =                       -173.3339906140762139
  Basis Set: CC-PVTZ
  Basis Set:
  Charge       = 0
  Multiplicity = 1
  Basis Set: CC-PVTZ
  Basis Set:

    Orbital Energies (a.u.)
    -----------------------

    Doubly Occupied:

       1A    -15.539598     2A    -11.234297     3A    -11.234257
       4A    -11.234229     5A     -1.227287     6A     -0.952418
       7A     -0.952280     8A     -0.806868     9A     -0.643654
      10A     -0.631527    11A     -0.631277    12A     -0.544480
      13A     -0.543805    14A     -0.516953    15A     -0.502359
      16A     -0.502069    17A     -0.349691

  @DF-RHF Final Energy:  -173.33399146424250

   => Energetics <=

    Nuclear Repulsion Energy =            139.4729693793166803
    One-Electron Energy =                -509.5198242685528385
    Two-Electron Energy =                 196.7128634249935999
    DFT Exchange-Correlation Energy =       0.0000000000000000
    Empirical Dispersion Energy =           0.0000000000000000
    PCM Polarization Energy =               0.0000000000000000
    EFP Energy =                            0.0000000000000000
    Total Energy =                       -173.3339914642425583
    Molecular point group: c1
  Basis Set: CC-PVTZ
  Basis Set:

  -Total Gradient:
     Atom            X                  Y                   Z
    ------   -----------------  -----------------  -----------------
       1       -0.000373910130    -0.000066949192     0.000532399239
       2        0.000602704566     0.000050902196    -0.000752088222
       3       -0.000727739349     0.000131629820     0.000136033048
       4        0.000003773849    -0.000030003181    -0.000006986233
       5       -0.000010085155    -0.000033755162    -0.000009313985
       6        0.000501638900     0.000000780884     0.000030972433
       7       -0.000016782727    -0.000016638781     0.000002957625
       8        0.000009407456     0.000004557028     0.000068679167
       9       -0.000019230441     0.000009753416    -0.000016458148
      10        0.000003829684    -0.000018017877    -0.000001992121
      11        0.000011912591    -0.000006805494     0.000000796614
      12        0.000017205820    -0.000021831246     0.000009324197
      13       -0.000002725062    -0.000003622410     0.000005676386

  **** Optimization is complete! (in 4 steps) ****
    Final optimized geometry and variables:
    Molecular point group: c1

    Geometry (in Angstrom), charge = 0, multiplicity = 1:

    H           -0.699270166565     1.982085889377     0.156041873517
    C            0.026709705097     1.274607560518     0.536975818616
    N           -0.312688484462    -0.060496675873     0.107626003954
    H            1.019312886761     1.590164078025     0.201560850748
    H            0.006337078044     1.330293086226     1.618059629835
    C           -0.332443533112    -0.173471345804    -1.330685879436
    C            0.538940282521    -1.055922857664     0.713125122206
    H           -0.660545672824    -1.164020797692    -1.619499880577
    H           -1.027792896618     0.543628020796    -1.748803025648
    H            0.647928527516     0.003385020361    -1.783696019088
    H            0.476007351438    -0.990354089168     1.791973901963
    H            0.215796375732    -2.046794401116     0.419669288940
    H            1.590080542773    -0.946172498757     0.428811041971

  Mulliken Charges: (a.u.)
   Center  Symbol    Alpha    Beta     Spin     Total
       1     H     0.45231  0.45231  0.00000  0.09537
       2     C     3.08907  3.08907  0.00000 -0.17813
       3     N     3.59559  3.59559  0.00000 -0.19119
       4     H     0.47379  0.47379  0.00000  0.05243
       5     H     0.45294  0.45294  0.00000  0.09412
       6     C     3.08915  3.08915  0.00000 -0.17830
       7     C     3.08897  3.08897  0.00000 -0.17794
       8     H     0.45260  0.45260  0.00000  0.09480
       9     H     0.45266  0.45266  0.00000  0.09469
      10     H     0.47379  0.47379  0.00000  0.05242
      11     H     0.45250  0.45250  0.00000  0.09501
      12     H     0.45261  0.45261  0.00000  0.09479
      13     H     0.47403  0.47403  0.00000  0.05194

   Total alpha = 17.00000, Total beta = 17.00000, Total charge =  0.00000

*** Psi4 exiting successfully. Buy a developer a beer!
