  ==> Input File <==

--------------------------------------------------------------------------
set {
	reference rhf
	basis 6-31G*
}

set_num_threads( 4 )
memory 2 gb

molecule MOL {
0 1

H	 -3.398440	 -0.949970	 -0.373796
O	 -3.517110	 -0.026191	 -0.205115
C	 -2.306886	 0.532354	 0.237577
C	 -1.177863	 -0.397191	 -0.171080
H	 -2.156308	 1.517575	 -0.201710
H	 -2.315015	 0.655684	 1.319734
C	 0.198102	 0.111031	 0.262842
H	 -1.208843	 -0.518759	 -1.250427
H	 -1.368741	 -1.376554	 0.258909
C	 1.331804	 -0.827780	 -0.158768
H	 0.361943	 1.100838	 -0.156218
H	 0.217265	 0.229072	 1.345532
C	 2.723619	 -0.410569	 0.329459
H	 1.342964	 -0.912588	 -1.244120
H	 1.116806	 -1.824343	 0.220779
C	 3.243875	 0.895854	 -0.272975
H	 3.424222	 -1.207124	 0.091250
H	 2.714788	 -0.329854	 1.414619
H	 3.251977	 0.848779	 -1.358681
H	 2.637085	 1.747371	 0.016682
H	 4.259473	 1.094070	 0.055697

	symmetry c1
}
set optking {
	frozen_dihedral = ("
		1 2 3 5
	")
}

ee = optimize('scf')
oeprop('DIPOLE', 'QUADRUPOLE', 'MULLIKEN_CHARGES')
f=open( 'psi4out.xyz', 'w' )
f.write( "21  " )
f.write( str(ee) + "\n" )
f.write( MOL.save_string_xyz() )
f.close()
--------------------------------------------------------------------------

    Molecular point group: c1
  Charge       = 0
  Multiplicity = 1
  Basis Set: 6-31G*
  Basis Set:
  @DF-RHF Final Energy:  -310.20900798656157
    Total Energy =                       -310.2090079865615735
    Molecular point group: c1
  Basis Set: 6-31G*
  Basis Set:
  Basis Set: 6-31G*
  Basis Set:
  @DF-RHF Final Energy:  -310.21034487247687
    Total Energy =                       -310.2103448724768668
  Basis Set: 6-31G*
  Basis Set:
  Basis Set: 6-31G*
  Basis Set:
  @DF-RHF Final Energy:  -310.21074335297953
    Total Energy =                       -310.2107433529799891
  Basis Set: 6-31G*
  Basis Set:
  Basis Set: 6-31G*
  Basis Set:
  @DF-RHF Final Energy:  -310.21074836020892
    Total Energy =                       -310.2107483602090952
  Basis Set: 6-31G*
  Basis Set:
  Basis Set: 6-31G*
  Basis Set:
  @DF-RHF Final Energy:  -310.21074524279265
    Total Energy =                       -310.2107452427927115
  Basis Set: 6-31G*
  Basis Set:
  Basis Set: 6-31G*
  Basis Set:
  @DF-RHF Final Energy:  -310.21074958012622
    Total Energy =                       -310.2107495801263326
  Basis Set: 6-31G*
  Basis Set:
  Charge       = 0
  Multiplicity = 1
  Basis Set: 6-31G*
  Basis Set:

    Orbital Energies (a.u.)
    -----------------------

    Doubly Occupied:

       1A    -20.549062     2A    -11.266053     3A    -11.223867
       4A    -11.222783     5A    -11.219920     6A    -11.219220
       7A    -11.211436     8A     -1.356476     9A     -1.092457
      10A     -1.037608    11A     -0.956892    12A     -0.881346
      13A     -0.825898    14A     -0.783941    15A     -0.672627
      16A     -0.658784    17A     -0.624955    18A     -0.617944
      19A     -0.593559    20A     -0.577031    21A     -0.544312
      22A     -0.533756    23A     -0.508017    24A     -0.494514
      25A     -0.489230    26A     -0.466859    27A     -0.461510
      28A     -0.444670    29A     -0.429281

  @DF-RHF Final Energy:  -310.21074947696195

   => Energetics <=

    Nuclear Repulsion Energy =            312.4427797859284510
    One-Electron Energy =               -1039.3790369083837959
    Two-Electron Energy =                 416.7255076454936216
    DFT Exchange-Correlation Energy =       0.0000000000000000
    Empirical Dispersion Energy =           0.0000000000000000
    PCM Polarization Energy =               0.0000000000000000
    EFP Energy =                            0.0000000000000000
    Total Energy =                       -310.2107494769617233
    Molecular point group: c1
  Basis Set: 6-31G*
  Basis Set:

  -Total Gradient:
     Atom            X                  Y                   Z
    ------   -----------------  -----------------  -----------------
       1        0.000424884316     0.000392929649    -0.001768082517
       2       -0.000421333882    -0.000684502149     0.001859802661
       3       -0.000743148655     0.000958494120     0.001154460388
       4        0.000037232067     0.000018897068    -0.000005733833
       5        0.000709116281    -0.000676788049    -0.001259740333
       6        0.000021352599     0.000004238065     0.000001904595
       7        0.000006484964    -0.000005763040     0.000014715073
       8       -0.000000236443    -0.000004325603    -0.000001464158
       9       -0.000002241548     0.000004864039     0.000012388664
      10        0.000009096159    -0.000010226259    -0.000015225193
      11        0.000001270723     0.000007348348     0.000003908286
      12       -0.000011358711    -0.000007368213     0.000007752323
      13       -0.000013694468     0.000015155392    -0.000004513839
      14       -0.000005793816    -0.000007119550    -0.000004011744
      15        0.000009913580    -0.000001238094     0.000007049077
      16        0.000000504586    -0.000002428691    -0.000002199563
      17       -0.000010646347    -0.000003104344    -0.000003467338
      18       -0.000004270456     0.000000935030     0.000001450855
      19       -0.000002691861     0.000000946869    -0.000000476055
      20       -0.000006714564     0.000000107319     0.000003128187
      21        0.000002275476    -0.000001051907    -0.000001645535

  **** Optimization is complete! (in 7 steps) ****
    Final optimized geometry and variables:
    Molecular point group: c1

    Geometry (in Angstrom), charge = 0, multiplicity = 1:

    H           -3.526968770860    -0.868357418328    -0.385260191937
    O           -3.570704336398     0.055878035576    -0.188564142591
    C           -2.312843407159     0.516690871232     0.238789936947
    C           -1.172857832291    -0.407387464121    -0.172099096374
    H           -2.163954208349     1.493714327575    -0.207301559914
    H           -2.318661142579     0.642291923875     1.318872154866
    C            0.200241527108     0.106416373800     0.264526182731
    H           -1.195263953116    -0.528107440840    -1.253338612870
    H           -1.343640659133    -1.394026965092     0.258932049206
    C            1.340913789538    -0.825635868020    -0.152958949319
    H            0.356119084443     1.096284113399    -0.155909942965
    H            0.212928180387     0.225968288069     1.346580491066
    C            2.728647711624    -0.394096162349     0.334465242359
    H            1.353728154740    -0.914698918215    -1.237987404221
    H            1.134555511841    -1.822461884389     0.231189276281
    C            3.237561962063     0.914213105957    -0.273429602926
    H            3.435796130363    -1.185780023172     0.099868449898
    H            2.718196219604    -0.309108309656     1.419188542303
    H            3.246093485036     0.862865814113    -1.358905827396
    H            2.624080247087     1.761937893369     0.013075271794
    H            4.251399430261     1.121876642616     0.054417833678

  Mulliken Charges: (a.u.)
   Center  Symbol    Alpha    Beta     Spin     Total
       1     H     0.28051  0.28051  0.00000  0.43897
       2     O     4.37821  4.37821  0.00000 -0.75641
       3     C     2.97007  2.97007  0.00000  0.05986
       4     C     3.18585  3.18585  0.00000 -0.37170
       5     H     0.42223  0.42223  0.00000  0.15554
       6     H     0.42885  0.42885  0.00000  0.14230
       7     C     3.15973  3.15973  0.00000 -0.31946
       8     H     0.41668  0.41668  0.00000  0.16663
       9     H     0.42460  0.42460  0.00000  0.15080
      10     C     3.15234  3.15234  0.00000 -0.30469
      11     H     0.41806  0.41806  0.00000  0.16388
      12     H     0.42112  0.42112  0.00000  0.15775
      13     C     3.15286  3.15286  0.00000 -0.30572
      14     H     0.42287  0.42287  0.00000  0.15425
      15     H     0.42174  0.42174  0.00000  0.15653
      16     C     3.24163  3.24163  0.00000 -0.48326
      17     H     0.42001  0.42001  0.00000  0.15997
      18     H     0.42270  0.42270  0.00000  0.15460
      19     H     0.42172  0.42172  0.00000  0.15655
      20     H     0.41991  0.41991  0.00000  0.16019
      21     H     0.41830  0.41830  0.00000  0.16340

   Total alpha = 29.00000, Total beta = 29.00000, Total charge =  0.00000
