  ==> Input File <==

--------------------------------------------------------------------------
set {
	reference rhf
	basis 6-31G*
}

set_num_threads( 1 )
memory 2 gb

molecule MOL {
0 1

H	 -2.646374	 -0.642757	 1.268656
C	 -2.083525	 -0.384536	 0.393091
O	 -0.807605	 -0.127164	 0.768327
F	 -2.118945	 -1.383102	 -0.486752
F	 -2.621877	 0.670592	 -0.209486
C	 -0.596735	 0.888141	 1.683411
C	 0.549026	 1.737666	 1.148904
Cl	 -0.193388	 0.228135	 3.276809
H	 -1.460006	 1.519638	 1.800661
F	 0.799466	 2.738217	 1.966410
F	 0.196216	 2.240556	 -0.017314
F	 1.647121	 1.040919	 0.985493

	symmetry c1
}
set optking {
	frozen_dihedral = ("
		10 7 6 9,
		9 6 3 2
	")
}

ee = energy('scf')
oeprop('DIPOLE', 'QUADRUPOLE', 'MULLIKEN_CHARGES')
f=open( 'psi4out.xyz', 'w' )
f.write( "12  " )
f.write( str(ee) + "\n" )
f.write( MOL.save_string_xyz() )
f.close()
--------------------------------------------------------------------------

    Molecular point group: c1

    Geometry (in Angstrom), charge = 0, multiplicity = 1:

       Center              X                  Y                   Z               Mass
    ------------   -----------------  -----------------  -----------------  -----------------
           H         -2.161230957401    -1.374123917003     0.120657784678     1.007825032070
           C         -1.598381957401    -1.115902917003    -0.754907215322    12.000000000000
           O         -0.322461957401    -0.858530917003    -0.379671215322    15.994914619560
           F         -1.633801957401    -2.114468917003    -1.634750215322    18.998403224000
           F         -2.136733957401    -0.060774917003    -1.357484215322    18.998403224000
           C         -0.111591957401     0.156774082997     0.535412784678    12.000000000000
           C          1.034169042599     1.006299082997     0.000905784678    12.000000000000
          CL          0.291755042599    -0.503231917003     2.128810784678    34.968852682000
           H         -0.974862957401     0.788271082997     0.652662784678     1.007825032070
           F          1.284609042599     2.006850082997     0.818411784678    18.998403224000
           F          0.681359042599     1.509189082997    -1.165312215322    18.998403224000
           F          2.132264042599     0.309552082997    -0.162505215322    18.998403224000

  Charge       = 0
  Multiplicity = 1
  Basis Set: 6-31G*
  Basis Set:

    Orbital Energies (a.u.)
    -----------------------

    Doubly Occupied:

       1A   -104.853277     2A    -26.363679     3A    -26.360439
       4A    -26.360025     5A    -26.346473     6A    -26.344679
       7A    -20.649782     8A    -11.531614     9A    -11.490923
      10A    -11.409706    11A    -10.588015    12A     -8.057352
      13A     -8.053858    14A     -8.053723    15A     -1.763646
      16A     -1.714128    17A     -1.660614    18A     -1.658083
      19A     -1.635843    20A     -1.489821    21A     -1.186656
      22A     -1.055992    23A     -0.984302    24A     -0.927210
      25A     -0.858616    26A     -0.856718    27A     -0.848515
      28A     -0.822902    29A     -0.819549    30A     -0.787773
      31A     -0.729645    32A     -0.726556    33A     -0.699483
      34A     -0.692282    35A     -0.681721    36A     -0.676055
      37A     -0.662340    38A     -0.660253    39A     -0.656183
      40A     -0.639316    41A     -0.612308    42A     -0.570129
      43A     -0.521043    44A     -0.486664    45A     -0.477370

  @DF-RHF Final Energy: -1146.30842257058521

   => Energetics <=

    Nuclear Repulsion Energy =            728.9390152907211586
    One-Electron Energy =               -3040.4444410552614499
    Two-Electron Energy =                1165.1970031939540604
    DFT Exchange-Correlation Energy =       0.0000000000000000
    Empirical Dispersion Energy =           0.0000000000000000
    PCM Polarization Energy =               0.0000000000000000
    EFP Energy =                            0.0000000000000000
    Total Energy =                      -1146.3084225705861172

  Mulliken Charges: (a.u.)
   Center  Symbol    Alpha    Beta     Spin     Total
       1     H     0.41839  0.41839  0.00000  0.16322
       2     C     2.56668  2.56668  0.00000  0.86664
       3     O     4.29763  4.29763  0.00000 -0.59526
       4     F     4.67550  4.67550  0.00000 -0.35099
       5     F     4.68100  4.68100  0.00000 -0.36199
       6     C     3.04443  3.04443  0.00000 -0.08885
       7     C     2.43059  2.43059  0.00000  1.13883
       8    CL     8.50023  8.50023  0.00000 -0.00046
       9     H     0.36991  0.36991  0.00000  0.26019
      10     F     4.67384  4.67384  0.00000 -0.34768
      11     F     4.67455  4.67455  0.00000 -0.34911
      12     F     4.66727  4.66727  0.00000 -0.33454

   Total alpha = 45.00000, Total beta = 45.00000, Total charge =  0.00000
