  ==> Input File <==

--------------------------------------------------------------------------
set {
	reference rhf
	basis 6-31G*
}

set_num_threads( 4 )
memory 2 gb

molecule MOL {
0 1

H	 2.411010	 -2.043528	 1.070087
O	 2.743101	 -1.195364	 0.809256
C	 1.743999	 -0.378473	 0.419820
C	 2.091550	 0.904641	 0.009004
C	 0.419709	 -0.771395	 0.417994
H	 3.127664	 1.186094	 0.019483
C	 1.114078	 1.787470	 -0.401148
H	 0.123569	 -1.753683	 0.729342
C	 -0.536158	 0.140425	 0.000000
H	 1.391284	 2.776125	 -0.716701
C	 -0.223857	 1.416451	 -0.412039
N	 -1.935604	 -0.280333	 0.000000
H	 -0.993372	 2.090062	 -0.727474
O	 -2.161694	 -1.452901	 0.000000
O	 -2.770341	 0.571417	 0.000000

	symmetry c1
}
set optking {
	frozen_dihedral = ("
		11 9 12 14
	")
}

ee = optimize('scf')
oeprop('DIPOLE', 'QUADRUPOLE', 'MULLIKEN_CHARGES')
f=open( 'psi4out.xyz', 'w' )
f.write( "15  " )
f.write( str(ee) + "\n" )
f.write( MOL.save_string_xyz() )
f.close()
--------------------------------------------------------------------------

    Molecular point group: c1
  Charge       = 0
  Multiplicity = 1
  Basis Set: 6-31G*
  Basis Set:
  @DF-RHF Final Energy:  -509.02703331640163
    Total Energy =                       -509.0270333164020258
    Molecular point group: c1
  Basis Set: 6-31G*
  Basis Set:
  Basis Set: 6-31G*
  Basis Set:
  @DF-RHF Final Energy:  -509.02237275033656
    Total Energy =                       -509.0223727503370128
  Basis Set: 6-31G*
  Basis Set:
  Basis Set: 6-31G*
  Basis Set:
  @DF-RHF Final Energy:  -509.02702052378936
    Total Energy =                       -509.0270205237895880
  Basis Set: 6-31G*
  Basis Set:
  Basis Set: 6-31G*
  Basis Set:
  @DF-RHF Final Energy:  -509.02711324387508
    Total Energy =                       -509.0271132438756467
  Basis Set: 6-31G*
  Basis Set:
  Basis Set: 6-31G*
  Basis Set:
  @DF-RHF Final Energy:  -509.02711355130219
    Total Energy =                       -509.0271135513028185
  Basis Set: 6-31G*
  Basis Set:
  Charge       = 0
  Multiplicity = 1
  Basis Set: 6-31G*
  Basis Set:

    Orbital Energies (a.u.)
    -----------------------

    Doubly Occupied:

       1A    -20.616099     2A    -20.605733     3A    -20.605221
       4A    -15.859297     5A    -11.331005     6A    -11.311666
       7A    -11.267628     8A    -11.267144     9A    -11.263904
      10A    -11.260275    11A     -1.638436    12A     -1.436841
      13A     -1.421914    14A     -1.200978    15A     -1.095345
      16A     -1.046897    17A     -0.966252    18A     -0.879524
      19A     -0.828755    20A     -0.790722    21A     -0.754173
      22A     -0.736210    23A     -0.722852    24A     -0.708693
      25A     -0.672692    26A     -0.635304    27A     -0.616227
      28A     -0.594537    29A     -0.559495    30A     -0.545691
      31A     -0.517758    32A     -0.491907    33A     -0.490073
      34A     -0.454504    35A     -0.376956    36A     -0.343104

  @DF-RHF Final Energy:  -509.02711387373989

   => Energetics <=

    Nuclear Repulsion Energy =            503.4760066665963336
    One-Electron Energy =               -1693.1786182266228025
    Two-Electron Energy =                 680.6754976862868034
    DFT Exchange-Correlation Energy =       0.0000000000000000
    Empirical Dispersion Energy =           0.0000000000000000
    PCM Polarization Energy =               0.0000000000000000
    EFP Energy =                            0.0000000000000000
    Total Energy =                       -509.0271138737397223
    Molecular point group: c1
  Basis Set: 6-31G*
  Basis Set:

  -Total Gradient:
     Atom            X                  Y                   Z
    ------   -----------------  -----------------  -----------------
       1       -0.000001154593     0.000004440206     0.000013286488
       2        0.000003591891    -0.000010103322    -0.000019056506
       3        0.000000472484     0.000010140892     0.000001907877
       4        0.000001619156    -0.000003785182     0.000011184351
       5       -0.000007403336     0.000003873101     0.000002652266
       6       -0.000000618808    -0.000000062856    -0.000001268657
       7       -0.000005142245     0.000002866345     0.000000024706
       8        0.000000506967    -0.000001641988    -0.000003039476
       9       -0.000279115405     0.000849484080     0.001661363171
      10        0.000000446955    -0.000000220996    -0.000000532512
      11        0.000206356346    -0.000589520505    -0.001682539649
      12        0.000054995260    -0.000242291624     0.002054439112
      13        0.000004142058    -0.000001792465     0.000001659410
      14        0.000029731711    -0.000017015349    -0.002039609808
      15       -0.000008428436    -0.000004370339    -0.000000470773

  **** Optimization is complete! (in 6 steps) ****
    Final optimized geometry and variables:
    Molecular point group: c1

    Geometry (in Angstrom), charge = 0, multiplicity = 1:

    H            2.416494762170    -2.062808139594     0.966297722017
    O            2.746866616036    -1.211518681905     0.713702496266
    C            1.747586881677    -0.395336759738     0.324000692019
    C            2.095051902312     0.886469487400    -0.091392238165
    C            0.423180511000    -0.788397213960     0.322360770947
    H            3.131738799943     1.166135543758    -0.086491337288
    C            1.117664327656     1.769251965954    -0.501658861305
    H            0.127399294995    -1.774848719466     0.622149911002
    C           -0.532529114376     0.128270354900    -0.082999190644
    H            1.395924136807     2.754621110106    -0.826458009201
    C           -0.221652900872     1.402128712060    -0.500796943844
    N           -1.928995470071    -0.296822728340    -0.097716823206
    H           -0.992979231461     2.077395593019    -0.809366626806
    O           -2.149147591327    -1.470517827863    -0.091800374319
    O           -2.765026360785     0.553259328299    -0.129928190841

  Mulliken Charges: (a.u.)
   Center  Symbol    Alpha    Beta     Spin     Total
       1     H     0.26729  0.26729  0.00000  0.46542
       2     O     4.37551  4.37551  0.00000 -0.75103
       3     C     2.79239  2.79239  0.00000  0.41523
       4     C     3.10912  3.10912  0.00000 -0.21824
       5     C     3.13623  3.13623  0.00000 -0.27245
       6     H     0.38099  0.38099  0.00000  0.23801
       7     C     3.10041  3.10041  0.00000 -0.20081
       8     H     0.36983  0.36983  0.00000  0.26034
       9     C     2.90886  2.90886  0.00000  0.18229
      10     H     0.38655  0.38655  0.00000  0.22690
      11     C     3.09819  3.09819  0.00000 -0.19637
      12     N     3.24569  3.24569  0.00000  0.50863
      13     H     0.36679  0.36679  0.00000  0.26641
      14     O     4.23293  4.23293  0.00000 -0.46586
      15     O     4.22923  4.22923  0.00000 -0.45846

   Total alpha = 36.00000, Total beta = 36.00000, Total charge =  0.00000
