                              Psi4 1.0.54 Driver

  ==> Input File <==

--------------------------------------------------------------------------
set {
	reference rhf
	basis cc-pvtz
}

set_num_threads( 4 )
memory 2 gb

molecule MOL {
0 1

H	 -2.644180	 -0.653737	 1.272255
C	 -2.092774	 -0.380414	 0.391915
O	 -0.808934	 -0.154049	 0.752536
F	 -2.163230	 -1.351640	 -0.507133
F	 -2.627232	 0.691260	 -0.169301
C	 0.085006	 0.250800	 -0.215074
C	 -0.415434	 1.581505	 -0.771904
Cl	 0.206771	 -0.946971	 -1.517401
H	 1.076073	 0.402844	 0.175203
F	 0.401715	 2.030057	 -1.690649
F	 -0.454894	 2.462935	 0.199094
F	 -1.610823	 1.484819	 -1.285663

	symmetry c1
}
set optking {
	frozen_dihedral = ("
		9 6 3 2
	")
}

ee,wfn = optimize('scf', return_wfn=True)
oeprop( wfn, 'DIPOLE', 'QUADRUPOLE', 'MULLIKEN_CHARGES')
f=open( 'psi4out.xyz', 'w' )
f.write( "12  " )
f.write( str(ee) + "\n" )
f.write( MOL.save_string_xyz() )
f.close()
--------------------------------------------------------------------------

    Molecular point group: c1
  Charge       = 0
  Multiplicity = 1
  Basis Set: CC-PVTZ
  Basis Set:
  @DF-RHF Final Energy: -1146.50926617078767
    Total Energy =                      -1146.5092661707888055
    Molecular point group: c1
  Basis Set: CC-PVTZ
  Basis Set:
  Basis Set: CC-PVTZ
  Basis Set:
  @DF-RHF Final Energy: -1146.52039823177097
    Total Energy =                      -1146.5203982317709688
  Basis Set: CC-PVTZ
  Basis Set:
  Basis Set: CC-PVTZ
  Basis Set:
  @DF-RHF Final Energy: -1146.54603077872298
    Total Energy =                      -1146.5460307787227521
  Basis Set: CC-PVTZ
  Basis Set:
  Basis Set: CC-PVTZ
  Basis Set:
  @DF-RHF Final Energy: -1146.59328592279758
    Total Energy =                      -1146.5932859227971221
  Basis Set: CC-PVTZ
  Basis Set:
  @DF-RHF Final Energy: -1146.60268279399088
    Total Energy =                      -1146.6026827939908799
  @DF-RHF Final Energy: -1146.60563192777454
    Total Energy =                      -1146.6056319277745388
  @DF-RHF Final Energy: -1146.60813163005082
    Total Energy =                      -1146.6081316300505932
  @DF-RHF Final Energy: -1146.60939705010833
    Total Energy =                      -1146.6093970501076456
  @DF-RHF Final Energy: -1146.60998765346039
    Total Energy =                      -1146.6099876534603936
  @DF-RHF Final Energy: -1146.61017658447372
    Total Energy =                      -1146.6101765844734928
  @DF-RHF Final Energy: -1146.61023369727354
    Total Energy =                      -1146.6102336972726334
  @DF-RHF Final Energy: -1146.61025834168595
    Total Energy =                      -1146.6102583416861762
  @DF-RHF Final Energy: -1146.61027449964695
    Total Energy =                      -1146.6102744996458114
  @DF-RHF Final Energy: -1146.61029207880915
    Total Energy =                      -1146.6102920788084703
  @DF-RHF Final Energy: -1146.61031759104708
    Total Energy =                      -1146.6103175910473055
  @DF-RHF Final Energy: -1146.61033634237310
    Total Energy =                      -1146.6103363423728752
  @DF-RHF Final Energy: -1146.61035121054510
    Total Energy =                      -1146.6103512105446498
  @DF-RHF Final Energy: -1146.61035484045965
    Total Energy =                      -1146.6103548404603316
  @DF-RHF Final Energy: -1146.61035805645270
    Total Energy =                      -1146.6103580564529238
  @DF-RHF Final Energy: -1146.61036624412418
    Total Energy =                      -1146.6103662441244069
  @DF-RHF Final Energy: -1146.61003899091565
    Total Energy =                      -1146.6100389909147452
  @DF-RHF Final Energy: -1146.61038088305600
    Total Energy =                      -1146.6103808830553135
  @DF-RHF Final Energy: -1146.61040043365256
    Total Energy =                      -1146.6104004336525577
  @DF-RHF Final Energy: -1146.61041881167648
    Total Energy =                      -1146.6104188116757996
  Basis Set: CC-PVTZ
  Basis Set:
  @DF-RHF Final Energy: -1146.61043278513034
    Total Energy =                      -1146.6104327851298876
  Basis Set: CC-PVTZ
  Basis Set:
  Basis Set: CC-PVTZ
  Basis Set:
  @DF-RHF Final Energy: -1146.61043711391380
    Total Energy =                      -1146.6104371139140312
  Basis Set: CC-PVTZ
  Basis Set:
  Basis Set: CC-PVTZ
  Basis Set:
  @DF-RHF Final Energy: -1146.61043952114778
    Total Energy =                      -1146.6104395211464180
  Basis Set: CC-PVTZ
  Basis Set:
  Charge       = 0
  Multiplicity = 1
  Basis Set: CC-PVTZ
  Basis Set:

    Orbital Energies (a.u.)
    -----------------------

    Doubly Occupied:

       1A   -104.855461     2A    -26.353859     3A    -26.353574
       4A    -26.352856     5A    -26.337921     6A    -26.334251
       7A    -20.638534     8A    -11.520572     9A    -11.480374
      10A    -11.402589    11A    -10.581031    12A     -8.047829
      13A     -8.045841    14A     -8.045748    15A     -1.767712
      16A     -1.718724    17A     -1.662260    18A     -1.661141
      19A     -1.639516    20A     -1.478830    21A     -1.176206
      22A     -1.050797    23A     -0.997666    24A     -0.920976
      25A     -0.862544    26A     -0.856629    27A     -0.851324
      28A     -0.836220    29A     -0.814490    30A     -0.756990
      31A     -0.735643    32A     -0.732127    33A     -0.707163
      34A     -0.703672    35A     -0.686482    36A     -0.678495
      37A     -0.667349    38A     -0.664915    39A     -0.658203
      40A     -0.637612    41A     -0.594281    42A     -0.561210
      43A     -0.523566    44A     -0.477585    45A     -0.466791

  @DF-RHF Final Energy: -1146.61044007040573

   => Energetics <=

    Nuclear Repulsion Energy =            757.3958736792221771
    One-Electron Energy =               -3098.2175158967920652
    Two-Electron Energy =                1194.2112021471641583
    DFT Exchange-Correlation Energy =       0.0000000000000000
    Empirical Dispersion Energy =           0.0000000000000000
    PCM Polarization Energy =               0.0000000000000000
    EFP Energy =                            0.0000000000000000
    Total Energy =                      -1146.6104400704059572
    Molecular point group: c1
  Basis Set: CC-PVTZ
  Basis Set:

  -Total Gradient:
     Atom            X                  Y                   Z
    ------   -----------------  -----------------  -----------------
       1        0.000026387073     0.000012850805     0.000019470992
       2        0.000626822321    -0.002542029077    -0.000390006798
       3       -0.001288493025     0.003046791877     0.000534887428
       4        0.000243631801    -0.000081550687     0.000054987486
       5       -0.000009700439     0.000371711775     0.000019314986
       6       -0.000564769145     0.001287352377     0.000252345359
       7        0.000166793552    -0.000016785755     0.000103883192
       8        0.000023166122    -0.000034049441    -0.000010597412
       9        0.000859196109    -0.002134203548    -0.000646233349
      10       -0.000030072306     0.000012900797     0.000012430707
      11       -0.000040089435     0.000045759283    -0.000033642627
      12       -0.000012872595     0.000031251535     0.000083160014

  **** Optimization is complete! (in 28 steps) ****
    Final optimized geometry and variables:
    Molecular point group: c1

    Geometry (in Angstrom), charge = 0, multiplicity = 1:

    H           -2.270093046119    -1.578989099937     1.134849078915
    C           -1.643663932583    -1.010516954788     0.471554851918
    O           -0.480825703265    -0.778787618831     1.137182078591
    F           -1.460170036305    -1.671785141807    -0.651819258997
    F           -2.246772019036     0.124658006812     0.162117484693
    C            0.686118499503    -0.268290899572     0.611517061102
    C            0.577699435254     1.159672301774     0.064007573929
    CL           1.472108378055    -1.315645319648    -0.592567819024
    H            1.368279172641    -0.234407443016     1.440329680241
    F            1.785146092983     1.643119457410    -0.102600038926
    F           -0.040667215870     1.915375797732     0.938168701182
    F           -0.054556458205     1.237350267755    -1.073717370032

  Mulliken Charges: (a.u.)
   Center  Symbol    Alpha    Beta     Spin     Total
       1     H     0.45186  0.45186  0.00000  0.09627
       2     C     2.74082  2.74082  0.00000  0.51836
       3     O     4.16147  4.16147  0.00000 -0.32293
       4     F     4.60971  4.60971  0.00000 -0.21942
       5     F     4.61448  4.61448  0.00000 -0.22895
       6     C     2.94953  2.94953  0.00000  0.10094
       7     C     2.67544  2.67544  0.00000  0.64912
       8    CL     8.57112  8.57112  0.00000 -0.14225
       9     H     0.41817  0.41817  0.00000  0.16365
      10     F     4.60360  4.60360  0.00000 -0.20720
      11     F     4.60456  4.60456  0.00000 -0.20912
      12     F     4.59924  4.59924  0.00000 -0.19847

   Total alpha = 45.00000, Total beta = 45.00000, Total charge =  0.00000

*** Psi4 exiting successfully. Buy a developer a beer!
