  ==> Input File <==

--------------------------------------------------------------------------
set {
	reference rhf
	basis 6-31G*
}

set_num_threads( 4 )
memory 2 gb

molecule MOL {
0 1

O	 1.207296	 1.318672	 0.115127
C	 1.100169	 0.156549	 0.341038
C	 -0.191568	 -0.624003	 0.333908
O	 2.131756	 -0.624062	 0.636755
C	 -1.412532	 0.227344	 -0.000452
H	 -0.074228	 -1.439429	 -0.374657
H	 -0.293295	 -1.092412	 1.309100
C	 -2.706999	 -0.587347	 -0.000541
H	 -1.270261	 0.692401	 -0.971012
H	 -1.489364	 1.040258	 0.714930
C	 -3.956778	 0.291888	 0.000910
H	 -2.726114	 -1.239230	 -0.871609
H	 -2.725217	 -1.240844	 0.869333
H	 -3.985213	 0.933254	 -0.875158
H	 -4.860123	 -0.309979	 0.000519
H	 -3.984618	 0.931166	 0.878514
C	 3.408821	 -0.013632	 0.677002
H	 3.657655	 0.410746	 -0.285012
H	 4.103578	 -0.799237	 0.930156
H	 3.434517	 0.764766	 1.425964

	symmetry c1
}
set optking {
	frozen_dihedral = ("
		9 5 8 12
	")
}

ee = optimize('scf')
oeprop('DIPOLE', 'QUADRUPOLE', 'MULLIKEN_CHARGES')
f=open( 'psi4out.xyz', 'w' )
f.write( "20  " )
f.write( str(ee) + "\n" )
f.write( MOL.save_string_xyz() )
f.close()
--------------------------------------------------------------------------

    Molecular point group: c1
  Charge       = 0
  Multiplicity = 1
  Basis Set: 6-31G*
  Basis Set:
  @DF-RHF Final Energy:  -383.94085406045826
    Total Energy =                       -383.9408540604582640
    Molecular point group: c1
  Basis Set: 6-31G*
  Basis Set:
  Basis Set: 6-31G*
  Basis Set:
  @DF-RHF Final Energy:  -383.94093608571245
    Total Energy =                       -383.9409360857125648
  Basis Set: 6-31G*
  Basis Set:
  Basis Set: 6-31G*
  Basis Set:
  @DF-RHF Final Energy:  -383.94089826663338
    Total Energy =                       -383.9408982666336669
  Basis Set: 6-31G*
  Basis Set:
  Basis Set: 6-31G*
  Basis Set:
  @DF-RHF Final Energy:  -383.94096860488429
    Total Energy =                       -383.9409686048844605
  Basis Set: 6-31G*
  Basis Set:
  Charge       = 0
  Multiplicity = 1
  Basis Set: 6-31G*
  Basis Set:

    Orbital Energies (a.u.)
    -----------------------

    Doubly Occupied:

       1A    -20.603703     2A    -20.545527     3A    -11.372311
       4A    -11.280907     5A    -11.235589     6A    -11.220359
       7A    -11.219436     8A    -11.210561     9A     -1.469396
      10A     -1.362850    11A     -1.088538    12A     -1.024253
      13A     -0.969061    14A     -0.885588    15A     -0.803916
      16A     -0.767496    17A     -0.696957    18A     -0.683723
      19A     -0.671934    20A     -0.646051    21A     -0.597393
      22A     -0.593165    23A     -0.578369    24A     -0.540498
      25A     -0.535587    26A     -0.522625    27A     -0.501637
      28A     -0.477162    29A     -0.473244    30A     -0.471029
      31A     -0.455819    32A     -0.436863

  @DF-RHF Final Energy:  -383.94096854852995

   => Energetics <=

    Nuclear Repulsion Energy =            381.0771882660210963
    One-Electron Energy =               -1278.1532249271076580
    Two-Electron Energy =                 513.1350681125563824
    DFT Exchange-Correlation Energy =       0.0000000000000000
    Empirical Dispersion Energy =           0.0000000000000000
    PCM Polarization Energy =               0.0000000000000000
    EFP Energy =                            0.0000000000000000
    Total Energy =                       -383.9409685485302361
    Molecular point group: c1
  Basis Set: 6-31G*
  Basis Set:

  -Total Gradient:
     Atom            X                  Y                   Z
    ------   -----------------  -----------------  -----------------
       1        0.000004128373    -0.000005810153    -0.000031666598
       2       -0.000009380106     0.000025543326     0.000118980008
       3       -0.000020368609    -0.000026189207     0.000041245531
       4        0.000001843530    -0.000009221624    -0.000035159610
       5       -0.001872656466     0.002823967343     0.000529169756
       6       -0.000007677432     0.000011294427     0.000004621129
       7        0.000027142476    -0.000024544904     0.000016651009
       8        0.001716512872    -0.002608900011     0.001464281759
       9        0.001269190454    -0.001998323020    -0.000791700836
      10       -0.000039150148    -0.000006960583    -0.000039221228
      11        0.000007286502     0.000025431697     0.000044686763
      12       -0.001118215646     0.001788468063    -0.001329890547
      13        0.000070335899     0.000000367191    -0.000012011733
      14        0.000013333182     0.000012990148     0.000019840793
      15       -0.000000147800    -0.000003803566    -0.000017266102
      16       -0.000042208031    -0.000005389703     0.000015733682
      17        0.000000554036     0.000002097154     0.000004861892
      18       -0.000000586715    -0.000000399259    -0.000000797411
      19       -0.000000088309    -0.000000206957    -0.000001486460
      20        0.000000151938    -0.000000410363    -0.000000871799

  **** Optimization is complete! (in 5 steps) ****
    Final optimized geometry and variables:
    Molecular point group: c1

    Geometry (in Angstrom), charge = 0, multiplicity = 1:

    O            1.225813500858     1.291308391739    -0.155405718778
    C            1.118090610668     0.130303736301     0.076115607816
    C           -0.175906732702    -0.646441484214     0.087116515540
    O            2.151060805894    -0.652129859842     0.362221172785
    C           -1.399799116883     0.208421478128    -0.232298744138
    H           -0.070752224078    -1.462978433669    -0.622343049803
    H           -0.265589117157    -1.113812127520     1.063864114704
    C           -2.689511300687    -0.616180489094    -0.254276672063
    H           -1.250367482969     0.678044456259    -1.199138721755
    H           -1.477623288582     1.009220915169     0.495880801263
    C           -3.943049981468     0.258572375999    -0.295028215982
    H           -2.687670234039    -1.261612642380    -1.129876244556
    H           -2.731872118589    -1.265776386976     0.617009002384
    H           -3.933071997966     0.915836495667    -1.159802794325
    H           -4.842700753557    -0.346488156479    -0.349441653581
    H           -4.015149189533     0.881717930464     0.591576722492
    C            3.430105676939    -0.045023749802     0.385428316938
    H            3.668615369947     0.375835518353    -0.580752144021
    H            4.125747178964    -0.831746414505     0.632637527105
    H            3.466824583383     0.735525225616     1.131689781595

  Mulliken Charges: (a.u.)
   Center  Symbol    Alpha    Beta     Spin     Total
       1     O     4.28603  4.28603  0.00000 -0.57206
       2     C     2.60537  2.60537  0.00000  0.78925
       3     C     3.20859  3.20859  0.00000 -0.41719
       4     O     4.30717  4.30717  0.00000 -0.61435
       5     C     3.15120  3.15120  0.00000 -0.30241
       6     H     0.40073  0.40073  0.00000  0.19854
       7     H     0.40076  0.40076  0.00000  0.19848
       8     C     3.15452  3.15452  0.00000 -0.30904
       9     H     0.41106  0.41106  0.00000  0.17787
      10     H     0.41207  0.41207  0.00000  0.17586
      11     C     3.23949  3.23949  0.00000 -0.47897
      12     H     0.42179  0.42179  0.00000  0.15641
      13     H     0.42304  0.42304  0.00000  0.15391
      14     H     0.41978  0.41978  0.00000  0.16043
      15     H     0.41902  0.41902  0.00000  0.16197
      16     H     0.42036  0.42036  0.00000  0.15928
      17     C     3.09243  3.09243  0.00000 -0.18487
      18     H     0.40907  0.40907  0.00000  0.18186
      19     H     0.40842  0.40842  0.00000  0.18315
      20     H     0.40907  0.40907  0.00000  0.18187

   Total alpha = 32.00000, Total beta = 32.00000, Total charge = -0.00000
