                              Psi4 1.0.54 Driver

  ==> Input File <==

--------------------------------------------------------------------------
set {
	reference rhf
	basis cc-pvtz
}

set_num_threads( 4 )
memory 2 gb

molecule MOL {
0 1

H	 -3.436473	 1.252944	 -1.023892
O	 -3.458596	 0.315260	 -0.960865
C	 -3.176635	 -0.080824	 0.355601
C	 -1.763371	 0.265266	 0.799691
H	 -3.321825	 -1.153438	 0.379502
H	 -3.895468	 0.357385	 1.043382
C	 -0.673390	 -0.426948	 -0.013392
H	 -1.631049	 1.344913	 0.747560
H	 -1.664587	 -0.001624	 1.849167
C	 0.737842	 -0.043159	 0.423759
H	 -0.806103	 -0.190518	 -1.063345
H	 -0.797221	 -1.503753	 0.074146
C	 1.707834	 0.091491	 -0.748433
H	 0.693488	 0.889792	 0.977406
H	 1.117309	 -0.791338	 1.116644
C	 3.154374	 0.396154	 -0.355306
H	 1.349883	 0.866214	 -1.422618
H	 1.693970	 -0.833821	 -1.317841
C	 3.366633	 1.765126	 0.286569
H	 3.772587	 0.330659	 -1.245417
H	 3.513009	 -0.377178	 0.319054
H	 3.011458	 2.558730	 -0.363139
H	 4.419267	 1.941569	 0.476490
H	 2.846580	 1.854917	 1.232660

	symmetry c1
}
set optking {
	frozen_dihedral = ("
		13 10 7 11
	")
}

ee,wfn = optimize('scf', return_wfn=True)
oeprop( wfn, 'DIPOLE', 'QUADRUPOLE', 'MULLIKEN_CHARGES')
f=open( 'psi4out.xyz', 'w' )
f.write( "24  " )
f.write( str(ee) + "\n" )
f.write( MOL.save_string_xyz() )
f.close()
--------------------------------------------------------------------------

    Molecular point group: c1
  Charge       = 0
  Multiplicity = 1
  Basis Set: CC-PVTZ
  Basis Set:
  @DF-RHF Final Energy:  -349.37642762484251
    Total Energy =                       -349.3764276248427905
    Molecular point group: c1
  Basis Set: CC-PVTZ
  Basis Set:
  Basis Set: CC-PVTZ
  Basis Set:
  @DF-RHF Final Energy:  -349.37666709290909
    Total Energy =                       -349.3766670929092584
  Basis Set: CC-PVTZ
  Basis Set:
  Basis Set: CC-PVTZ
  Basis Set:
  @DF-RHF Final Energy:  -349.37674324800332
    Total Energy =                       -349.3767432480030379
  Basis Set: CC-PVTZ
  Basis Set:
  Basis Set: CC-PVTZ
  Basis Set:
  @DF-RHF Final Energy:  -349.37673527792339
    Total Energy =                       -349.3767352779238990
  Basis Set: CC-PVTZ
  Basis Set:
  Basis Set: CC-PVTZ
  Basis Set:
  @DF-RHF Final Energy:  -349.37674909608108
    Total Energy =                       -349.3767490960815394
  Basis Set: CC-PVTZ
  Basis Set:
  Charge       = 0
  Multiplicity = 1
  Basis Set: CC-PVTZ
  Basis Set:

    Orbital Energies (a.u.)
    -----------------------

    Doubly Occupied:

       1A    -20.546252     2A    -11.265444     3A    -11.215765
       4A    -11.212033     5A    -11.210246     6A    -11.209656
       7A    -11.208838     8A    -11.205552     9A     -1.364073
      10A     -1.088748    11A     -1.049266    12A     -0.986206
      13A     -0.915834    14A     -0.851995    15A     -0.803039
      16A     -0.776776    17A     -0.682490    18A     -0.646382
      19A     -0.630845    20A     -0.618159    21A     -0.600754
      22A     -0.589078    23A     -0.551940    24A     -0.547785
      25A     -0.515242    26A     -0.509121    27A     -0.501556
      28A     -0.472459    29A     -0.467828    30A     -0.460883
      31A     -0.454569    32A     -0.450657    33A     -0.420609

  @DF-RHF Final Energy:  -349.37674924309175

   => Energetics <=

    Nuclear Repulsion Energy =            385.5763978714590507
    One-Electron Energy =               -1237.8461351662849665
    Two-Electron Energy =                 502.8929880517341644
    DFT Exchange-Correlation Energy =       0.0000000000000000
    Empirical Dispersion Energy =           0.0000000000000000
    PCM Polarization Energy =               0.0000000000000000
    EFP Energy =                            0.0000000000000000
    Total Energy =                       -349.3767492430918082
    Molecular point group: c1
  Basis Set: CC-PVTZ
  Basis Set:

  -Total Gradient:
     Atom            X                  Y                   Z
    ------   -----------------  -----------------  -----------------
       1       -0.000001037188     0.000004821906    -0.000000358981
       2        0.000008605350    -0.000025725339    -0.000043941276
       3       -0.000024437182     0.000057996822     0.000027505684
       4        0.000016018509    -0.000047436548     0.000003006615
       5        0.000000572867     0.000000705074    -0.000004533466
       6       -0.000017247885    -0.000007671664     0.000010887854
       7       -0.001862319899     0.005765670185     0.001075063053
       8        0.000001249794    -0.000004893042    -0.000003339583
       9        0.000016233751    -0.000008420152     0.000009737006
      10        0.001236620513    -0.004855538206     0.000143920123
      11        0.001293970580    -0.003732275765    -0.000961366775
      12       -0.000008225912    -0.000006329672     0.000017599692
      13       -0.000678254114     0.002864222676    -0.000279407085
      14       -0.000004148635     0.000002163761    -0.000004531587
      15        0.000003492996    -0.000005998282    -0.000004142695
      16        0.000008415597    -0.000013759181     0.000003879458
      17       -0.000007632286     0.000003929848     0.000007024146
      18       -0.000005492335    -0.000001485404     0.000001550260
      19        0.000002441513     0.000004437131     0.000003330382
      20        0.000004555701    -0.000001965319    -0.000000108629
      21        0.000006556582    -0.000003072724     0.000001614972
      22       -0.000000967833     0.000006957161    -0.000003266579
      23        0.000003493083     0.000001794894     0.000003055199
      24        0.000007536432     0.000001871840    -0.000003177786

  **** Optimization is complete! (in 6 steps) ****
    Final optimized geometry and variables:
    Molecular point group: c1

    Geometry (in Angstrom), charge = 0, multiplicity = 1:

    H           -3.437742714220     0.861917535652    -1.011339894954
    O           -3.432478452293    -0.073191122081    -0.915096643336
    C           -3.119061204815    -0.414387988338     0.409530846575
    C           -1.712437594776    -0.006521778899     0.820015151872
    H           -3.227365703852    -1.489813062459     0.471169847845
    H           -3.842658220773     0.022473590468     1.093274198948
    C           -0.611025575168    -0.672752455593     0.002665770678
    H           -1.619849120254     1.075828334010     0.743894275223
    H           -1.584280597782    -0.247532183469     1.872839179753
    C            0.809574636402    -0.292065805799     0.449598990657
    H           -0.740850330272    -0.451320375346    -1.050068564359
    H           -0.729040395218    -1.751201206408     0.075346487606
    C            1.792906003439    -0.178937459877    -0.714556554783
    H            0.773721910512     0.658780230728     0.972079239294
    H            1.176414715534    -1.016109395188     1.171427633976
    C            3.244975939824     0.080462422932    -0.310694663439
    H            1.458275262259     0.611771555194    -1.381906666986
    H            1.756328583034    -1.097672066413    -1.294402072637
    C            3.489864488368     1.429553301077     0.361292720086
    H            3.864653621812     0.017955141501    -1.200046026093
    H            3.581202467633    -0.715916473908     0.348151161921
    H            3.153442124245     2.245841499608    -0.270203675153
    H            4.546457091898     1.576786269661     0.553986537878
    H            2.972538246934     1.510512210770     1.309653632012

  Mulliken Charges: (a.u.)
   Center  Symbol    Alpha    Beta     Spin     Total
       1     H     0.39536  0.39536  0.00000  0.20928
       2     O     4.20329  4.20329  0.00000 -0.40659
       3     C     2.97743  2.97743  0.00000  0.04514
       4     C     3.10257  3.10257  0.00000 -0.20515
       5     H     0.45902  0.45902  0.00000  0.08195
       6     H     0.46063  0.46063  0.00000  0.07874
       7     C     3.08955  3.08955  0.00000 -0.17910
       8     H     0.45898  0.45898  0.00000  0.08205
       9     H     0.45216  0.45216  0.00000  0.09567
      10     C     3.09529  3.09529  0.00000 -0.19058
      11     H     0.44645  0.44645  0.00000  0.10710
      12     H     0.45331  0.45331  0.00000  0.09337
      13     C     3.09402  3.09402  0.00000 -0.18804
      14     H     0.45435  0.45435  0.00000  0.09129
      15     H     0.45214  0.45214  0.00000  0.09572
      16     C     3.09045  3.09045  0.00000 -0.18090
      17     H     0.45436  0.45436  0.00000  0.09128
      18     H     0.44851  0.44851  0.00000  0.10298
      19     C     3.15313  3.15313  0.00000 -0.30626
      20     H     0.44869  0.44869  0.00000  0.10262
      21     H     0.45490  0.45490  0.00000  0.09020
      22     H     0.45525  0.45525  0.00000  0.08950
      23     H     0.44633  0.44633  0.00000  0.10734
      24     H     0.45382  0.45382  0.00000  0.09236

   Total alpha = 33.00000, Total beta = 33.00000, Total charge =  0.00000

*** Psi4 exiting successfully. Buy a developer a beer!
