  ==> Input File <==

--------------------------------------------------------------------------
set {
	reference rhf
	basis cc-pvtz
}

set_num_threads( 4 )
memory 2 gb

molecule MOL {
0 1

H	 0.019761	 -1.752767	 -0.099531
C	 -1.031290	 -1.551325	 0.094369
O	 -1.401606	 -0.295183	 -0.366624
H	 -1.627911	 -2.284553	 -0.428421
H	 -1.209476	 -1.653713	 1.163317
C	 -0.718530	 0.758693	 0.228682
C	 0.718529	 0.758687	 -0.228709
H	 -1.176498	 1.708665	 -0.046615
H	 -0.748705	 0.673525	 1.312779
O	 1.401606	 -0.295166	 0.366636
H	 0.748705	 0.673477	 -1.312803
H	 1.176496	 1.708671	 0.046552
C	 2.714315	 -0.441627	 -0.061017
H	 2.765292	 -0.641548	 -1.128869
H	 3.305661	 0.447341	 0.150952
H	 3.143725	 -1.278506	 0.470147

	symmetry c1
}
set optking {
	frozen_dihedral = ("
		2 3 6 7
	")
}

ee = optimize('scf')
oeprop('DIPOLE', 'QUADRUPOLE', 'MULLIKEN_CHARGES')
f=open( 'psi4out.xyz', 'w' )
f.write( "16  " )
f.write( str(ee) + "\n" )
f.write( MOL.save_string_xyz() )
f.close()
--------------------------------------------------------------------------

    Molecular point group: c1
  Charge       = 0
  Multiplicity = 1
  Basis Set: CC-PVTZ
  Basis Set:
  @DF-RHF Final Energy:  -307.08915321921972
    Total Energy =                       -307.0891532192196109
    Molecular point group: c1
  Basis Set: CC-PVTZ
  Basis Set:
  Basis Set: CC-PVTZ
  Basis Set:
  @DF-RHF Final Energy:  -307.09540303345125
    Total Energy =                       -307.0954030334512481
  Basis Set: CC-PVTZ
  Basis Set:
  Basis Set: CC-PVTZ
  Basis Set:
  @DF-RHF Final Energy:  -307.09620401621089
    Total Energy =                       -307.0962040162108906
  Basis Set: CC-PVTZ
  Basis Set:
  Basis Set: CC-PVTZ
  Basis Set:
  @DF-RHF Final Energy:  -307.09626710359532
    Total Energy =                       -307.0962671035953235
  Basis Set: CC-PVTZ
  Basis Set:
  Basis Set: CC-PVTZ
  Basis Set:
  @DF-RHF Final Energy:  -307.09628130372226
    Total Energy =                       -307.0962813037223214
  Basis Set: CC-PVTZ
  Basis Set:
  Basis Set: CC-PVTZ
  Basis Set:
  @DF-RHF Final Energy:  -307.09628409785836
    Total Energy =                       -307.0962840978584723
  Basis Set: CC-PVTZ
  Basis Set:
  Charge       = 0
  Multiplicity = 1
  Basis Set: CC-PVTZ
  Basis Set:

    Orbital Energies (a.u.)
    -----------------------

    Doubly Occupied:

       1A    -20.555540     2A    -20.544256     3A    -11.269901
       4A    -11.267984     5A    -11.266822     6A    -11.252775
       7A     -1.393423     8A     -1.371646     9A     -1.029221
      10A     -0.947493    11A     -0.891604    12A     -0.819846
      13A     -0.691504    14A     -0.681209    15A     -0.659760
      16A     -0.636254    17A     -0.627841    18A     -0.599119
      19A     -0.554187    20A     -0.528594    21A     -0.523320
      22A     -0.487107    23A     -0.461474    24A     -0.427225
      25A     -0.407167

  @DF-RHF Final Energy:  -307.09628438517854

   => Energetics <=

    Nuclear Repulsion Energy =            263.9473760019276938
    One-Electron Energy =                -942.2967780791123005
    Two-Electron Energy =                 371.2531176920059579
    DFT Exchange-Correlation Energy =       0.0000000000000000
    Empirical Dispersion Energy =           0.0000000000000000
    PCM Polarization Energy =               0.0000000000000000
    EFP Energy =                            0.0000000000000000
    Total Energy =                       -307.0962843851785919
    Molecular point group: c1
  Basis Set: CC-PVTZ
  Basis Set:

  -Total Gradient:
     Atom            X                  Y                   Z
    ------   -----------------  -----------------  -----------------
       1       -0.000026524839     0.000010893039    -0.000000612623
       2        0.000942168563    -0.000163151176    -0.001087545929
       3       -0.001157930052    -0.000161516465     0.002057751393
       4       -0.000011741375     0.000002394224    -0.000004530411
       5       -0.000004853737    -0.000000702072     0.000005709501
       6       -0.000085275038     0.001097126545    -0.001943067397
       7        0.000344916330    -0.000810711094     0.000993269584
       8       -0.000010771100     0.000009794616     0.000002525849
       9       -0.000004348395     0.000003823687    -0.000001963261
      10        0.000009561579     0.000025148777    -0.000036222711
      11        0.000001853794    -0.000003410178     0.000007351299
      12       -0.000000709571     0.000006127808    -0.000003005307
      13        0.000009155678    -0.000017273097     0.000007575105
      14       -0.000005283742     0.000001969783     0.000001028640
      15       -0.000007534034     0.000001664751     0.000001144708
      16        0.000007315931    -0.000002179150     0.000000591561

  **** Optimization is complete! (in 7 steps) ****
    Final optimized geometry and variables:
    Molecular point group: c1

    Geometry (in Angstrom), charge = 0, multiplicity = 1:

    H           -0.612474178515    -1.791311882812    -0.390434102874
    C           -1.526350117287    -1.411285871658     0.047407652459
    O           -1.782772013145    -0.092944031282    -0.331576565675
    H           -2.359655099989    -2.006964743428    -0.297731651824
    H           -1.451538401204    -1.504406535315     1.127625153727
    C           -0.975662990373     0.897967814035     0.218814215363
    C            0.460210090938     0.913188163695    -0.267712750408
    H           -1.434103202307     1.838309797131    -0.058981145014
    H           -0.974581944631     0.831366221657     1.305186896470
    O            1.205931798166    -0.082312892661     0.360490265132
    H            0.479355894638     0.781778770305    -1.348269447686
    H            0.887243013968     1.890751995881    -0.044021568318
    C            2.538772524392    -0.131106618677    -0.029608410285
    H            2.635584020398    -0.335727971001    -1.093402751510
    H            3.050471527900     0.803864854341     0.188251464679
    H            3.017240395249    -0.926326743813     0.523189712201

  Mulliken Charges: (a.u.)
   Center  Symbol    Alpha    Beta     Spin     Total
       1     H     0.46602  0.46602  0.00000  0.06796
       2     C     3.02816  3.02816  0.00000 -0.05633
       3     O     4.18014  4.18014  0.00000 -0.36029
       4     H     0.44901  0.44901  0.00000  0.10199
       5     H     0.47118  0.47118  0.00000  0.05764
       6     C     2.97712  2.97712  0.00000  0.04575
       7     C     2.98589  2.98589  0.00000  0.02821
       8     H     0.45028  0.45028  0.00000  0.09943
       9     H     0.46693  0.46693  0.00000  0.06614
      10     O     4.17605  4.17605  0.00000 -0.35211
      11     H     0.46539  0.46539  0.00000  0.06921
      12     H     0.46566  0.46566  0.00000  0.06867
      13     C     3.03479  3.03479  0.00000 -0.06959
      14     H     0.46901  0.46901  0.00000  0.06197
      15     H     0.46820  0.46820  0.00000  0.06360
      16     H     0.44614  0.44614  0.00000  0.10771

   Total alpha = 25.00000, Total beta = 25.00000, Total charge = -0.00000
