                              Psi4 1.0.54 Driver

  ==> Input File <==

--------------------------------------------------------------------------
set {
	reference rhf
	basis cc-pvtz
}

set_num_threads( 4 )
memory 2 gb

molecule MOL {
0 1

H	 2.828711	 -0.346904	 0.001083
C	 1.876752	 0.015931	 -0.363450
C	 0.776285	 -0.474665	 0.563092
H	 1.728113	 -0.357244	 -1.367440
H	 1.906171	 1.096574	 -0.386153
N	 -0.540022	 0.017605	 0.071630
H	 0.707111	 -1.548969	 0.573035
H	 0.886169	 -0.084184	 1.560432
O	 -1.207505	 -0.742805	 -0.545168
O	 -0.818455	 1.145369	 0.306193

	symmetry c1
}
set optking {
	frozen_dihedral = ("
		9 6 3 2
	")
}

ee,wfn = optimize('scf', return_wfn=True)
oeprop( wfn, 'DIPOLE', 'QUADRUPOLE', 'MULLIKEN_CHARGES')
f=open( 'psi4out.xyz', 'w' )
f.write( "10  " )
f.write( str(ee) + "\n" )
f.write( MOL.save_string_xyz() )
f.close()
--------------------------------------------------------------------------

    Molecular point group: c1
  Charge       = 0
  Multiplicity = 1
  Basis Set: CC-PVTZ
  Basis Set:
  @DF-RHF Final Energy:  -282.81332297719985
    Total Energy =                       -282.8133229771997321
    Molecular point group: c1
  Basis Set: CC-PVTZ
  Basis Set:
  Basis Set: CC-PVTZ
  Basis Set:
  @DF-RHF Final Energy:  -282.81254958352673
    Total Energy =                       -282.8125495835267884
  Basis Set: CC-PVTZ
  Basis Set:
  Basis Set: CC-PVTZ
  Basis Set:
  @DF-RHF Final Energy:  -282.81332682921925
    Total Energy =                       -282.8133268292192497
  Basis Set: CC-PVTZ
  Basis Set:
  Charge       = 0
  Multiplicity = 1
  Basis Set: CC-PVTZ
  Basis Set:

    Orbital Energies (a.u.)
    -----------------------

    Doubly Occupied:

       1A    -20.592951     2A    -20.590894     3A    -15.838411
       4A    -11.301798     5A    -11.250672     6A     -1.637704
       7A     -1.422174     8A     -1.126489     9A     -0.966840
      10A     -0.839668    11A     -0.763633    12A     -0.739885
      13A     -0.730181    14A     -0.659504    15A     -0.590587
      16A     -0.560347    17A     -0.549319    18A     -0.488587
      19A     -0.479329    20A     -0.454927

  @DF-RHF Final Energy:  -282.81333839733514

   => Energetics <=

    Nuclear Repulsion Energy =            186.7738874833173668
    One-Electron Energy =                -756.0066494136391384
    Two-Electron Energy =                 286.4194235329867979
    DFT Exchange-Correlation Energy =       0.0000000000000000
    Empirical Dispersion Energy =           0.0000000000000000
    PCM Polarization Energy =               0.0000000000000000
    EFP Energy =                            0.0000000000000000
    Total Energy =                       -282.8133383973349737
    Molecular point group: c1
  Basis Set: CC-PVTZ
  Basis Set:

  -Total Gradient:
     Atom            X                  Y                   Z
    ------   -----------------  -----------------  -----------------
       1       -0.000006944994     0.000011052555     0.000009534105
       2        0.000048053366     0.000061166622    -0.000023335488
       3       -0.000097891522    -0.000085621658    -0.000001719965
       4       -0.000011025305     0.000004370295     0.000002998046
       5       -0.000003179010    -0.000011489410     0.000017312547
       6       -0.000029004228     0.000206554163    -0.000138986270
       7       -0.000005255147     0.000011263050    -0.000000418245
       8       -0.000040155043     0.000020955697    -0.000020619261
       9        0.000012972353    -0.000112176592     0.000097192842
      10        0.000132429528    -0.000106074718     0.000058041691

  **** Optimization is complete! (in 4 steps) ****
    Final optimized geometry and variables:
    Molecular point group: c1

    Geometry (in Angstrom), charge = 0, multiplicity = 1:

    H            2.829486153491    -0.355807625871    -0.004463314873
    C            1.879302032698     0.014579304014    -0.366126559389
    C            0.777370483195    -0.475214186271     0.558664903121
    H            1.729064659139    -0.353806884180    -1.372236972274
    H            1.913186142963     1.094492444879    -0.384489236707
    N           -0.540115009904     0.018448311279     0.071099151433
    H            0.706052607676    -1.548701324452     0.574851141606
    H            0.888252201889    -0.080621467671     1.555121804265
    O           -1.212195390907    -0.736965784146    -0.546100386913
    O           -0.816321753967     1.144812174848     0.316168808310

  Mulliken Charges: (a.u.)
   Center  Symbol    Alpha    Beta     Spin     Total
       1     H     0.44797  0.44797  0.00000  0.10406
       2     C     3.14087  3.14087  0.00000 -0.28174
       3     C     3.03749  3.03749  0.00000 -0.07497
       4     H     0.44249  0.44249  0.00000  0.11503
       5     H     0.43916  0.43916  0.00000  0.12169
       6     N     3.27661  3.27661  0.00000  0.44678
       7     H     0.43391  0.43391  0.00000  0.13219
       8     H     0.43576  0.43576  0.00000  0.12848
       9     O     4.17116  4.17116  0.00000 -0.34232
      10     O     4.17460  4.17460  0.00000 -0.34919

   Total alpha = 20.00000, Total beta = 20.00000, Total charge = -0.00000

*** Psi4 exiting successfully. Buy a developer a beer!
