  ==> Input File <==

--------------------------------------------------------------------------
set {
	reference rhf
	basis 6-31G*
}

set_num_threads( 4 )
memory 2 gb

molecule MOL {
0 1

H	 -1.680419	 0.306597	 2.258331
C	 -1.230043	 0.145168	 1.298900
C	 -1.939842	 0.407365	 0.080310
C	 0.024815	 -0.311966	 1.200017
H	 -2.949572	 0.775277	 0.126475
C	 -1.355489	 0.197774	 -1.107994
H	 0.623302	 -0.532570	 2.063470
N	 0.640212	 -0.532897	 -0.000111
H	 -1.854883	 0.382477	 -2.039039
C	 0.010035	 -0.299627	 -1.215322
C	 2.010177	 -1.032049	 0.000042
O	 0.570785	 -0.500897	 -2.263776
H	 2.187698	 -1.635381	 -0.882279
H	 2.677579	 -0.189247	 -0.001871
H	 2.188882	 -1.632203	 0.884288

	symmetry c1
}
set optking {
	frozen_dihedral = ("
		10 8 11 13
	")
}

ee = optimize('scf')
oeprop('DIPOLE', 'QUADRUPOLE', 'MULLIKEN_CHARGES')
f=open( 'psi4out.xyz', 'w' )
f.write( "15  " )
f.write( str(ee) + "\n" )
f.write( MOL.save_string_xyz() )
f.close()
--------------------------------------------------------------------------

    Molecular point group: c1
  Charge       = 0
  Multiplicity = 1
  Basis Set: 6-31G*
  Basis Set:
  @DF-RHF Final Energy:  -360.59559955618539
    Total Energy =                       -360.5955995561854479
    Molecular point group: c1
  Basis Set: 6-31G*
  Basis Set:
  Basis Set: 6-31G*
  Basis Set:
  @DF-RHF Final Energy:  -360.59609286681990
    Total Energy =                       -360.5960928668196743
  Basis Set: 6-31G*
  Basis Set:
  Basis Set: 6-31G*
  Basis Set:
  @DF-RHF Final Energy:  -360.59615882129987
    Total Energy =                       -360.5961588212998095
  Basis Set: 6-31G*
  Basis Set:
  Basis Set: 6-31G*
  Basis Set:
  @DF-RHF Final Energy:  -360.59614669997114
    Total Energy =                       -360.5961466999713707
  Basis Set: 6-31G*
  Basis Set:
  Charge       = 0
  Multiplicity = 1
  Basis Set: 6-31G*
  Basis Set:

    Orbital Energies (a.u.)
    -----------------------

    Doubly Occupied:

       1A    -20.508758     2A    -15.621887     3A    -11.342507
       4A    -11.297305     5A    -11.265485     6A    -11.260386
       7A    -11.233277     8A    -11.228992     9A     -1.384688
      10A     -1.281015    11A     -1.114841    12A     -1.026007
      13A     -0.970159    14A     -0.872482    15A     -0.835547
      16A     -0.715705    17A     -0.698006    18A     -0.661049
      19A     -0.648096    20A     -0.622263    21A     -0.606571
      22A     -0.573279    23A     -0.550604    24A     -0.547183
      25A     -0.526959    26A     -0.476996    27A     -0.414128
      28A     -0.405505    29A     -0.304832

  @DF-RHF Final Energy:  -360.59618663991040

   => Energetics <=

    Nuclear Repulsion Energy =            357.7677757124712912
    One-Electron Energy =               -1198.7388972634034872
    Two-Electron Energy =                 480.3749349110219100
    DFT Exchange-Correlation Energy =       0.0000000000000000
    Empirical Dispersion Energy =           0.0000000000000000
    PCM Polarization Energy =               0.0000000000000000
    EFP Energy =                            0.0000000000000000
    Total Energy =                       -360.5961866399102291
    Molecular point group: c1
  Basis Set: 6-31G*
  Basis Set:

  -Total Gradient:
     Atom            X                  Y                   Z
    ------   -----------------  -----------------  -----------------
       1       -0.000003478150     0.000005373130     0.000000721267
       2        0.000094692089    -0.000003174552     0.000013026026
       3       -0.000034834971     0.000005015316    -0.000081188737
       4       -0.000138159188    -0.000029361344     0.000110731337
       5        0.000001774660     0.000002904336     0.000004934533
       6       -0.000081860151     0.000032566958     0.000042061149
       7        0.000014507819     0.000021399914    -0.000017650685
       8        0.000394927839     0.001049524728    -0.000222802788
       9        0.000008031518     0.000001570358    -0.000004391450
      10       -0.000115253601    -0.000662653686     0.000096634450
      11       -0.000386395934    -0.001106339428     0.000442950443
      12       -0.000009037174     0.000016721546    -0.000017707063
      13        0.000237313320     0.000635613263    -0.000373401748
      14        0.000004238304     0.000028365023     0.000000607231
      15        0.000013533620     0.000002474439     0.000005476034

  **** Optimization is complete! (in 5 steps) ****
    Final optimized geometry and variables:
    Molecular point group: c1

    Geometry (in Angstrom), charge = 0, multiplicity = 1:

    H           -1.593710283486     0.585923009526     2.533238390793
    C           -1.140492429562     0.416849282880     1.576528749132
    C           -1.847603028979     0.668134431115     0.354618928712
    C            0.113791867745    -0.045561966472     1.486474505358
    H           -2.857949184592     1.034827876790     0.396231797594
    C           -1.260676507091     0.449829648830    -0.831310804946
    H            0.706937095034    -0.260972541216     2.354248334230
    N            0.728790998671    -0.280755503098     0.289583496010
    H           -1.757243728942     0.627910406940    -1.765274533631
    C            0.108264109057    -0.037774324211    -0.927631474827
    C            2.103266830646    -0.766245949397     0.265838722471
    O            0.689366771271    -0.225641464815    -1.967592723209
    H            2.254276540513    -1.342336209274    -0.630673398006
    H            2.802945883824     0.061543094477     0.265133074046
    H            2.280094956787    -1.383816134090     1.135732596486

  Mulliken Charges: (a.u.)
   Center  Symbol    Alpha    Beta     Spin     Total
       1     H     0.39297  0.39297  0.00000  0.21405
       2     C     3.16199  3.16199  0.00000 -0.32397
       3     C     3.05826  3.05826  0.00000 -0.11652
       4     C     2.92126  2.92126  0.00000  0.15747
       5     H     0.39087  0.39087  0.00000  0.21825
       6     C     3.16967  3.16967  0.00000 -0.33934
       7     H     0.38785  0.38785  0.00000  0.22430
       8     N     3.86465  3.86465  0.00000 -0.72931
       9     H     0.38641  0.38641  0.00000  0.22718
      10     C     2.59536  2.59536  0.00000  0.80928
      11     C     3.14687  3.14687  0.00000 -0.29374
      12     O     4.32183  4.32183  0.00000 -0.64367
      13     H     0.38188  0.38188  0.00000  0.23624
      14     H     0.40594  0.40594  0.00000  0.18812
      15     H     0.41417  0.41417  0.00000  0.17165

   Total alpha = 29.00000, Total beta = 29.00000, Total charge =  0.00000
