  ==> Input File <==

--------------------------------------------------------------------------
set {
	reference rhf
	basis cc-pvtz
}

set_num_threads( 4 )
memory 2 gb

molecule MOL {
0 1

H	 -3.486185	 0.594275	 1.743139
C	 -3.495977	 0.172835	 0.728655
C	 -2.653809	 0.914422	 -0.273689
O	 -4.144970	 -0.786650	 0.493061
C	 -1.216901	 1.136108	 0.207794
H	 -2.681633	 0.376247	 -1.212266
H	 -3.132030	 1.879313	 -0.427291
C	 -0.247837	 0.040196	 -0.230469
H	 -0.872882	 2.093195	 -0.169002
H	 -1.209325	 1.218376	 1.291938
C	 1.181757	 0.280428	 0.247371
H	 -0.259600	 -0.030819	 -1.314870
H	 -0.591284	 -0.923375	 0.136958
C	 2.151032	 -0.811012	 -0.202643
H	 1.515939	 1.247397	 -0.115449
H	 1.191514	 0.341223	 1.333422
C	 3.580021	 -0.656538	 0.320835
H	 2.170545	 -0.847575	 -1.289412
H	 1.766632	 -1.772905	 0.124928
C	 4.327657	 0.562694	 -0.213579
H	 4.138806	 -1.549270	 0.057813
H	 3.561991	 -0.620783	 1.406976
H	 4.355973	 0.557257	 -1.298551
H	 3.867136	 1.491650	 0.100501
H	 5.351524	 0.571613	 0.142204

	symmetry c1
}
set optking {
	frozen_dihedral = ("
		6 3 5 8
	")
}

ee = optimize('scf')
oeprop('DIPOLE', 'QUADRUPOLE', 'MULLIKEN_CHARGES')
f=open( 'psi4out.xyz', 'w' )
f.write( "25  " )
f.write( str(ee) + "\n" )
f.write( MOL.save_string_xyz() )
f.close()
--------------------------------------------------------------------------

    Molecular point group: c1
  Charge       = 0
  Multiplicity = 1
  Basis Set: CC-PVTZ
  Basis Set:
  @DF-RHF Final Energy:  -387.25836768861478
    Total Energy =                       -387.2583676886147259
    Molecular point group: c1
  Basis Set: CC-PVTZ
  Basis Set:
  Basis Set: CC-PVTZ
  Basis Set:
  @DF-RHF Final Energy:  -387.25850252886778
    Total Energy =                       -387.2585025288680072
  Basis Set: CC-PVTZ
  Basis Set:
  Basis Set: CC-PVTZ
  Basis Set:
  @DF-RHF Final Energy:  -387.25625053806033
    Total Energy =                       -387.2562505380603852
  Basis Set: CC-PVTZ
  Basis Set:
  Basis Set: CC-PVTZ
  Basis Set:
  @DF-RHF Final Energy:  -387.25858188360678
    Total Energy =                       -387.2585818836066665
  Basis Set: CC-PVTZ
  Basis Set:
  @DF-RHF Final Energy:  -387.25861413155661
    Total Energy =                       -387.2586141315571240
  Basis Set: CC-PVTZ
  Basis Set:
  @DF-RHF Final Energy:  -387.25862898438442
    Total Energy =                       -387.2586289843844725
  Basis Set: CC-PVTZ
  Basis Set:
  Basis Set: CC-PVTZ
  Basis Set:
  @DF-RHF Final Energy:  -387.25863372792361
    Total Energy =                       -387.2586337279232112
  Basis Set: CC-PVTZ
  Basis Set:
  Basis Set: CC-PVTZ
  Basis Set:
  @DF-RHF Final Energy:  -387.25863620442107
    Total Energy =                       -387.2586362044212365
  Basis Set: CC-PVTZ
  Basis Set:
  Charge       = 0
  Multiplicity = 1
  Basis Set: CC-PVTZ
  Basis Set:

    Orbital Energies (a.u.)
    -----------------------

    Doubly Occupied:

       1A    -20.551854     2A    -11.320823     3A    -11.233700
       4A    -11.233045     5A    -11.220991     6A    -11.216983
       7A    -11.215897     8A    -11.214645     9A    -11.208627
      10A     -1.406734    11A     -1.104292    12A     -1.070204
      13A     -1.014338    14A     -0.943894    15A     -0.875368
      16A     -0.816000    17A     -0.793000    18A     -0.780776
      19A     -0.671528    20A     -0.662741    21A     -0.634828
      22A     -0.624999    23A     -0.605489    24A     -0.589441
      25A     -0.576757    26A     -0.554274    27A     -0.532690
      28A     -0.526044    29A     -0.513239    30A     -0.496866
      31A     -0.489007    32A     -0.480543    33A     -0.464811
      34A     -0.458884    35A     -0.442584    36A     -0.411701

  @DF-RHF Final Energy:  -387.25863632670217

   => Energetics <=

    Nuclear Repulsion Energy =            438.2752461681658929
    One-Electron Energy =               -1393.1525641766447734
    Two-Electron Energy =                 567.6186816817770477
    DFT Exchange-Correlation Energy =       0.0000000000000000
    Empirical Dispersion Energy =           0.0000000000000000
    PCM Polarization Energy =               0.0000000000000000
    EFP Energy =                            0.0000000000000000
    Total Energy =                       -387.2586363267017759
    Molecular point group: c1
  Basis Set: CC-PVTZ
  Basis Set:

  -Total Gradient:
     Atom            X                  Y                   Z
    ------   -----------------  -----------------  -----------------
       1       -0.000006804196     0.000004457775     0.000005857346
       2        0.000012774795    -0.000003928541    -0.000005396620
       3        0.000245554517     0.004346173316    -0.003220793794
       4       -0.000004386250    -0.000001704323     0.000001829933
       5       -0.000659238446    -0.002526059686     0.003517779649
       6       -0.000057348759    -0.003063346794     0.001878011197
       7       -0.000003431805    -0.000005775114     0.000005732965
       8        0.000478472586     0.001269337792    -0.002204507503
       9        0.000003633694     0.000007069498     0.000004623929
      10        0.000000777555    -0.000006597492    -0.000008162963
      11       -0.000006811204    -0.000009272801     0.000024875600
      12       -0.000012812193     0.000003154108    -0.000003200775
      13        0.000012009453    -0.000001703362     0.000001184828
      14        0.000000152840    -0.000016747601     0.000014512558
      15        0.000013004945     0.000013673648     0.000000078516
      16        0.000001750483     0.000000596864     0.000001481689
      17        0.000010639558    -0.000010112566    -0.000025543937
      18       -0.000000122741    -0.000011005737     0.000002717564
      19       -0.000000288621     0.000002918214     0.000008717176
      20       -0.000010848490    -0.000000689708     0.000003402368
      21        0.000007079690     0.000003883659    -0.000006188587
      22       -0.000003691218    -0.000006767202    -0.000005074535
      23       -0.000000657205    -0.000003177564     0.000004775270
      24       -0.000019926669     0.000012228675    -0.000000147106
      25        0.000000517691     0.000003394939     0.000003435232

  **** Optimization is complete! (in 9 steps) ****
    Final optimized geometry and variables:
    Molecular point group: c1

    Geometry (in Angstrom), charge = 0, multiplicity = 1:

    H           -3.462842625345     0.533628547909     1.619095733612
    C           -3.407802934017     0.064322110597     0.627608869865
    C           -2.629688230531     0.841322585184    -0.401511360032
    O           -3.934155151322    -0.976739617995     0.436101729781
    C           -1.181033281414     1.091723539704     0.051382441089
    H           -2.664157631610     0.275368987541    -1.322770080577
    H           -3.146511289233     1.785298776364    -0.546303373124
    C           -0.219810093883    -0.015062404734    -0.376813072358
    H           -0.838110919697     2.032334540474    -0.365276034745
    H           -1.149346916135     1.215447793013     1.130865579852
    C            1.207968351557     0.207252342784     0.114013530958
    H           -0.223566214374    -0.080519485469    -1.461273172082
    H           -0.581624953377    -0.973838748916    -0.014377870479
    C            2.170322856388    -0.887989925584    -0.341788243853
    H            1.553969344832     1.175281559882    -0.235138118019
    H            1.210472620239     0.255166817795     1.200683479498
    C            3.596501909197    -0.753711562987     0.194579060622
    H            2.198325063519    -0.911330348514    -1.428800938832
    H            1.773987917810    -1.849925302552    -0.029018685350
    C            4.358003822986     0.467506518623    -0.315134382464
    H            4.149954540031    -1.646890836102    -0.078098492481
    H            3.570374928084    -0.734644466863     1.280938324479
    H            4.394084193764     0.478960170947    -1.399849679253
    H            3.902858808282     1.395197999267     0.010355114460
    H            5.379333715480     0.462274818447     0.047965798738

  Mulliken Charges: (a.u.)
   Center  Symbol    Alpha    Beta     Spin     Total
       1     H     0.46605  0.46605  0.00000  0.06790
       2     C     2.90345  2.90345  0.00000  0.19310
       3     C     3.08957  3.08957  0.00000 -0.17914
       4     O     4.16554  4.16554  0.00000 -0.33107
       5     C     3.11335  3.11335  0.00000 -0.22670
       6     H     0.44403  0.44403  0.00000  0.11193
       7     H     0.43955  0.43955  0.00000  0.12090
       8     C     3.08782  3.08782  0.00000 -0.17564
       9     H     0.44395  0.44395  0.00000  0.11209
      10     H     0.45213  0.45213  0.00000  0.09575
      11     C     3.09337  3.09337  0.00000 -0.18673
      12     H     0.45104  0.45104  0.00000  0.09792
      13     H     0.44668  0.44668  0.00000  0.10663
      14     C     3.09562  3.09562  0.00000 -0.19123
      15     H     0.45244  0.45244  0.00000  0.09513
      16     H     0.45382  0.45382  0.00000  0.09236
      17     C     3.09056  3.09056  0.00000 -0.18113
      18     H     0.45344  0.45344  0.00000  0.09311
      19     H     0.44770  0.44770  0.00000  0.10460
      20     C     3.15273  3.15273  0.00000 -0.30547
      21     H     0.44772  0.44772  0.00000  0.10457
      22     H     0.45451  0.45451  0.00000  0.09097
      23     H     0.45469  0.45469  0.00000  0.09063
      24     H     0.45436  0.45436  0.00000  0.09129
      25     H     0.44588  0.44588  0.00000  0.10824

   Total alpha = 36.00000, Total beta = 36.00000, Total charge = -0.00000
