  ==> Input File <==

--------------------------------------------------------------------------
set {
	reference rhf
	basis 6-31G*
}

set_num_threads( 4 )
memory 2 gb

molecule MOL {
0 1

H	 -3.367136	 -0.525202	 -0.995304
O	 -3.517110	 -0.026191	 -0.205115
C	 -2.306886	 0.532354	 0.237577
C	 -1.177863	 -0.397191	 -0.171080
H	 -2.156308	 1.517575	 -0.201710
H	 -2.315015	 0.655684	 1.319734
C	 0.198102	 0.111031	 0.262842
H	 -1.208843	 -0.518759	 -1.250427
H	 -1.368741	 -1.376554	 0.258909
C	 1.331804	 -0.827780	 -0.158768
H	 0.361943	 1.100838	 -0.156218
H	 0.217265	 0.229072	 1.345532
C	 2.723619	 -0.410569	 0.329459
H	 1.342964	 -0.912588	 -1.244120
H	 1.116806	 -1.824343	 0.220779
C	 3.243875	 0.895854	 -0.272975
H	 3.424222	 -1.207124	 0.091250
H	 2.714788	 -0.329854	 1.414619
H	 3.251977	 0.848779	 -1.358681
H	 2.637085	 1.747371	 0.016682
H	 4.259473	 1.094070	 0.055697

	symmetry c1
}
set optking {
	frozen_dihedral = ("
		1 2 3 5
	")
}

ee = optimize('scf')
oeprop('DIPOLE', 'QUADRUPOLE', 'MULLIKEN_CHARGES')
f=open( 'psi4out.xyz', 'w' )
f.write( "21  " )
f.write( str(ee) + "\n" )
f.write( MOL.save_string_xyz() )
f.close()
--------------------------------------------------------------------------

    Molecular point group: c1
  Charge       = 0
  Multiplicity = 1
  Basis Set: 6-31G*
  Basis Set:
  @DF-RHF Final Energy:  -310.20958262092364
    Total Energy =                       -310.2095826209236407
    Molecular point group: c1
  Basis Set: 6-31G*
  Basis Set:
  Basis Set: 6-31G*
  Basis Set:
  @DF-RHF Final Energy:  -310.21125768549058
    Total Energy =                       -310.2112576854906365
  Basis Set: 6-31G*
  Basis Set:
  Basis Set: 6-31G*
  Basis Set:
  @DF-RHF Final Energy:  -310.21162948753840
    Total Energy =                       -310.2116294875387439
  Basis Set: 6-31G*
  Basis Set:
  Basis Set: 6-31G*
  Basis Set:
  @DF-RHF Final Energy:  -310.21163493817801
    Total Energy =                       -310.2116349381777809
  Basis Set: 6-31G*
  Basis Set:
  Basis Set: 6-31G*
  Basis Set:
  @DF-RHF Final Energy:  -310.21162820436274
    Total Energy =                       -310.2116282043625688
  Basis Set: 6-31G*
  Basis Set:
  Basis Set: 6-31G*
  Basis Set:
  @DF-RHF Final Energy:  -310.21163652944608
    Total Energy =                       -310.2116365294461389
  Basis Set: 6-31G*
  Basis Set:
  Charge       = 0
  Multiplicity = 1
  Basis Set: 6-31G*
  Basis Set:

    Orbital Energies (a.u.)
    -----------------------

    Doubly Occupied:

       1A    -20.550284     2A    -11.266120     3A    -11.222413
       4A    -11.221812     5A    -11.219348     6A    -11.218730
       7A    -11.211315     8A     -1.357517     9A     -1.091752
      10A     -1.037052    11A     -0.956594    12A     -0.881095
      13A     -0.824613    14A     -0.783346    15A     -0.680910
      16A     -0.648403    17A     -0.625637    18A     -0.621131
      19A     -0.590807    20A     -0.573672    21A     -0.551091
      22A     -0.526753    23A     -0.506505    24A     -0.501639
      25A     -0.483416    26A     -0.466166    27A     -0.460900
      28A     -0.449680    29A     -0.426494

  @DF-RHF Final Energy:  -310.21163644274390

   => Energetics <=

    Nuclear Repulsion Energy =            312.3918073175070163
    One-Electron Energy =               -1039.2964976334792482
    Two-Electron Energy =                 416.6930538732282798
    DFT Exchange-Correlation Energy =       0.0000000000000000
    Empirical Dispersion Energy =           0.0000000000000000
    PCM Polarization Energy =               0.0000000000000000
    EFP Energy =                            0.0000000000000000
    Total Energy =                       -310.2116364427438953
    Molecular point group: c1
  Basis Set: 6-31G*
  Basis Set:

  -Total Gradient:
     Atom            X                  Y                   Z
    ------   -----------------  -----------------  -----------------
       1        0.000396218390    -0.001886277963     0.001147685231
       2       -0.000726887991     0.002494726096    -0.000995474623
       3        0.001058915804    -0.001425553006    -0.001764700276
       4        0.000023005908    -0.000005527168     0.000015854426
       5       -0.000748888971     0.000812874132     0.001611728067
       6        0.000013852494     0.000002395805     0.000000427831
       7        0.000012371679     0.000004531533    -0.000015580387
       8       -0.000001096928     0.000009712026     0.000001218904
       9        0.000001738009    -0.000007312094    -0.000004487165
      10       -0.000006267117    -0.000013153249     0.000008236365
      11        0.000002102881     0.000007217075    -0.000008339250
      12        0.000003864807     0.000001197157    -0.000005431607
      13       -0.000007214485     0.000000219839     0.000009503712
      14        0.000003016297     0.000000618243    -0.000000635900
      15       -0.000015333978    -0.000001415265     0.000000113220
      16       -0.000006392977     0.000004179780     0.000001603907
      17       -0.000009281507     0.000002506710    -0.000007925073
      18        0.000010277401    -0.000006373664     0.000004594062
      19        0.000003570618    -0.000001992813     0.000002832127
      20       -0.000006220705     0.000003944086    -0.000004424475
      21       -0.000001349614     0.000003482738     0.000003200902

  **** Optimization is complete! (in 7 steps) ****
    Final optimized geometry and variables:
    Molecular point group: c1

    Geometry (in Angstrom), charge = 0, multiplicity = 1:

    H           -3.511748672170    -0.453922675570    -0.952705471228
    O           -3.575701943834     0.027718332872    -0.140270867177
    C           -2.310796331149     0.523512433334     0.217422460357
    C           -1.172597118906    -0.407672408563    -0.178442447108
    H           -2.162248642893     1.513418893251    -0.210747417680
    H           -2.329116965428     0.647300023305     1.293980188162
    C            0.200289069014     0.108953476438     0.255804434456
    H           -1.181552641612    -0.540156201625    -1.260910022963
    H           -1.358241157445    -1.386113206702     0.258151426842
    C            1.341289661174    -0.825611781967    -0.155106159955
    H            0.358016709965     1.097321674800    -0.167877363549
    H            0.211055491590     0.232633830423     1.337413381178
    C            2.727046124790    -0.398290436040     0.341560216453
    H            1.361155307151    -0.913800570561    -1.240236013538
    H            1.129441724797    -1.822049960883     0.226667903544
    C            3.241767004115     0.911264635240    -0.258741607992
    H            3.434177339646    -1.190383964415     0.108267507438
    H            2.710573433243    -0.317067699230     1.426467026327
    H            3.257719851879     0.863287933578    -1.344333492541
    H            2.627364427213     1.758862693497     0.026215717629
    H            4.253608299749     1.116703602742     0.076614658684

  Mulliken Charges: (a.u.)
   Center  Symbol    Alpha    Beta     Spin     Total
       1     H     0.28221  0.28221  0.00000  0.43558
       2     O     4.37524  4.37524  0.00000 -0.75048
       3     C     2.97585  2.97585  0.00000  0.04829
       4     C     3.18026  3.18026  0.00000 -0.36052
       5     H     0.43055  0.43055  0.00000  0.13890
       6     H     0.41969  0.41969  0.00000  0.16061
       7     C     3.16032  3.16032  0.00000 -0.32064
       8     H     0.42684  0.42684  0.00000  0.14632
       9     H     0.41483  0.41483  0.00000  0.17034
      10     C     3.15226  3.15226  0.00000 -0.30451
      11     H     0.41916  0.41916  0.00000  0.16167
      12     H     0.42076  0.42076  0.00000  0.15849
      13     C     3.15282  3.15282  0.00000 -0.30564
      14     H     0.42374  0.42374  0.00000  0.15252
      15     H     0.42090  0.42090  0.00000  0.15821
      16     C     3.24158  3.24158  0.00000 -0.48317
      17     H     0.42007  0.42007  0.00000  0.15986
      18     H     0.42251  0.42251  0.00000  0.15498
      19     H     0.42210  0.42210  0.00000  0.15580
      20     H     0.41999  0.41999  0.00000  0.16003
      21     H     0.41833  0.41833  0.00000  0.16335

   Total alpha = 29.00000, Total beta = 29.00000, Total charge = -0.00000
