  ==> Input File <==

--------------------------------------------------------------------------
set {
	reference rhf
	basis 6-31G*
}

set_num_threads( 1 )
memory 2 gb

molecule MOL {
0 1

H	 3.276176	 0.174363	 -0.109463
N	 2.434251	 -0.367735	 -0.081097
C	 1.267428	 0.496480	 0.024474
H	 2.501951	 -0.965776	 0.720575
C	 -0.016086	 -0.325158	 -0.029487
H	 1.288818	 1.183521	 -0.816092
H	 1.267576	 1.109062	 0.929528
C	 -1.282277	 0.529072	 0.046735
H	 -0.012495	 -0.908639	 -0.945788
H	 -0.015903	 -1.041248	 0.791956
C	 -1.133407	 1.730696	 0.979280
H	 -2.112891	 -0.087194	 0.384793
H	 -1.546899	 0.877684	 -0.949459
H	 -0.903059	 1.413622	 1.992258
H	 -2.046549	 2.316704	 1.015169
H	 -0.332413	 2.386074	 0.648963

	symmetry c1
}
set optking {
	frozen_dihedral = ("
		6 3 5 9,
		1 2 3 6
	")
}

ee = energy('scf')
oeprop('DIPOLE', 'QUADRUPOLE', 'MULLIKEN_CHARGES')
f=open( 'psi4out.xyz', 'w' )
f.write( "16  " )
f.write( str(ee) + "\n" )
f.write( MOL.save_string_xyz() )
f.close()
--------------------------------------------------------------------------

    Molecular point group: c1

    Geometry (in Angstrom), charge = 0, multiplicity = 1:

       Center              X                  Y                   Z               Mass
    ------------   -----------------  -----------------  -----------------  -----------------
           H          2.982153140612    -0.243378460396    -0.312058262745     1.007825032070
           N          2.140228140612    -0.785476460396    -0.283692262745    14.003074004780
           C          0.973405140612     0.078738539604    -0.178121262745    12.000000000000
           H          2.207928140612    -1.383517460396     0.517979737255     1.007825032070
           C         -0.310108859388    -0.742899460396    -0.232082262745    12.000000000000
           H          0.994795140612     0.765779539604    -1.018687262745     1.007825032070
           H          0.973553140612     0.691320539604     0.726932737255     1.007825032070
           C         -1.576299859388     0.111330539604    -0.155860262745    12.000000000000
           H         -0.306517859388    -1.326380460396    -1.148383262745     1.007825032070
           H         -0.309925859388    -1.458989460396     0.589360737255     1.007825032070
           C         -1.427429859388     1.312954539604     0.776684737255    12.000000000000
           H         -2.406913859388    -0.504935460396     0.182197737255     1.007825032070
           H         -1.840921859388     0.459942539604    -1.152054262745     1.007825032070
           H         -1.197081859388     0.995880539604     1.789662737255     1.007825032070
           H         -2.340571859388     1.898962539604     0.812573737255     1.007825032070
           H         -0.626435859388     1.968332539604     0.446367737255     1.007825032070

  Charge       = 0
  Multiplicity = 1
  Basis Set: 6-31G*
  Basis Set:

    Orbital Energies (a.u.)
    -----------------------

    Doubly Occupied:

       1A    -15.531569     2A    -11.238466     3A    -11.214726
       4A    -11.209160     5A    -11.208426     6A     -1.176179
       7A     -1.061984     8A     -0.951207     9A     -0.865123
      10A     -0.774357    11A     -0.657067    12A     -0.640346
      13A     -0.625184    14A     -0.567137    15A     -0.551925
      16A     -0.537209    17A     -0.508043    18A     -0.468343
      19A     -0.465259    20A     -0.454800    21A     -0.378588

  @DF-RHF Final Energy:  -212.30991031705128

   => Energetics <=

    Nuclear Repulsion Energy =            190.7191443104453583
    One-Electron Energy =                -663.8878107693834636
    Two-Electron Energy =                 260.8587561418867153
    DFT Exchange-Correlation Energy =       0.0000000000000000
    Empirical Dispersion Energy =           0.0000000000000000
    PCM Polarization Energy =               0.0000000000000000
    EFP Energy =                            0.0000000000000000
    Total Energy =                       -212.3099103170513899

  Mulliken Charges: (a.u.)
   Center  Symbol    Alpha    Beta     Spin     Total
       1     H     0.33278  0.33278  0.00000  0.33443
       2     N     3.92216  3.92216  0.00000 -0.84432
       3     C     3.06592  3.06592  0.00000 -0.13185
       4     H     0.33559  0.33559  0.00000  0.32882
       5     C     3.15224  3.15224  0.00000 -0.30448
       6     H     0.42142  0.42142  0.00000  0.15716
       7     H     0.42927  0.42927  0.00000  0.14147
       8     C     3.15480  3.15480  0.00000 -0.30960
       9     H     0.41098  0.41098  0.00000  0.17804
      10     H     0.42749  0.42749  0.00000  0.14503
      11     C     3.24747  3.24747  0.00000 -0.49494
      12     H     0.41979  0.41979  0.00000  0.16043
      13     H     0.42104  0.42104  0.00000  0.15793
      14     H     0.42210  0.42210  0.00000  0.15580
      15     H     0.41832  0.41832  0.00000  0.16336
      16     H     0.41864  0.41864  0.00000  0.16273

   Total alpha = 21.00000, Total beta = 21.00000, Total charge =  0.00000
