  ==> Input File <==

--------------------------------------------------------------------------
set {
	reference rhf
	basis 6-31G*
}

set_num_threads( 1 )
memory 2 gb

molecule MOL {
0 1

H	 -2.798360	 -0.862255	 -0.071053
N	 -1.863561	 -0.715187	 0.256814
C	 -1.344686	 0.554728	 -0.219830
H	 -1.300452	 -1.461917	 -0.101532
C	 0.081427	 0.741154	 0.254071
H	 -1.362155	 0.656231	 -1.305829
H	 -1.952773	 1.354456	 0.191809
O	 0.874168	 -0.245412	 -0.342030
H	 0.444037	 1.730782	 -0.023037
H	 0.121165	 0.653424	 1.337565
C	 1.683336	 -0.946836	 0.547251
H	 2.244730	 -1.673943	 -0.023581
H	 2.381630	 -0.285171	 1.056730
H	 1.091602	 -1.467564	 1.297253

	symmetry c1
}
set optking {
	frozen_dihedral = ("
		8 5 3 6,
		6 3 2 4,
		5 8 11 13
	")
}

ee = energy('scf')
oeprop('DIPOLE', 'QUADRUPOLE', 'MULLIKEN_CHARGES')
f=open( 'psi4out.xyz', 'w' )
f.write( "14  " )
f.write( str(ee) + "\n" )
f.write( MOL.save_string_xyz() )
f.close()
--------------------------------------------------------------------------

    Molecular point group: c1

    Geometry (in Angstrom), charge = 0, multiplicity = 1:

       Center              X                  Y                   Z               Mass
    ------------   -----------------  -----------------  -----------------  -----------------
           H         -2.688968600373    -0.714147756189    -0.170697142976     1.007825032070
           N         -1.754169600373    -0.567079756189     0.157169857024    14.003074004780
           C         -1.235294600373     0.702835243811    -0.319474142976    12.000000000000
           H         -1.191060600373    -1.313809756189    -0.201176142976     1.007825032070
           C          0.190818399627     0.889261243811     0.154426857024    12.000000000000
           H         -1.252763600373     0.804338243811    -1.405473142976     1.007825032070
           H         -1.843381600373     1.502563243811     0.092164857024     1.007825032070
           O          0.983559399627    -0.097304756189    -0.441674142976    15.994914619560
           H          0.553428399627     1.878889243811    -0.122681142976     1.007825032070
           H          0.230556399627     0.801531243811     1.237920857024     1.007825032070
           C          1.792727399627    -0.798728756189     0.447606857024    12.000000000000
           H          2.354121399627    -1.525835756189    -0.123225142976     1.007825032070
           H          2.491021399627    -0.137063756189     0.957085857024     1.007825032070
           H          1.200993399627    -1.319456756189     1.197608857024     1.007825032070

  Charge       = 0
  Multiplicity = 1
  Basis Set: 6-31G*
  Basis Set:

    Orbital Energies (a.u.)
    -----------------------

    Doubly Occupied:

       1A    -20.555272     2A    -15.531286     3A    -11.265296
       4A    -11.265031     5A    -11.239594     6A     -1.380975
       7A     -1.175281     8A     -0.999143     9A     -0.907277
      10A     -0.815579    11A     -0.687699    12A     -0.669463
      13A     -0.645612    14A     -0.615173    15A     -0.599608
      16A     -0.541402    17A     -0.530829    18A     -0.499721
      19A     -0.474167    20A     -0.414239    21A     -0.380755

  @DF-RHF Final Energy:  -248.12171590991539

   => Energetics <=

    Nuclear Repulsion Energy =            196.6943712477179815
    One-Electron Energy =                -727.2453844382100669
    Two-Electron Energy =                 282.4292972805761792
    DFT Exchange-Correlation Energy =       0.0000000000000000
    Empirical Dispersion Energy =           0.0000000000000000
    PCM Polarization Energy =               0.0000000000000000
    EFP Energy =                            0.0000000000000000
    Total Energy =                       -248.1217159099159062

  Mulliken Charges: (a.u.)
   Center  Symbol    Alpha    Beta     Spin     Total
       1     H     0.33159  0.33159  0.00000  0.33683
       2     N     3.92765  3.92765  0.00000 -0.85531
       3     C     3.06614  3.06614  0.00000 -0.13228
       4     H     0.32618  0.32618  0.00000  0.34764
       5     C     2.99485  2.99485  0.00000  0.01030
       6     H     0.42617  0.42617  0.00000  0.14766
       7     H     0.42225  0.42225  0.00000  0.15549
       8     O     4.30930  4.30930  0.00000 -0.61859
       9     H     0.42397  0.42397  0.00000  0.15206
      10     H     0.42156  0.42156  0.00000  0.15687
      11     C     3.08411  3.08411  0.00000 -0.16822
      12     H     0.41409  0.41409  0.00000  0.17181
      13     H     0.42825  0.42825  0.00000  0.14350
      14     H     0.42389  0.42389  0.00000  0.15223

   Total alpha = 21.00000, Total beta = 21.00000, Total charge =  0.00000
