  ==> Input File <==

--------------------------------------------------------------------------
set {
	reference rhf
	basis 6-31G*
}

set_num_threads( 4 )
memory 2 gb

molecule MOL {
0 1

O	 -3.183766	 0.575285	 0.974676
C	 -2.668563	 0.129746	 -0.000350
C	 -3.292509	 0.167632	 -1.371672
O	 -1.481751	 -0.454642	 0.000584
H	 -3.486256	 1.199975	 -1.637361
H	 -2.657834	 -0.290271	 -2.115952
H	 -4.245953	 -0.345626	 -1.334380
C	 -0.334255	 0.388708	 0.000906
C	 0.891947	 -0.504646	 0.000751
H	 -0.365390	 1.025305	 -0.873475
H	 -0.365484	 1.024911	 0.875569
C	 2.191998	 0.301789	 0.000897
H	 0.855148	 -1.151283	 -0.871571
H	 0.855132	 -1.151660	 0.872805
C	 3.441114	 -0.581407	 0.000108
H	 2.215074	 0.954890	 -0.869742
H	 2.215465	 0.953923	 0.872248
C	 4.739576	 0.224112	 -0.001102
H	 3.419457	 -1.233487	 -0.870178
H	 3.420834	 -1.233096	 0.870717
H	 4.804918	 0.861552	 -0.878265
H	 5.606527	 -0.429058	 -0.001824
H	 4.806469	 0.861674	 0.875853

	symmetry c1
}
set optking {
	frozen_dihedral = ("
		1 2 4 8
	")
}

ee = optimize('scf')
oeprop('DIPOLE', 'QUADRUPOLE', 'MULLIKEN_CHARGES')
f=open( 'psi4out.xyz', 'w' )
f.write( "23  " )
f.write( str(ee) + "\n" )
f.write( MOL.save_string_xyz() )
f.close()
--------------------------------------------------------------------------

    Molecular point group: c1
  Charge       = 0
  Multiplicity = 1
  Basis Set: 6-31G*
  Basis Set:
  @DF-RHF Final Energy:  -422.95866625801062
    Total Energy =                       -422.9586662580109078
    Molecular point group: c1
  Basis Set: 6-31G*
  Basis Set:
  Basis Set: 6-31G*
  Basis Set:
  @DF-RHF Final Energy:  -422.95817412699859
    Total Energy =                       -422.9581741269985287
  Basis Set: 6-31G*
  Basis Set:
  Basis Set: 6-31G*
  Basis Set:
  @DF-RHF Final Energy:  -422.95953244378717
    Total Energy =                       -422.9595324437868840
  Basis Set: 6-31G*
  Basis Set:
  Basis Set: 6-31G*
  Basis Set:
  @DF-RHF Final Energy:  -422.96002083867165
    Total Energy =                       -422.9600208386714257
  Basis Set: 6-31G*
  Basis Set:
  @DF-RHF Final Energy:  -422.96003007488235
    Total Energy =                       -422.9600300748827522
  @DF-RHF Final Energy:  -422.96003959956380
    Total Energy =                       -422.9600395995630606
  @DF-RHF Final Energy:  -422.96006903775640
    Total Energy =                       -422.9600690377568526
  @DF-RHF Final Energy:  -422.85685168681800
    Total Energy =                       -422.8568516868182314
  @DF-RHF Final Energy:  -422.94277232095237
    Total Energy =                       -422.9427723209521446
  @DF-RHF Final Energy:  -422.95968678062900
    Total Energy =                       -422.9596867806287719
  @DF-RHF Final Energy:  -422.96039913710422
    Total Energy =                       -422.9603991371036500
  @DF-RHF Final Energy:  -422.96113088374545
    Total Energy =                       -422.9611308837452270
  @DF-RHF Final Energy:  -422.96167351654879
    Total Energy =                       -422.9616735165495811
  @DF-RHF Final Energy:  -422.96192082210877
    Total Energy =                       -422.9619208221090503
  Basis Set: 6-31G*
  Basis Set:
  @DF-RHF Final Energy:  -422.96199617625501
    Total Energy =                       -422.9619961762555249
  Basis Set: 6-31G*
  Basis Set:
  Basis Set: 6-31G*
  Basis Set:
  @DF-RHF Final Energy:  -422.96204038617543
    Total Energy =                       -422.9620403861752038
  Basis Set: 6-31G*
  Basis Set:
  Basis Set: 6-31G*
  Basis Set:
  @DF-RHF Final Energy:  -422.96207497484716
    Total Energy =                       -422.9620749748476101
  Basis Set: 6-31G*
  Basis Set:
  Charge       = 0
  Multiplicity = 1
  Basis Set: 6-31G*
  Basis Set:

    Orbital Energies (a.u.)
    -----------------------

    Doubly Occupied:

       1A    -20.582641     2A    -20.555234     3A    -11.376413
       4A    -11.291156     5A    -11.236057     6A    -11.226415
       7A    -11.225729     8A    -11.223052     9A    -11.214252
      10A     -1.457354    11A     -1.365289    12A     -1.094655
      13A     -1.037910    14A     -1.007710    15A     -0.933406
      16A     -0.842151    17A     -0.804583    18A     -0.774073
      19A     -0.697401    20A     -0.685393    21A     -0.654486
      22A     -0.648753    23A     -0.617939    24A     -0.590541
      25A     -0.583160    26A     -0.574309    27A     -0.559399
      28A     -0.548684    29A     -0.514981    30A     -0.502000
      31A     -0.492113    32A     -0.479156    33A     -0.473179
      34A     -0.471358    35A     -0.450522    36A     -0.433841

  @DF-RHF Final Energy:  -422.96207540669946

   => Energetics <=

    Nuclear Repulsion Energy =            448.7196904207388570
    One-Electron Energy =               -1464.9129434877550011
    Two-Electron Energy =                 593.2311776603156659
    DFT Exchange-Correlation Energy =       0.0000000000000000
    Empirical Dispersion Energy =           0.0000000000000000
    PCM Polarization Energy =               0.0000000000000000
    EFP Energy =                            0.0000000000000000
    Total Energy =                       -422.9620754067004782
    Molecular point group: c1
  Basis Set: 6-31G*
  Basis Set:

  -Total Gradient:
     Atom            X                  Y                   Z
    ------   -----------------  -----------------  -----------------
       1       -0.002297257310    -0.004074638034     0.001193169709
       2        0.003125417570     0.005978203096    -0.003387358683
       3        0.000031945348     0.000054219785    -0.000046429095
       4       -0.000929053357    -0.001853018141     0.006103460447
       5        0.000032504681    -0.000009171714     0.000035464322
       6       -0.000006923796    -0.000012051485    -0.000045997397
       7        0.000003490149    -0.000024421822    -0.000007700972
       8       -0.000013319773    -0.000123641279    -0.003846468653
       9       -0.000003320204     0.000034570008     0.000001218005
      10        0.000029549355     0.000011626600    -0.000010394146
      11        0.000023832284    -0.000005252668     0.000002848051
      12        0.000008843708    -0.000003537542     0.000015505175
      13       -0.000018557673     0.000014511720    -0.000000233627
      14       -0.000011151301     0.000004107036     0.000002167577
      15        0.000001215714     0.000013722812    -0.000012546856
      16        0.000004162529    -0.000006992894     0.000003539647
      17        0.000002821157     0.000004886248     0.000001677129
      18        0.000011321062    -0.000005388271     0.000005107591
      19       -0.000001618185     0.000000494829    -0.000002007395
      20        0.000000420272     0.000001849370    -0.000002897943
      21        0.000001574326    -0.000004029833    -0.000000988100
      22        0.000007763801     0.000003056473     0.000004090201
      23       -0.000003660349     0.000000895706    -0.000005224988

  **** Optimization is complete! (in 18 steps) ****
    Final optimized geometry and variables:
    Molecular point group: c1

    Geometry (in Angstrom), charge = 0, multiplicity = 1:

    O           -3.149244819243     0.651410811865     1.017999816505
    C           -2.693379442761     0.178146124753     0.035480249440
    C           -3.394412214087     0.128745055434    -1.295153068120
    O           -1.501689147867    -0.458294164282     0.028620658786
    H           -4.342588895059     0.642563433307    -1.237956274249
    H           -2.772863181223     0.579985072965    -2.061412115443
    H           -3.549810957293    -0.907406737854    -1.575251623152
    C           -0.337584948722     0.355143221932    -0.012090294991
    C            0.874301444870    -0.553785775518     0.062604439943
    H           -0.331383085191     0.929401460468    -0.935170315724
    H           -0.358272719574     1.048260191459     0.820825651074
    C            2.189850554987     0.225796295599     0.021967632792
    H            0.830669178307    -1.258713138477    -0.762668354883
    H            0.809864761305    -1.134736040627     0.977604883676
    C            3.420432880324    -0.679825152214     0.100098337636
    H            2.237584729355     0.814596873591    -0.892787945233
    H            2.216893817078     0.937281291245     0.845398632822
    C            4.735096718291     0.097917298529     0.059962187132
    H            3.395698762565    -1.391192332605    -0.722319004863
    H            3.375649604171    -1.267559435417     1.014010550178
    H            4.825235442364     0.669381275984    -0.859533056083
    H            5.588159290937    -0.570645120405     0.118416573294
    H            4.803892202053     0.795143330164     0.890083033776

  Mulliken Charges: (a.u.)
   Center  Symbol    Alpha    Beta     Spin     Total
       1     O     4.25245  4.25245  0.00000 -0.50491
       2     C     2.62541  2.62541  0.00000  0.74919
       3     C     3.28561  3.28561  0.00000 -0.57122
       4     O     4.32176  4.32176  0.00000 -0.64351
       5     H     0.39753  0.39753  0.00000  0.20494
       6     H     0.40694  0.40694  0.00000  0.18613
       7     H     0.39769  0.39769  0.00000  0.20461
       8     C     2.99455  2.99455  0.00000  0.01091
       9     C     3.16343  3.16343  0.00000 -0.32686
      10     H     0.42555  0.42555  0.00000  0.14890
      11     H     0.41006  0.41006  0.00000  0.17987
      12     C     3.16094  3.16094  0.00000 -0.32189
      13     H     0.41374  0.41374  0.00000  0.17252
      14     H     0.40908  0.40908  0.00000  0.18184
      15     C     3.15160  3.15160  0.00000 -0.30320
      16     H     0.42268  0.42268  0.00000  0.15463
      17     H     0.42017  0.42017  0.00000  0.15966
      18     C     3.23996  3.23996  0.00000 -0.47992
      19     H     0.42129  0.42129  0.00000  0.15742
      20     H     0.42005  0.42005  0.00000  0.15990
      21     H     0.42143  0.42143  0.00000  0.15715
      22     H     0.41751  0.41751  0.00000  0.16498
      23     H     0.42058  0.42058  0.00000  0.15885

   Total alpha = 36.00000, Total beta = 36.00000, Total charge =  0.00000
