                              Psi4 1.0.54 Driver

  ==> Input File <==

--------------------------------------------------------------------------
set {
	reference rhf
	basis cc-pvtz
}

set_num_threads( 4 )
memory 2 gb

molecule MOL {
0 1

H	 -1.062961	 1.996723	 -1.184926
C	 -1.579737	 1.133495	 -0.778204
O	 -0.775228	 0.000056	 -0.739966
H	 -2.411978	 0.902956	 -1.428111
H	 -1.975928	 1.395210	 0.197588
C	 0.406133	 -0.000384	 0.036994
C	 1.526415	 -0.003194	 -0.997339
C	 0.498772	 1.259027	 0.900673
C	 0.495883	 -1.257378	 0.904465
H	 1.452279	 0.872071	 -1.630204
H	 1.451276	 -0.881020	 -1.626529
H	 2.497919	 -0.002741	 -0.517601
H	 0.368981	 2.144239	 0.289753
H	 1.470064	 1.313479	 1.377660
H	 -0.248448	 1.271586	 1.684297
H	 0.363971	 -2.144195	 0.296316
H	 1.467114	 -1.312636	 1.381470
H	 -0.251246	 -1.265768	 1.688235

	symmetry c1
}
set optking {
	frozen_dihedral = ("
		2 3 6 7
	")
}

ee,wfn = optimize('scf', return_wfn=True)
oeprop( wfn, 'DIPOLE', 'QUADRUPOLE', 'MULLIKEN_CHARGES')
f=open( 'psi4out.xyz', 'w' )
f.write( "18  " )
f.write( str(ee) + "\n" )
f.write( MOL.save_string_xyz() )
f.close()
--------------------------------------------------------------------------

    Molecular point group: c1
  Charge       = 0
  Multiplicity = 1
  Basis Set: CC-PVTZ
  Basis Set:
  @DF-RHF Final Energy:  -271.26852790543700
    Total Energy =                       -271.2685279054371676
    Molecular point group: c1
  Basis Set: CC-PVTZ
  Basis Set:
  Basis Set: CC-PVTZ
  Basis Set:
  @DF-RHF Final Energy:  -271.24444039475151
    Total Energy =                       -271.2444403947515639
  Basis Set: CC-PVTZ
  Basis Set:
  Basis Set: CC-PVTZ
  Basis Set:
  @DF-RHF Final Energy:  -271.27131273198108
    Total Energy =                       -271.2713127319807995
  Basis Set: CC-PVTZ
  Basis Set:
  Basis Set: CC-PVTZ
  Basis Set:
  @DF-RHF Final Energy:  -271.27261898919846
    Total Energy =                       -271.2726189891986337
  Basis Set: CC-PVTZ
  Basis Set:
  @DF-RHF Final Energy:  -271.27263101248343
    Total Energy =                       -271.2726310124832025
  Basis Set: CC-PVTZ
  Basis Set:
  @DF-RHF Final Energy:  -271.27280746068925
    Total Energy =                       -271.2728074606890232
  Basis Set: CC-PVTZ
  Basis Set:
  Basis Set: CC-PVTZ
  Basis Set:
  @DF-RHF Final Energy:  -271.27281647288117
    Total Energy =                       -271.2728164728811748
  Basis Set: CC-PVTZ
  Basis Set:
  Basis Set: CC-PVTZ
  Basis Set:
  @DF-RHF Final Energy:  -271.27281905545283
    Total Energy =                       -271.2728190554526009
  Basis Set: CC-PVTZ
  Basis Set:
  Charge       = 0
  Multiplicity = 1
  Basis Set: CC-PVTZ
  Basis Set:

    Orbital Energies (a.u.)
    -----------------------

    Doubly Occupied:

       1A    -20.537471     2A    -11.280640     3A    -11.259442
       4A    -11.211738     5A    -11.202634     6A    -11.201682
       7A     -1.369739     8A     -1.075494     9A     -0.951669
      10A     -0.935353    11A     -0.912348    12A     -0.752308
      13A     -0.657632    14A     -0.647987    15A     -0.638694
      16A     -0.583548    17A     -0.577536    18A     -0.549203
      19A     -0.542091    20A     -0.527077    21A     -0.515306
      22A     -0.491080    23A     -0.484360    24A     -0.443710
      25A     -0.399102

  @DF-RHF Final Energy:  -271.27281932276730

   => Energetics <=

    Nuclear Repulsion Energy =            272.0739611778536755
    One-Electron Energy =                -907.1978672810322450
    Two-Electron Energy =                 363.8510867804113786
    DFT Exchange-Correlation Energy =       0.0000000000000000
    Empirical Dispersion Energy =           0.0000000000000000
    PCM Polarization Energy =               0.0000000000000000
    EFP Energy =                            0.0000000000000000
    Total Energy =                       -271.2728193227671909
    Molecular point group: c1
  Basis Set: CC-PVTZ
  Basis Set:

  -Total Gradient:
     Atom            X                  Y                   Z
    ------   -----------------  -----------------  -----------------
       1       -0.000019827126    -0.000007407884     0.000015293255
       2       -0.000894461017    -0.000166941345     0.002105149038
       3        0.001355003598    -0.000282258138    -0.002934004969
       4        0.000017099947     0.000016606512     0.000009461117
       5        0.000010977866    -0.000014304844    -0.000021919185
       6       -0.000533224804     0.002161261681     0.000232640862
       7        0.000207701335    -0.001732443609     0.000566177288
       8       -0.000033623641     0.000046943526     0.000020272710
       9       -0.000075798195     0.000013061512     0.000006335317
      10        0.000016144837    -0.000006541400    -0.000018896464
      11       -0.000002527740     0.000012885764     0.000008705799
      12        0.000013857559     0.000007703247    -0.000016317066
      13        0.000004648974    -0.000039607297     0.000041554481
      14       -0.000050777599    -0.000027754012    -0.000025984226
      15        0.000014549784     0.000010436639    -0.000001619432
      16       -0.000013329219    -0.000000875369     0.000008801931
      17       -0.000005023314     0.000009165034    -0.000024261348
      18       -0.000011391243     0.000000069979     0.000028610892

  **** Optimization is complete! (in 9 steps) ****
    Final optimized geometry and variables:
    Molecular point group: c1

    Geometry (in Angstrom), charge = 0, multiplicity = 1:

    H           -1.455926940884     1.294259661531    -1.446825967792
    C           -1.824893421718     0.587610014423    -0.708511233198
    O           -0.900106295555    -0.405123976014    -0.408860073549
    H           -2.687828264127     0.088321279264    -1.126119985148
    H           -2.145424044891     1.139794678991     0.168416311168
    C            0.372866971208    -0.103841632263     0.144512216345
    C            1.410474525855    -0.389071689673    -0.940252657207
    C            0.509249141385     1.332419040082     0.649086345000
    C            0.550893562518    -1.075983338811     1.308421942681
    H            1.270522190260     0.273644603999    -1.787051185556
    H            1.306235205163    -1.407682046253    -1.290867507654
    H            2.419178908485    -0.252852667733    -0.566588353880
    H            0.394909856670     2.058332380096    -0.145481126203
    H            1.497465527443     1.462946760734     1.071688478882
    H           -0.211842361232     1.554367416736     1.425515192090
    H            0.417532831331    -2.093523863391     0.964195795100
    H            1.538557458705    -0.986306875639     1.746587255659
    H           -0.186226172727    -0.882563095533     2.078588314867

  Mulliken Charges: (a.u.)
   Center  Symbol    Alpha    Beta     Spin     Total
       1     H     0.46998  0.46998  0.00000  0.06005
       2     C     3.04123  3.04123  0.00000 -0.08246
       3     O     4.19909  4.19909  0.00000 -0.39818
       4     H     0.44273  0.44273  0.00000  0.11454
       5     H     0.46854  0.46854  0.00000  0.06292
       6     C     2.87046  2.87046  0.00000  0.25909
       7     C     3.14347  3.14347  0.00000 -0.28694
       8     C     3.17666  3.17666  0.00000 -0.35332
       9     C     3.14060  3.14060  0.00000 -0.28119
      10     H     0.45177  0.45177  0.00000  0.09645
      11     H     0.44801  0.44801  0.00000  0.10398
      12     H     0.45672  0.45672  0.00000  0.08656
      13     H     0.44431  0.44431  0.00000  0.11137
      14     H     0.44248  0.44248  0.00000  0.11503
      15     H     0.44500  0.44500  0.00000  0.11000
      16     H     0.44770  0.44770  0.00000  0.10459
      17     H     0.45889  0.45889  0.00000  0.08223
      18     H     0.45236  0.45236  0.00000  0.09528

   Total alpha = 25.00000, Total beta = 25.00000, Total charge = -0.00000

*** Psi4 exiting successfully. Buy a developer a beer!
