  ==> Input File <==

--------------------------------------------------------------------------
set {
	reference rhf
	basis 6-31G*
}

set_num_threads( 4 )
memory 2 gb

molecule MOL {
0 1

H	 -3.261111	 -0.295142	 1.469456
C	 -3.306842	 -0.277400	 0.373456
C	 -2.660244	 0.921717	 -0.272021
O	 -3.838538	 -1.161155	 -0.216482
C	 -1.929012	 1.812967	 0.741501
H	 -1.992036	 0.572379	 -1.050590
H	 -3.454497	 1.496527	 -0.746797
C	 -0.703822	 1.144249	 1.370011
H	 -1.623665	 2.726021	 0.239126
H	 -2.623634	 2.115750	 1.523536
C	 0.021443	 2.047860	 2.369158
H	 -0.015328	 0.849268	 0.580829
H	 -1.001094	 0.223940	 1.869210
C	 1.255396	 1.381843	 2.983758
H	 0.306634	 2.969337	 1.867883
H	 -0.666890	 2.331706	 3.164151
C	 1.967998	 2.218372	 4.052630
H	 1.961628	 1.132893	 2.193218
H	 0.954456	 0.436210	 3.429769
C	 2.613919	 3.502173	 3.528930
H	 2.738217	 1.603794	 4.511985
H	 1.264573	 2.464816	 4.845334
H	 3.311022	 3.287618	 2.723149
H	 1.877093	 4.203139	 3.151164
H	 3.165970	 4.004704	 4.317408

	symmetry c1
}
set optking {
	frozen_dihedral = ("
		6 3 2 4
	")
}

ee = optimize('scf')
oeprop('DIPOLE', 'QUADRUPOLE', 'MULLIKEN_CHARGES')
f=open( 'psi4out.xyz', 'w' )
f.write( "25  " )
f.write( str(ee) + "\n" )
f.write( MOL.save_string_xyz() )
f.close()
--------------------------------------------------------------------------

    Molecular point group: c1
  Charge       = 0
  Multiplicity = 1
  Basis Set: 6-31G*
  Basis Set:
  @DF-RHF Final Energy:  -387.12005673226605
    Total Energy =                       -387.1200567322657662
    Molecular point group: c1
  Basis Set: 6-31G*
  Basis Set:
  Basis Set: 6-31G*
  Basis Set:
  @DF-RHF Final Energy:  -387.11934637183441
    Total Energy =                       -387.1193463718338990
  Basis Set: 6-31G*
  Basis Set:
  Basis Set: 6-31G*
  Basis Set:
  @DF-RHF Final Energy:  -387.12025759767533
    Total Energy =                       -387.1202575976747084
  Basis Set: 6-31G*
  Basis Set:
  Basis Set: 6-31G*
  Basis Set:
  @DF-RHF Final Energy:  -387.12061235914337
    Total Energy =                       -387.1206123591431378
  Basis Set: 6-31G*
  Basis Set:
  @DF-RHF Final Energy:  -387.12045998374953
    Total Energy =                       -387.1204599837492424
  Basis Set: 6-31G*
  Basis Set:
  @DF-RHF Final Energy:  -387.12062215860453
    Total Energy =                       -387.1206221586043057
  Basis Set: 6-31G*
  Basis Set:
  Basis Set: 6-31G*
  Basis Set:
  @DF-RHF Final Energy:  -387.12062696396259
    Total Energy =                       -387.1206269639624225
  Basis Set: 6-31G*
  Basis Set:
  Basis Set: 6-31G*
  Basis Set:
  @DF-RHF Final Energy:  -387.12062909932820
    Total Energy =                       -387.1206290993279708
  Basis Set: 6-31G*
  Basis Set:
  Charge       = 0
  Multiplicity = 1
  Basis Set: 6-31G*
  Basis Set:

    Orbital Energies (a.u.)
    -----------------------

    Doubly Occupied:

       1A    -20.560650     2A    -11.327130     3A    -11.235093
       4A    -11.233094     5A    -11.227194     6A    -11.221884
       7A    -11.219832     8A    -11.219151     9A    -11.212089
      10A     -1.401779    11A     -1.105428    12A     -1.070684
      13A     -1.013965    14A     -0.942668    15A     -0.875423
      16A     -0.823323    17A     -0.790352    18A     -0.783813
      19A     -0.664049    20A     -0.656472    21A     -0.633782
      22A     -0.628861    23A     -0.610820    24A     -0.596857
      25A     -0.569100    26A     -0.552518    27A     -0.541647
      28A     -0.524435    29A     -0.505900    30A     -0.500836
      31A     -0.488472    32A     -0.480419    33A     -0.466715
      34A     -0.461021    35A     -0.443459    36A     -0.408763

  @DF-RHF Final Energy:  -387.12062998796688

   => Energetics <=

    Nuclear Repulsion Energy =            436.2444483699659372
    One-Electron Energy =               -1388.7347992605768923
    Two-Electron Energy =                 565.3697209026441897
    DFT Exchange-Correlation Energy =       0.0000000000000000
    Empirical Dispersion Energy =           0.0000000000000000
    PCM Polarization Energy =               0.0000000000000000
    EFP Energy =                            0.0000000000000000
    Total Energy =                       -387.1206299879667085
    Molecular point group: c1
  Basis Set: 6-31G*
  Basis Set:

  -Total Gradient:
     Atom            X                  Y                   Z
    ------   -----------------  -----------------  -----------------
       1       -0.000014184237    -0.000016985338    -0.000001305514
       2        0.001509824024    -0.000892563092     0.000156192442
       3       -0.001390999642     0.000324085038    -0.000965570254
       4       -0.000961578042     0.000595431979     0.000005571769
       5        0.000087207269     0.000030276755    -0.000001588119
       6        0.000765564418    -0.000062091119     0.000765178528
       7        0.000013003077    -0.000024248304    -0.000003300708
       8       -0.000044652638    -0.000011923682     0.000059764730
       9        0.000014656777     0.000027354693     0.000015902759
      10        0.000034885516    -0.000013159755     0.000010960423
      11       -0.000003650190     0.000016934994    -0.000015601788
      12       -0.000021797600     0.000018937077    -0.000015842282
      13        0.000004545526    -0.000012269781    -0.000000417013
      14        0.000010855034     0.000011707962    -0.000033354262
      15       -0.000013403671    -0.000022284203     0.000001077179
      16        0.000004985898     0.000004364738     0.000006580654
      17       -0.000040241905     0.000019935129     0.000009832645
      18        0.000005461547     0.000009190848    -0.000008923957
      19        0.000006778777    -0.000002135911    -0.000004851729
      20        0.000018476438     0.000003034379     0.000003831028
      21       -0.000010829041    -0.000005695832    -0.000000060922
      22       -0.000004321259     0.000008981393     0.000001677232
      23        0.000002425038     0.000003019931    -0.000006243269
      24        0.000023490415    -0.000003404956     0.000023111286
      25        0.000003498484    -0.000006492941    -0.000002620856

  **** Optimization is complete! (in 9 steps) ****
    Final optimized geometry and variables:
    Molecular point group: c1

    Geometry (in Angstrom), charge = 0, multiplicity = 1:

    H           -2.697253435138    -1.555350434198    -0.181330301953
    C           -2.647947962236    -1.552405906822    -1.276545276820
    C           -1.916536334153    -0.389791080116    -1.913960645155
    O           -3.180310935907    -2.413473229703    -1.898239465971
    C           -1.180916850574     0.508783068239    -0.917514802564
    H           -1.229086684201    -0.795290897518    -2.650679973494
    H           -2.660951541362     0.178407538841    -2.466257646319
    C            0.054547484483    -0.149570131536    -0.297099447552
    H           -0.880602841334     1.421428134465    -1.424350144583
    H           -1.867763613807     0.814200198184    -0.129652058581
    C            0.772900942141     0.752126029302     0.708724137826
    H            0.744527312572    -0.425799627188    -1.092353161340
    H           -0.226469920418    -1.079573575219     0.194733161479
    C            2.019398942099     0.097291919752     1.309854826500
    H            1.041340601736     1.683557065407     0.216943026057
    H            0.084436186663     1.016131266263     1.510097178022
    C            2.719247477174     0.927227209226     2.392207866409
    H            2.728716873607    -0.124621987562     0.514101750991
    H            1.736454567807    -0.861472621231     1.739544496394
    C            3.342625721986     2.230914043100     1.890163842217
    H            3.499913325997     0.317825842301     2.840533707242
    H            2.012227087890     1.147859687510     3.189369736757
    H            4.044815368222     2.042022617583     1.082533497782
    H            2.594039367318     2.924885726415     1.522506948025
    H            3.884397375378     2.730361680284     2.687368639855

  Mulliken Charges: (a.u.)
   Center  Symbol    Alpha    Beta     Spin     Total
       1     H     0.42906  0.42906  0.00000  0.14189
       2     C     2.83620  2.83620  0.00000  0.32760
       3     C     3.20700  3.20700  0.00000 -0.41401
       4     O     4.24096  4.24096  0.00000 -0.48193
       5     C     3.16746  3.16746  0.00000 -0.33493
       6     H     0.39903  0.39903  0.00000  0.20193
       7     H     0.39738  0.39738  0.00000  0.20523
       8     C     3.15535  3.15535  0.00000 -0.31070
       9     H     0.41338  0.41338  0.00000  0.17325
      10     H     0.41959  0.41959  0.00000  0.16082
      11     C     3.15372  3.15372  0.00000 -0.30744
      12     H     0.41944  0.41944  0.00000  0.16112
      13     H     0.42254  0.42254  0.00000  0.15493
      14     C     3.15307  3.15307  0.00000 -0.30615
      15     H     0.42014  0.42014  0.00000  0.15972
      16     H     0.42317  0.42317  0.00000  0.15367
      17     C     3.15281  3.15281  0.00000 -0.30561
      18     H     0.42321  0.42321  0.00000  0.15358
      19     H     0.42150  0.42150  0.00000  0.15700
      20     C     3.24146  3.24146  0.00000 -0.48291
      21     H     0.41989  0.41989  0.00000  0.16022
      22     H     0.42299  0.42299  0.00000  0.15401
      23     H     0.42187  0.42187  0.00000  0.15626
      24     H     0.42043  0.42043  0.00000  0.15915
      25     H     0.41835  0.41835  0.00000  0.16330

   Total alpha = 36.00000, Total beta = 36.00000, Total charge =  0.00000
