  ==> Input File <==

--------------------------------------------------------------------------
set {
	reference rhf
	basis cc-pvtz
}

set_num_threads( 4 )
memory 2 gb

molecule MOL {
0 1

H	 -0.321163	 2.988555	 -0.795501
C	 0.411613	 2.326128	 -0.314806
C	 0.062554	 0.862911	 -0.350953
O	 1.388467	 2.779235	 0.172641
C	 -1.339253	 0.577611	 0.196911
H	 0.820815	 0.314161	 0.192561
H	 0.108422	 0.556294	 -1.393524
C	 -1.813142	 -0.849710	 -0.061612
H	 -2.032833	 1.276441	 -0.256032
H	 -1.357249	 0.782269	 1.263793
H	 -1.839268	 -1.063526	 -1.124230
H	 -2.810118	 -1.001930	 0.334000
H	 -1.159274	 -1.579980	 0.402282

	symmetry c1
}
set optking {
	frozen_dihedral = ("
		6 3 5 9
	")
}

ee = optimize('scf')
oeprop('DIPOLE', 'QUADRUPOLE', 'MULLIKEN_CHARGES')
f=open( 'psi4out.xyz', 'w' )
f.write( "13  " )
f.write( str(ee) + "\n" )
f.write( MOL.save_string_xyz() )
f.close()
--------------------------------------------------------------------------

    Molecular point group: c1
  Charge       = 0
  Multiplicity = 1
  Basis Set: CC-PVTZ
  Basis Set:
  @DF-RHF Final Energy:  -231.07099235654229
    Total Energy =                       -231.0709923565422628
    Molecular point group: c1
  Basis Set: CC-PVTZ
  Basis Set:
  Basis Set: CC-PVTZ
  Basis Set:
  @DF-RHF Final Energy:  -231.07111131162355
    Total Energy =                       -231.0711113116235822
  Basis Set: CC-PVTZ
  Basis Set:
  Basis Set: CC-PVTZ
  Basis Set:
  @DF-RHF Final Energy:  -231.07090761933617
    Total Energy =                       -231.0709076193361966
  Basis Set: CC-PVTZ
  Basis Set:
  Basis Set: CC-PVTZ
  Basis Set:
  @DF-RHF Final Energy:  -231.07113423328715
    Total Energy =                       -231.0711342332868412
  Basis Set: CC-PVTZ
  Basis Set:
  Basis Set: CC-PVTZ
  Basis Set:
  @DF-RHF Final Energy:  -231.07114206646165
    Total Energy =                       -231.0711420664619027
  Basis Set: CC-PVTZ
  Basis Set:
  Basis Set: CC-PVTZ
  Basis Set:
  @DF-RHF Final Energy:  -231.07114693679981
    Total Energy =                       -231.0711469367997779
  Basis Set: CC-PVTZ
  Basis Set:
  Charge       = 0
  Multiplicity = 1
  Basis Set: CC-PVTZ
  Basis Set:

    Orbital Energies (a.u.)
    -----------------------

    Doubly Occupied:

       1A    -20.552722     2A    -11.321744     3A    -11.237471
       4A    -11.234736     5A    -11.222281     6A     -1.407490
       7A     -1.088449     8A     -0.977664     9A     -0.840788
      10A     -0.794506    11A     -0.681218    12A     -0.644439
      13A     -0.631667    14A     -0.590637    15A     -0.559956
      16A     -0.533350    17A     -0.517445    18A     -0.492093
      19A     -0.485937    20A     -0.413093

  @DF-RHF Final Energy:  -231.07114718321415

   => Energetics <=

    Nuclear Repulsion Energy =            170.8761400087070967
    One-Electron Energy =                -651.4392047610629106
    Two-Electron Energy =                 249.4919175691415774
    DFT Exchange-Correlation Energy =       0.0000000000000000
    Empirical Dispersion Energy =           0.0000000000000000
    PCM Polarization Energy =               0.0000000000000000
    EFP Energy =                            0.0000000000000000
    Total Energy =                       -231.0711471832142081
    Molecular point group: c1
  Basis Set: CC-PVTZ
  Basis Set:

  -Total Gradient:
     Atom            X                  Y                   Z
    ------   -----------------  -----------------  -----------------
       1        0.000010629874    -0.000000758136     0.000010406936
       2       -0.000012056970    -0.000015174217    -0.000027328008
       3       -0.000141825445    -0.001060327830    -0.000827501976
       4        0.000019471485     0.000013779765     0.000016025391
       5       -0.000228637663    -0.000776172638    -0.000950856366
       6        0.000133996885     0.001018864055     0.000838565408
       7       -0.000002138566    -0.000002685864    -0.000006920385
       8       -0.000005870477    -0.000019774003    -0.000011915715
       9        0.000238134148     0.000829913957     0.000959664860
      10       -0.000009612357     0.000008698216     0.000003193464
      11       -0.000003648334    -0.000001663159    -0.000003069717
      12        0.000002018714    -0.000004668696     0.000001207508
      13       -0.000000461292     0.000009968547    -0.000001471400

  **** Optimization is complete! (in 7 steps) ****
    Final optimized geometry and variables:
    Molecular point group: c1

    Geometry (in Angstrom), charge = 0, multiplicity = 1:

    H           -0.002179806313     1.856333662267    -0.797753594328
    C            0.679624403498     1.186820108296    -0.256856036014
    C            0.325382945316    -0.273655719692    -0.322058873674
    O            1.608302208024     1.631540092887     0.323869905726
    C           -1.074416180684    -0.544301805059     0.237028644917
    H            1.079138321453    -0.827315433961     0.222130627430
    H            0.364122129204    -0.572791477088    -1.367258844017
    C           -1.538165108342    -1.976118407915    -0.002743856222
    H           -1.783305013683     0.150341091467    -0.204626426085
    H           -1.072584385229    -0.336234871866     1.302222708603
    H           -1.594532138562    -2.196349944655    -1.063213319314
    H           -2.519658067202    -2.142960338470     0.424302287190
    H           -0.854816694689    -2.687428189641     0.447597939954

  Mulliken Charges: (a.u.)
   Center  Symbol    Alpha    Beta     Spin     Total
       1     H     0.46550  0.46550  0.00000  0.06900
       2     C     2.90710  2.90710  0.00000  0.18581
       3     C     3.07790  3.07790  0.00000 -0.15580
       4     O     4.16376  4.16376  0.00000 -0.32751
       5     C     3.09588  3.09588  0.00000 -0.19176
       6     H     0.44233  0.44233  0.00000  0.11533
       7     H     0.45141  0.45141  0.00000  0.09717
       8     C     3.14720  3.14720  0.00000 -0.29440
       9     H     0.45228  0.45228  0.00000  0.09544
      10     H     0.44539  0.44539  0.00000  0.10922
      11     H     0.45418  0.45418  0.00000  0.09164
      12     H     0.44575  0.44575  0.00000  0.10850
      13     H     0.45132  0.45132  0.00000  0.09736

   Total alpha = 20.00000, Total beta = 20.00000, Total charge =  0.00000
