  ==> Input File <==

--------------------------------------------------------------------------
set {
	reference rhf
	basis cc-pvtz
}

set_num_threads( 4 )
memory 2 gb

molecule MOL {
0 1

H	 1.248768	 0.112550	 0.967449
C	 0.848385	 0.440008	 0.000011
C	 -0.623497	 0.751021	 0.000090
O	 1.560665	 0.525332	 -0.939468
C	 -1.523725	 -0.474323	 -0.000013
H	 -0.813143	 1.382932	 -0.864897
H	 -0.813071	 1.382716	 0.865253
H	 -1.342980	 -1.087348	 -0.873016
H	 -2.565269	 -0.177464	 0.000070
H	 -1.342898	 -1.087564	 0.872820

	symmetry c1
}
set optking {
	frozen_dihedral = ("
		4 2 3 6
	")
}

ee = optimize('scf')
oeprop('DIPOLE', 'QUADRUPOLE', 'MULLIKEN_CHARGES')
f=open( 'psi4out.xyz', 'w' )
f.write( "10  " )
f.write( str(ee) + "\n" )
f.write( MOL.save_string_xyz() )
f.close()
--------------------------------------------------------------------------

    Molecular point group: c1
  Charge       = 0
  Multiplicity = 1
  Basis Set: CC-PVTZ
  Basis Set:
  @DF-RHF Final Energy:  -192.02203197526728
    Total Energy =                       -192.0220319752672538
    Molecular point group: c1
  Basis Set: CC-PVTZ
  Basis Set:
  Basis Set: CC-PVTZ
  Basis Set:
  @DF-RHF Final Energy:  -192.02231052936054
    Total Energy =                       -192.0223105293605954
  Basis Set: CC-PVTZ
  Basis Set:
  Basis Set: CC-PVTZ
  Basis Set:
  @DF-RHF Final Energy:  -192.02170713808425
    Total Energy =                       -192.0217071380844231
  Basis Set: CC-PVTZ
  Basis Set:
  Basis Set: CC-PVTZ
  Basis Set:
  @DF-RHF Final Energy:  -192.02287740761074
    Total Energy =                       -192.0228774076107356
  Basis Set: CC-PVTZ
  Basis Set:
  Basis Set: CC-PVTZ
  Basis Set:
  @DF-RHF Final Energy:  -192.02288470833224
    Total Energy =                       -192.0228847083322989
  Basis Set: CC-PVTZ
  Basis Set:
  Charge       = 0
  Multiplicity = 1
  Basis Set: CC-PVTZ
  Basis Set:

    Orbital Energies (a.u.)
    -----------------------

    Doubly Occupied:

       1A    -20.553577     2A    -11.322649     3A    -11.237848
       4A    -11.232434     5A     -1.408473     6A     -1.067077
       7A     -0.905372     8A     -0.791937     9A     -0.681677
      10A     -0.643874    11A     -0.609217    12A     -0.576090
      13A     -0.544069    14A     -0.511832    15A     -0.500987
      16A     -0.414689

  @DF-RHF Final Energy:  -192.02288498258250

   => Energetics <=

    Nuclear Repulsion Energy =            118.0381343192168231
    One-Electron Energy =                -494.1184361285073123
    Two-Electron Energy =                 184.0574168267079926
    DFT Exchange-Correlation Energy =       0.0000000000000000
    Empirical Dispersion Energy =           0.0000000000000000
    PCM Polarization Energy =               0.0000000000000000
    EFP Energy =                            0.0000000000000000
    Total Energy =                       -192.0228849825825250
    Molecular point group: c1
  Basis Set: CC-PVTZ
  Basis Set:

  -Total Gradient:
     Atom            X                  Y                   Z
    ------   -----------------  -----------------  -----------------
       1        0.000010978192    -0.000003100243    -0.000018634286
       2        0.000483906269     0.002032614836     0.000572347882
       3       -0.000457119855    -0.001812048348    -0.000931085797
       4       -0.000292845349    -0.001241839389    -0.000278421570
       5        0.000016831142     0.000014397799     0.000008606748
       6        0.000250833715     0.001021971398     0.000654989898
       7       -0.000006101473    -0.000010088170    -0.000007326653
       8       -0.000001570819    -0.000002994602    -0.000001085777
       9       -0.000002244917     0.000006753845    -0.000000734310
      10       -0.000002666902    -0.000005667126     0.000001343865

  **** Optimization is complete! (in 6 steps) ****
    Final optimized geometry and variables:
    Molecular point group: c1

    Geometry (in Angstrom), charge = 0, multiplicity = 1:

    H            1.159590826753    -0.203788714777     1.218997375835
    C            0.772166583926     0.139031121948     0.250679686458
    C           -0.688413482671     0.500496063104     0.232100663928
    O            1.481879037739     0.167812566177    -0.694292139542
    C           -1.557847865498    -0.759978469347     0.239873525637
    H           -0.882986658834     1.104500892752    -0.643749602743
    H           -0.905839651216     1.096959219510     1.113153076341
    H           -1.384887777205    -1.351858088433    -0.650153850013
    H           -2.606506288290    -0.494728862804     0.272158653917
    H           -1.346072331872    -1.380198843224     1.103998537169

  Mulliken Charges: (a.u.)
   Center  Symbol    Alpha    Beta     Spin     Total
       1     H     0.46383  0.46383  0.00000  0.07235
       2     C     2.90167  2.90167  0.00000  0.19665
       3     C     3.08028  3.08028  0.00000 -0.16055
       4     O     4.16567  4.16567  0.00000 -0.33135
       5     C     3.14858  3.14858  0.00000 -0.29716
       6     H     0.44268  0.44268  0.00000  0.11464
       7     H     0.45275  0.45275  0.00000  0.09450
       8     H     0.44542  0.44542  0.00000  0.10916
       9     H     0.44532  0.44532  0.00000  0.10935
      10     H     0.45380  0.45380  0.00000  0.09240

   Total alpha = 16.00000, Total beta = 16.00000, Total charge =  0.00000
