  ==> Input File <==

--------------------------------------------------------------------------
set {
	reference rhf
	basis cc-pvtz
}

set_num_threads( 4 )
memory 2 gb

molecule MOL {
0 1

H	 -2.297630	 1.018154	 1.996028
C	 -1.647066	 0.939421	 2.864043
O	 -0.374828	 0.512015	 2.508693
H	 -1.553362	 1.915231	 3.317808
H	 -2.110398	 0.263801	 3.580804
C	 -0.336449	 -0.744700	 1.916382
C	 1.072022	 -1.060087	 1.479249
H	 -0.665036	 -1.505640	 2.624175
H	 -0.996125	 -0.783267	 1.052223
O	 1.401606	 -0.295166	 0.366636
H	 1.755239	 -0.858101	 2.301348
H	 1.138111	 -2.121495	 1.240469
C	 2.714315	 -0.441627	 -0.061017
H	 2.765292	 -0.641548	 -1.128869
H	 3.305661	 0.447341	 0.150952
H	 3.143725	 -1.278506	 0.470147

	symmetry c1
}
set optking {
	frozen_dihedral = ("
		7 10 13 14
	")
}

ee = optimize('scf')
oeprop('DIPOLE', 'QUADRUPOLE', 'MULLIKEN_CHARGES')
f=open( 'psi4out.xyz', 'w' )
f.write( "16  " )
f.write( str(ee) + "\n" )
f.write( MOL.save_string_xyz() )
f.close()
--------------------------------------------------------------------------

    Molecular point group: c1
  Charge       = 0
  Multiplicity = 1
  Basis Set: CC-PVTZ
  Basis Set:
  @DF-RHF Final Energy:  -307.09345372926788
    Total Energy =                       -307.0934537292679352
    Molecular point group: c1
  Basis Set: CC-PVTZ
  Basis Set:
  Basis Set: CC-PVTZ
  Basis Set:
  @DF-RHF Final Energy:  -307.09429110260379
    Total Energy =                       -307.0942911026037905
  Basis Set: CC-PVTZ
  Basis Set:
  Basis Set: CC-PVTZ
  Basis Set:
  @DF-RHF Final Energy:  -307.09453256108770
    Total Energy =                       -307.0945325610874761
  Basis Set: CC-PVTZ
  Basis Set:
  Charge       = 0
  Multiplicity = 1
  Basis Set: CC-PVTZ
  Basis Set:

    Orbital Energies (a.u.)
    -----------------------

    Doubly Occupied:

       1A    -20.547443     2A    -20.544306     3A    -11.267772
       4A    -11.266561     5A    -11.261329     6A    -11.261108
       7A     -1.389611     8A     -1.371666     9A     -1.031707
      10A     -0.937197    11A     -0.892207    12A     -0.823998
      13A     -0.685044    14A     -0.681169    15A     -0.658541
      16A     -0.636246    17A     -0.630756    18A     -0.597003
      19A     -0.554572    20A     -0.538639    21A     -0.508301
      22A     -0.478956    23A     -0.463948    24A     -0.420949
      25A     -0.410571

  @DF-RHF Final Energy:  -307.09453436488832

   => Energetics <=

    Nuclear Repulsion Energy =            258.6335018717788898
    One-Electron Energy =                -931.7368805186767986
    Two-Electron Energy =                 366.0088442820092496
    DFT Exchange-Correlation Energy =       0.0000000000000000
    Empirical Dispersion Energy =           0.0000000000000000
    PCM Polarization Energy =               0.0000000000000000
    EFP Energy =                            0.0000000000000000
    Total Energy =                       -307.0945343648886592
    Molecular point group: c1
  Basis Set: CC-PVTZ
  Basis Set:

  -Total Gradient:
     Atom            X                  Y                   Z
    ------   -----------------  -----------------  -----------------
       1        0.000001016819     0.000000217374    -0.000000592575
       2       -0.000006748647    -0.000008932232     0.000000328262
       3        0.000005293382    -0.000003544349    -0.000000346859
       4        0.000004680298    -0.000001915212    -0.000002134004
       5       -0.000000195498     0.000000780114    -0.000000123164
       6       -0.000011571880     0.000032101046    -0.000029742015
       7       -0.000315002288    -0.000953391595    -0.000723009368
       8        0.000001696216    -0.000003834291     0.000008474809
       9        0.000001407361     0.000000520100     0.000004270255
      10        0.000587413904     0.000948019467     0.001008380958
      11        0.000011934204     0.000008401255    -0.000018566881
      12        0.000009408174     0.000027486638    -0.000017800732
      13       -0.000166474385     0.001390919121    -0.000483997369
      14       -0.000140477175    -0.001444852667     0.000269011512
      15       -0.000009138547     0.000024308663    -0.000018970507
      16        0.000026758061    -0.000016283431     0.000004817676

  **** Optimization is complete! (in 4 steps) ****
    Final optimized geometry and variables:
    Molecular point group: c1

    Geometry (in Angstrom), charge = 0, multiplicity = 1:

    H           -2.761130938312     1.212106265783     0.464876496042
    C           -2.120648172534     1.126047194066     1.339655206433
    O           -0.848854510614     0.687050136595     0.997291845829
    H           -2.022558484022     2.100315020397     1.795815002253
    H           -2.598031989996     0.453917186712     2.050493130961
    C           -0.816084215510    -0.569182586215     0.403635119321
    C            0.593380483307    -0.896991265037    -0.020776973573
    H           -1.157533328808    -1.328170729179     1.107615529203
    H           -1.468121009826    -0.600884998051    -0.466500890512
    O            0.936379004252    -0.130128576776    -1.129292185176
    H            1.267690999838    -0.703816017157     0.810059735293
    H            0.649398246072    -1.957794045783    -0.261890768310
    C            2.249759628735    -0.258787881099    -1.578267440634
    H            2.244828102357    -0.444139223912    -2.645378266865
    H            2.808803531083     0.648713826410    -1.378185152345
    H            2.761964839100    -1.087823784031    -1.099474997105

  Mulliken Charges: (a.u.)
   Center  Symbol    Alpha    Beta     Spin     Total
       1     H     0.47016  0.47016  0.00000  0.05968
       2     C     3.03201  3.03201  0.00000 -0.06402
       3     O     4.17040  4.17040  0.00000 -0.34079
       4     H     0.44645  0.44645  0.00000  0.10711
       5     H     0.47374  0.47374  0.00000  0.05252
       6     C     2.96330  2.96330  0.00000  0.07340
       7     C     2.95863  2.95863  0.00000  0.08274
       8     H     0.47618  0.47618  0.00000  0.04763
       9     H     0.47118  0.47118  0.00000  0.05764
      10     O     4.17502  4.17502  0.00000 -0.35003
      11     H     0.47083  0.47083  0.00000  0.05833
      12     H     0.47593  0.47593  0.00000  0.04813
      13     C     3.02731  3.02731  0.00000 -0.05462
      14     H     0.45648  0.45648  0.00000  0.08704
      15     H     0.45814  0.45814  0.00000  0.08371
      16     H     0.47424  0.47424  0.00000  0.05152

   Total alpha = 25.00000, Total beta = 25.00000, Total charge = -0.00000
