                              Psi4 1.0.54 Driver

  ==> Input File <==

--------------------------------------------------------------------------
set {
	reference rhf
	basis cc-pvtz
}

set_num_threads( 4 )
memory 2 gb

molecule MOL {
0 1

H	 0.693550	 -1.979477	 0.899450
C	 -0.036872	 -1.198048	 1.116938
N	 -0.537714	 -0.645117	 0.000000
O	 -0.325636	 -0.903047	 2.233319
C	 -1.522613	 0.412524	 0.000000
H	 -0.205817	 -0.989812	 -0.866610
H	 -2.150256	 0.356137	 -0.880771
H	 -1.005621	 1.357208	 0.000000
H	 -2.150256	 0.356137	 0.880771

	symmetry c1
}
set optking {
	frozen_dihedral = ("
		6 3 5 7
	")
}

ee,wfn = optimize('scf', return_wfn=True)
oeprop( wfn, 'DIPOLE', 'QUADRUPOLE', 'MULLIKEN_CHARGES')
f=open( 'psi4out.xyz', 'w' )
f.write( "9  " )
f.write( str(ee) + "\n" )
f.write( MOL.save_string_xyz() )
f.close()
--------------------------------------------------------------------------

    Molecular point group: c1
  Charge       = 0
  Multiplicity = 1
  Basis Set: CC-PVTZ
  Basis Set:
  @DF-RHF Final Energy:  -208.04290542359226
    Total Energy =                       -208.0429054235923445
    Molecular point group: c1
  Basis Set: CC-PVTZ
  Basis Set:
  Basis Set: CC-PVTZ
  Basis Set:
  @DF-RHF Final Energy:  -208.04349494481806
    Total Energy =                       -208.0434949448180078
  Basis Set: CC-PVTZ
  Basis Set:
  Basis Set: CC-PVTZ
  Basis Set:
  @DF-RHF Final Energy:  -208.04360796217188
    Total Energy =                       -208.0436079621720182
  Basis Set: CC-PVTZ
  Basis Set:
  Basis Set: CC-PVTZ
  Basis Set:
  @DF-RHF Final Energy:  -208.04354104105477
    Total Energy =                       -208.0435410410548798
  Basis Set: CC-PVTZ
  Basis Set:
  Basis Set: CC-PVTZ
  Basis Set:
  @DF-RHF Final Energy:  -208.04364588609948
    Total Energy =                       -208.0436458860995117
  Basis Set: CC-PVTZ
  Basis Set:
  Basis Set: CC-PVTZ
  Basis Set:
  @DF-RHF Final Energy:  -208.04366974575629
    Total Energy =                       -208.0436697457562047
  Basis Set: CC-PVTZ
  Basis Set:
  Basis Set: CC-PVTZ
  Basis Set:
  @DF-RHF Final Energy:  -208.04367610646773
    Total Energy =                       -208.0436761064677000
  Basis Set: CC-PVTZ
  Basis Set:
  Charge       = 0
  Multiplicity = 1
  Basis Set: CC-PVTZ
  Basis Set:

    Orbital Energies (a.u.)
    -----------------------

    Doubly Occupied:

       1A    -20.516842     2A    -15.584587     3A    -11.336642
       4A    -11.260012     5A     -1.394136     6A     -1.239542
       7A     -0.969846     8A     -0.808715     9A     -0.748871
      10A     -0.646170    11A     -0.629875    12A     -0.596270
      13A     -0.558000    14A     -0.538788    15A     -0.428637
      16A     -0.396697

  @DF-RHF Final Energy:  -208.04367626598616

   => Energetics <=

    Nuclear Repulsion Energy =            122.8528081835287509
    One-Electron Energy =                -526.4857093152916150
    Two-Electron Energy =                 195.5892248657766856
    DFT Exchange-Correlation Energy =       0.0000000000000000
    Empirical Dispersion Energy =           0.0000000000000000
    PCM Polarization Energy =               0.0000000000000000
    EFP Energy =                            0.0000000000000000
    Total Energy =                       -208.0436762659861927
    Molecular point group: c1
  Basis Set: CC-PVTZ
  Basis Set:

  -Total Gradient:
     Atom            X                  Y                   Z
    ------   -----------------  -----------------  -----------------
       1       -0.000003818008     0.000000496901     0.000013692391
       2        0.000021291019    -0.000018956326    -0.000064009347
       3       -0.000044426081    -0.000079391453     0.000019976970
       4       -0.000013051546     0.000013346744     0.000031923546
       5        0.000018214587     0.000074210602    -0.000023425001
       6        0.000047197982     0.000040786906     0.000006973286
       7       -0.000036098647    -0.000023303586     0.000023568155
       8        0.000001250127    -0.000008075683    -0.000002705765
       9        0.000009440567     0.000000885896    -0.000005994233

  **** Optimization is complete! (in 8 steps) ****
    Final optimized geometry and variables:
    Molecular point group: c1

    Geometry (in Angstrom), charge = 0, multiplicity = 1:

    H            1.350958063380    -1.372336948617     0.089551915641
    C            0.601950413662    -0.603171204888     0.287253741167
    N            0.041187178377    -0.125885139995    -0.835689208700
    O            0.328005537495    -0.258160522413     1.392905871919
    C           -0.934833269706     0.940743353583    -0.825783090925
    H            0.413369752700    -0.429470932046    -1.700985350881
    H           -1.500742314438     0.910664100582    -1.746108851093
    H           -0.469333776276     1.914766680720    -0.730507834757
    H           -1.608627577450     0.803250418317     0.005158416693

  Mulliken Charges: (a.u.)
   Center  Symbol    Alpha    Beta     Spin     Total
       1     H     0.46387  0.46387  0.00000  0.07226
       2     C     2.88034  2.88034  0.00000  0.23931
       3     N     3.60622  3.60622  0.00000 -0.21244
       4     O     4.21399  4.21399  0.00000 -0.42798
       5     C     3.07739  3.07739  0.00000 -0.15478
       6     H     0.41048  0.41048  0.00000  0.17904
       7     H     0.45394  0.45394  0.00000  0.09213
       8     H     0.45467  0.45467  0.00000  0.09065
       9     H     0.43910  0.43910  0.00000  0.12181

   Total alpha = 16.00000, Total beta = 16.00000, Total charge = -0.00000

*** Psi4 exiting successfully. Buy a developer a beer!
