  ==> Input File <==

--------------------------------------------------------------------------
set {
	reference rhf
	basis cc-pvtz
}

set_num_threads( 4 )
memory 2 gb

molecule MOL {
0 1

H	 2.077927	 -0.165540	 -1.041236
O	 2.063695	 -0.083403	 -0.105237
C	 0.742924	 0.005675	 0.350750
H	 0.731380	 0.039219	 1.440080
C	 -0.064076	 -1.193495	 -0.124425
C	 -0.047832	 1.190568	 -0.194462
H	 0.194729	 -1.376165	 -1.161308
H	 0.163013	 -2.094508	 0.429933
C	 -1.533112	 -0.752002	 0.006102
H	 0.148003	 1.266545	 -1.259275
H	 0.226235	 2.136493	 0.259722
C	 -1.506634	 0.799189	 0.067162
H	 -2.124360	 -1.110499	 -0.826089
H	 -1.983103	 -1.158030	 0.903403
H	 -2.183808	 1.252169	 -0.644677
H	 -1.813926	 1.138698	 1.049457

	symmetry c1
}
set optking {
	frozen_dihedral = ("
		1 2 3 6
	")
}

ee = optimize('scf')
oeprop('DIPOLE', 'QUADRUPOLE', 'MULLIKEN_CHARGES')
f=open( 'psi4out.xyz', 'w' )
f.write( "16  " )
f.write( str(ee) + "\n" )
f.write( MOL.save_string_xyz() )
f.close()
--------------------------------------------------------------------------

    Molecular point group: c1
  Charge       = 0
  Multiplicity = 1
  Basis Set: CC-PVTZ
  Basis Set:
  @DF-RHF Final Energy:  -270.11456842507454
    Total Energy =                       -270.1145684250747649
    Molecular point group: c1
  Basis Set: CC-PVTZ
  Basis Set:
  Basis Set: CC-PVTZ
  Basis Set:
  @DF-RHF Final Energy:  -270.11631069209039
    Total Energy =                       -270.1163106920903374
  Basis Set: CC-PVTZ
  Basis Set:
  Basis Set: CC-PVTZ
  Basis Set:
  @DF-RHF Final Energy:  -270.11655400521272
    Total Energy =                       -270.1165540052126062
  Basis Set: CC-PVTZ
  Basis Set:
  Basis Set: CC-PVTZ
  Basis Set:
  @DF-RHF Final Energy:  -270.11655895591321
    Total Energy =                       -270.1165589559130922
  Basis Set: CC-PVTZ
  Basis Set:
  Charge       = 0
  Multiplicity = 1
  Basis Set: CC-PVTZ
  Basis Set:

    Orbital Energies (a.u.)
    -----------------------

    Doubly Occupied:

       1A    -20.545544     2A    -11.267637     3A    -11.216982
       4A    -11.216437     5A    -11.212428     6A    -11.212244
       7A     -1.366327     8A     -1.116517     9A     -0.969496
      10A     -0.949811    11A     -0.805628    12A     -0.783608
      13A     -0.683863    14A     -0.663405    15A     -0.610216
      16A     -0.585550    17A     -0.579610    18A     -0.551336
      19A     -0.506651    20A     -0.484441    21A     -0.473735
      22A     -0.460002    23A     -0.455421    24A     -0.414700

  @DF-RHF Final Energy:  -270.11655983727451

   => Energetics <=

    Nuclear Repulsion Energy =            255.4794640321731265
    One-Electron Energy =                -872.9288736797395813
    Two-Electron Energy =                 347.3328498102919752
    DFT Exchange-Correlation Energy =       0.0000000000000000
    Empirical Dispersion Energy =           0.0000000000000000
    PCM Polarization Energy =               0.0000000000000000
    EFP Energy =                            0.0000000000000000
    Total Energy =                       -270.1165598372744512
    Molecular point group: c1
  Basis Set: CC-PVTZ
  Basis Set:

  -Total Gradient:
     Atom            X                  Y                   Z
    ------   -----------------  -----------------  -----------------
       1       -0.000038387375     0.000014070444     0.000021636231
       2       -0.000024081473    -0.000041902779    -0.000003982982
       3        0.000008529100     0.000048089305    -0.000018170273
       4       -0.000000107419     0.000009725551     0.000009387280
       5        0.000081562436     0.000039017494    -0.000058181184
       6        0.000014087742    -0.000031713873    -0.000005023331
       7        0.000000712223    -0.000018250510     0.000015744987
       8        0.000007425103     0.000021430855     0.000010827014
       9       -0.000050673143     0.000028372697     0.000062245733
      10        0.000018830452    -0.000008649157    -0.000003119597
      11        0.000017887898    -0.000005915822     0.000001123654
      12        0.000003011133    -0.000035474065    -0.000028768689
      13        0.000000444686     0.000008435458    -0.000022987889
      14       -0.000030131647    -0.000003246726    -0.000024050553
      15       -0.000015920606    -0.000017952836     0.000023378438
      16        0.000006810892    -0.000006036036     0.000019941160

  **** Optimization is complete! (in 5 steps) ****
    Final optimized geometry and variables:
    Molecular point group: c1

    Geometry (in Angstrom), charge = 0, multiplicity = 1:

    H            2.167649634864    -0.073124428418    -0.973212581616
    O            2.095072291701    -0.038399923854    -0.035921369597
    C            0.747911075758    -0.002112256606     0.334912485131
    H            0.753418188563     0.034358376087     1.418669765484
    C           -0.079326197924    -1.199585252580    -0.127540539988
    C           -0.041751703072     1.187990435611    -0.199879098819
    H            0.148869129027    -1.393153643848    -1.172874781746
    H            0.150492467323    -2.102864350184     0.422037511825
    C           -1.541540635873    -0.745001935513     0.026503694400
    H            0.133474418474     1.271215815892    -1.270614295254
    H            0.253183043145     2.126580752298     0.250984839256
    C           -1.500068249915     0.807145445198     0.076832526897
    H           -2.153335154479    -1.103788702794    -0.790673582632
    H           -1.975915663452    -1.141397068884     0.935484309108
    H           -2.182998192910     1.259720544707    -0.629662355191
    H           -1.792834795618     1.155163016036     1.060336652445

  Mulliken Charges: (a.u.)
   Center  Symbol    Alpha    Beta     Spin     Total
       1     H     0.39503  0.39503  0.00000  0.20994
       2     O     4.20678  4.20678  0.00000 -0.41357
       3     C     2.93449  2.93449  0.00000  0.13102
       4     H     0.44355  0.44355  0.00000  0.11289
       5     C     3.10553  3.10553  0.00000 -0.21106
       6     C     3.10087  3.10087  0.00000 -0.20173
       7     H     0.45967  0.45967  0.00000  0.08066
       8     H     0.44227  0.44227  0.00000  0.11546
       9     C     3.11118  3.11118  0.00000 -0.22237
      10     H     0.46116  0.46116  0.00000  0.07768
      11     H     0.44305  0.44305  0.00000  0.11389
      12     C     3.11228  3.11228  0.00000 -0.22456
      13     H     0.44534  0.44534  0.00000  0.10932
      14     H     0.44677  0.44677  0.00000  0.10646
      15     H     0.44352  0.44352  0.00000  0.11296
      16     H     0.44850  0.44850  0.00000  0.10300

   Total alpha = 24.00000, Total beta = 24.00000, Total charge = -0.00000
