  ==> Input File <==

--------------------------------------------------------------------------
set {
	reference rhf
	basis 6-31G*
}

set_num_threads( 1 )
memory 2 gb

molecule MOL {
0 1

H	 -1.836216	 1.387520	 -0.000064
C	 -1.301823	 0.443321	 -0.000031
O	 -0.003969	 0.658512	 0.000451
O	 -1.829879	 -0.616434	 -0.000857
C	 0.746573	 0.139830	 1.098104
C	 2.196201	 0.511528	 0.872852
H	 0.608311	 -0.931846	 1.139489
H	 0.360973	 0.562842	 2.015528
H	 2.563016	 0.086033	 -0.054205
H	 2.803963	 0.133884	 1.688477
H	 2.314650	 1.587943	 0.826048

	symmetry c1
}
set optking {
	frozen_dihedral = ("
		7 5 3 2
	")
}

ee = energy('scf')
oeprop('DIPOLE', 'QUADRUPOLE', 'MULLIKEN_CHARGES')
f=open( 'psi4out.xyz', 'w' )
f.write( "11  " )
f.write( str(ee) + "\n" )
f.write( MOL.save_string_xyz() )
f.close()
--------------------------------------------------------------------------

    Molecular point group: c1

    Geometry (in Angstrom), charge = 0, multiplicity = 1:

       Center              X                  Y                   Z               Mass
    ------------   -----------------  -----------------  -----------------  -----------------
           H         -1.798764236377     1.162528115857    -0.395864830087     1.007825032070
           C         -1.264371236377     0.218329115857    -0.395831830087    12.000000000000
           O          0.033482763623     0.433520115857    -0.395349830087    15.994914619560
           O         -1.792427236377    -0.841425884143    -0.396657830087    15.994914619560
           C          0.784024763623    -0.085161884143     0.702303169913    12.000000000000
           C          2.233652763623     0.286536115857     0.477051169913    12.000000000000
           H          0.645762763623    -1.156837884143     0.743688169913     1.007825032070
           H          0.398424763623     0.337850115857     1.619727169913     1.007825032070
           H          2.600467763623    -0.138958884143    -0.450005830087     1.007825032070
           H          2.841414763623    -0.091107884143     1.292676169913     1.007825032070
           H          2.352101763623     1.362951115857     0.430247169913     1.007825032070

  Charge       = 0
  Multiplicity = 1
  Basis Set: 6-31G*
  Basis Set:

    Orbital Energies (a.u.)
    -----------------------

    Doubly Occupied:

       1A    -20.597438     2A    -20.564897     3A    -11.378909
       4A    -11.299551     5A    -11.229006     6A     -1.471805
       7A     -1.376014     8A     -1.052983     9A     -0.897053
      10A     -0.818582    11A     -0.741529    12A     -0.687563
      13A     -0.660880    14A     -0.625638    15A     -0.563169
      16A     -0.545444    17A     -0.531559    18A     -0.506058
      19A     -0.464816    20A     -0.449598

  @DF-RHF Final Energy:  -266.81335239137911

   => Energetics <=

    Nuclear Repulsion Energy =            178.2098933938577545
    One-Electron Energy =                -717.1215802266436867
    Two-Electron Energy =                 272.0983344414065641
    DFT Exchange-Correlation Energy =       0.0000000000000000
    Empirical Dispersion Energy =           0.0000000000000000
    PCM Polarization Energy =               0.0000000000000000
    EFP Energy =                            0.0000000000000000
    Total Energy =                       -266.8133523913793397

  Mulliken Charges: (a.u.)
   Center  Symbol    Alpha    Beta     Spin     Total
       1     H     0.42178  0.42178  0.00000  0.15645
       2     C     2.72767  2.72767  0.00000  0.54465
       3     O     4.29745  4.29745  0.00000 -0.59490
       4     O     4.24441  4.24441  0.00000 -0.48881
       5     C     3.00627  3.00627  0.00000 -0.01255
       6     C     3.24860  3.24860  0.00000 -0.49720
       7     H     0.40403  0.40403  0.00000  0.19194
       8     H     0.41741  0.41741  0.00000  0.16518
       9     H     0.40667  0.40667  0.00000  0.18666
      10     H     0.41560  0.41560  0.00000  0.16879
      11     H     0.41010  0.41010  0.00000  0.17979

   Total alpha = 20.00000, Total beta = 20.00000, Total charge =  0.00000
