  ==> Input File <==

--------------------------------------------------------------------------
set {
	reference rhf
	basis 6-31G*
}

set_num_threads( 4 )
memory 2 gb

molecule MOL {
0 1

O	 -1.487788	 1.240889	 -0.102860
C	 -1.083277	 0.139568	 0.115197
C	 0.323299	 -0.082943	 0.642902
C	 -1.933017	 -1.084621	 -0.143902
C	 1.355627	 -0.005344	 -0.493127
H	 0.396251	 -1.044647	 1.143147
H	 0.528637	 0.693580	 1.371677
C	 1.136241	 -1.083692	 -1.552505
H	 1.312384	 0.975166	 -0.962170
H	 2.347939	 -0.103041	 -0.065445
H	 1.880121	 -1.011600	 -2.339358
H	 0.156647	 -0.990832	 -2.012502
H	 1.206684	 -2.076763	 -1.119037
H	 -1.393885	 -1.806447	 -0.750509
H	 -2.850323	 -0.799888	 -0.640100
H	 -2.169004	 -1.571158	 0.798858

	symmetry c1
}
set optking {
	frozen_dihedral = ("
		9 5 3 2
	")
}

ee = optimize('scf')
oeprop('DIPOLE', 'QUADRUPOLE', 'MULLIKEN_CHARGES')
f=open( 'psi4out.xyz', 'w' )
f.write( "16  " )
f.write( str(ee) + "\n" )
f.write( MOL.save_string_xyz() )
f.close()
--------------------------------------------------------------------------

    Molecular point group: c1
  Charge       = 0
  Multiplicity = 1
  Basis Set: 6-31G*
  Basis Set:
  @DF-RHF Final Energy:  -270.02697871150508
    Total Energy =                       -270.0269787115050804
    Molecular point group: c1
  Basis Set: 6-31G*
  Basis Set:
  Basis Set: 6-31G*
  Basis Set:
  @DF-RHF Final Energy:  -270.02874322215416
    Total Energy =                       -270.0287432221540485
  Basis Set: 6-31G*
  Basis Set:
  Basis Set: 6-31G*
  Basis Set:
  @DF-RHF Final Energy:  -270.02712205832938
    Total Energy =                       -270.0271220583293825
  Basis Set: 6-31G*
  Basis Set:
  Basis Set: 6-31G*
  Basis Set:
  @DF-RHF Final Energy:  -270.02936326154702
    Total Energy =                       -270.0293632615470187
  Basis Set: 6-31G*
  Basis Set:
  @DF-RHF Final Energy:  -270.02969582331843
    Total Energy =                       -270.0296958233187752
  @DF-RHF Final Energy:  -270.03024764547405
    Total Energy =                       -270.0302476454741623
  @DF-RHF Final Energy:  -270.03050000730872
    Total Energy =                       -270.0305000073084329
  @DF-RHF Final Energy:  -270.03074431420117
    Total Energy =                       -270.0307443142012289
  @DF-RHF Final Energy:  -270.03098668087938
    Total Energy =                       -270.0309866808793231
  @DF-RHF Final Energy:  -270.03121356542573
    Total Energy =                       -270.0312135654257872
  @DF-RHF Final Energy:  -270.03139640851009
    Total Energy =                       -270.0313964085100906
  Basis Set: 6-31G*
  Basis Set:
  @DF-RHF Final Energy:  -270.03153956755375
    Total Energy =                       -270.0315395675535797
  Basis Set: 6-31G*
  Basis Set:
  Basis Set: 6-31G*
  Basis Set:
  @DF-RHF Final Energy:  -270.03159043328895
    Total Energy =                       -270.0315904332890113
  Basis Set: 6-31G*
  Basis Set:
  Basis Set: 6-31G*
  Basis Set:
  @DF-RHF Final Energy:  -270.03159267747554
    Total Energy =                       -270.0315926774756576
  Basis Set: 6-31G*
  Basis Set:
  Charge       = 0
  Multiplicity = 1
  Basis Set: 6-31G*
  Basis Set:

    Orbital Energies (a.u.)
    -----------------------

    Doubly Occupied:

       1A    -20.550911     2A    -11.327424     3A    -11.232879
       4A    -11.229089     5A    -11.221273     6A    -11.206484
       7A     -1.396524     8A     -1.075514     9A     -1.014952
      10A     -0.944759    11A     -0.827222    12A     -0.726734
      13A     -0.663139    14A     -0.637125    15A     -0.623036
      16A     -0.594333    17A     -0.582748    18A     -0.550950
      19A     -0.546462    20A     -0.501886    21A     -0.486757
      22A     -0.478526    23A     -0.476715    24A     -0.400336

  @DF-RHF Final Energy:  -270.03159316331926

   => Energetics <=

    Nuclear Repulsion Energy =            241.4925995788732678
    One-Electron Energy =                -844.4568284797896922
    Two-Electron Energy =                 332.9326357375971952
    DFT Exchange-Correlation Energy =       0.0000000000000000
    Empirical Dispersion Energy =           0.0000000000000000
    PCM Polarization Energy =               0.0000000000000000
    EFP Energy =                            0.0000000000000000
    Total Energy =                       -270.0315931633192008
    Molecular point group: c1
  Basis Set: 6-31G*
  Basis Set:

  -Total Gradient:
     Atom            X                  Y                   Z
    ------   -----------------  -----------------  -----------------
       1       -0.000003198647    -0.000014783884     0.000036642989
       2        0.000055567464    -0.001528036824    -0.000652759983
       3        0.000164837990     0.002295978842     0.001403961503
       4        0.000009468158    -0.000027631426    -0.000072150161
       5       -0.001425354971    -0.001216937689    -0.002610531717
       6       -0.000003435064     0.000004414640     0.000005490037
       7       -0.000000947455    -0.000004049956    -0.000005400649
       8        0.000005370418    -0.000017203659     0.000012912121
       9        0.001176589206     0.000483984936     0.001870707538
      10       -0.000008369735    -0.000010867426    -0.000012953081
      11        0.000015359227     0.000001169915    -0.000010087114
      12        0.000007361327     0.000009435195     0.000005702407
      13        0.000009840569     0.000000433570    -0.000006682738
      14       -0.000013210207    -0.000013476066     0.000022664869
      15       -0.000004706846     0.000016531182     0.000011092353
      16        0.000014828567     0.000021038651     0.000001391625

  **** Optimization is complete! (in 15 steps) ****
    Final optimized geometry and variables:
    Molecular point group: c1

    Geometry (in Angstrom), charge = 0, multiplicity = 1:

    O           -1.035204099380     0.823111063537    -0.698990013005
    C           -0.881906597321     0.106700512139     0.242729192523
    C            0.477450579214    -0.107961930170     0.886113835373
    C           -2.047861156468    -0.621075817557     0.877761744172
    C            1.672321216297     0.316996715293     0.032209443722
    H            0.565714547045    -1.154252043022     1.172476227254
    H            0.467710418857     0.451055024437     1.821317576391
    C            1.835555021505    -0.486424535424    -1.257424829004
    H            1.595128020240     1.375728142435    -0.188888210113
    H            2.567291953873     0.198409955038     0.638235363330
    H            2.731816842977    -0.179048405868    -1.786914495488
    H            0.992310965153    -0.344612489460    -1.921364580022
    H            1.929229555915    -1.548854688132    -1.045433752445
    H           -1.964094339633    -1.686154544628     0.678822117499
    H           -2.977704033987    -0.254703658338     0.465387824489
    H           -2.046324575545    -0.493526311576     1.955971116326

  Mulliken Charges: (a.u.)
   Center  Symbol    Alpha    Beta     Spin     Total
       1     O     4.26292  4.26292  0.00000 -0.52584
       2     C     2.73483  2.73483  0.00000  0.53034
       3     C     3.21010  3.21010  0.00000 -0.42020
       4     C     3.28751  3.28751  0.00000 -0.57502
       5     C     3.14809  3.14809  0.00000 -0.29619
       6     H     0.41326  0.41326  0.00000  0.17348
       7     H     0.40467  0.40467  0.00000  0.19065
       8     C     3.24663  3.24663  0.00000 -0.49326
       9     H     0.40878  0.40878  0.00000  0.18243
      10     H     0.42075  0.42075  0.00000  0.15850
      11     H     0.41829  0.41829  0.00000  0.16342
      12     H     0.40445  0.40445  0.00000  0.19109
      13     H     0.42662  0.42662  0.00000  0.14676
      14     H     0.40625  0.40625  0.00000  0.18751
      15     H     0.39666  0.39666  0.00000  0.20668
      16     H     0.41018  0.41018  0.00000  0.17964

   Total alpha = 24.00000, Total beta = 24.00000, Total charge =  0.00000
