                              Psi4 1.0.54 Driver

  ==> Input File <==

--------------------------------------------------------------------------
set {
	reference rhf
	basis cc-pvtz
}

set_num_threads( 4 )
memory 2 gb

molecule MOL {
0 1

H	 -2.942907	 0.783303	 -1.189687
C	 -2.171164	 0.067630	 -1.463751
O	 -1.401606	 -0.295183	 -0.366624
H	 -2.644752	 -0.825151	 -1.845254
H	 -1.561841	 0.504426	 -2.252940
C	 -0.718530	 0.758693	 0.228682
C	 0.718529	 0.758687	 -0.228709
H	 -1.176498	 1.708665	 -0.046615
H	 -0.748705	 0.673525	 1.312779
O	 1.401606	 -0.295166	 0.366636
H	 0.748705	 0.673477	 -1.312803
H	 1.176496	 1.708671	 0.046552
C	 2.714315	 -0.441627	 -0.061017
H	 2.765292	 -0.641548	 -1.128869
H	 3.305661	 0.447341	 0.150952
H	 3.143725	 -1.278506	 0.470147

	symmetry c1
}
set optking {
	frozen_dihedral = ("
		2 3 6 7
	")
}

ee,wfn = optimize('scf', return_wfn=True)
oeprop( wfn, 'DIPOLE', 'QUADRUPOLE', 'MULLIKEN_CHARGES')
f=open( 'psi4out.xyz', 'w' )
f.write( "16  " )
f.write( str(ee) + "\n" )
f.write( MOL.save_string_xyz() )
f.close()
--------------------------------------------------------------------------

    Molecular point group: c1
  Charge       = 0
  Multiplicity = 1
  Basis Set: CC-PVTZ
  Basis Set:
  @DF-RHF Final Energy:  -307.09330424539303
    Total Energy =                       -307.0933042453931421
    Molecular point group: c1
  Basis Set: CC-PVTZ
  Basis Set:
  Basis Set: CC-PVTZ
  Basis Set:
  @DF-RHF Final Energy:  -307.04344192194253
    Total Energy =                       -307.0434419219425308
  Basis Set: CC-PVTZ
  Basis Set:
  Basis Set: CC-PVTZ
  Basis Set:
  @DF-RHF Final Energy:  -307.09207580124502
    Total Energy =                       -307.0920758012449596
  Basis Set: CC-PVTZ
  Basis Set:
  Basis Set: CC-PVTZ
  Basis Set:
  @DF-RHF Final Energy:  -307.09425523594024
    Total Energy =                       -307.0942552359400679
  Basis Set: CC-PVTZ
  Basis Set:
  Basis Set: CC-PVTZ
  Basis Set:
  @DF-RHF Final Energy:  -307.09430560701674
    Total Energy =                       -307.0943056070166222
  Basis Set: CC-PVTZ
  Basis Set:
  Basis Set: CC-PVTZ
  Basis Set:
  @DF-RHF Final Energy:  -307.09430911902570
    Total Energy =                       -307.0943091190257519
  Basis Set: CC-PVTZ
  Basis Set:
  Charge       = 0
  Multiplicity = 1
  Basis Set: CC-PVTZ
  Basis Set:

    Orbital Energies (a.u.)
    -----------------------

    Doubly Occupied:

       1A    -20.548830     2A    -20.545994     3A    -11.268177
       4A    -11.267057     5A    -11.263524     6A    -11.262666
       7A     -1.390836     8A     -1.373319     9A     -1.029732
      10A     -0.941863    11A     -0.897121    12A     -0.820640
      13A     -0.688592    14A     -0.679860    15A     -0.660723
      16A     -0.640115    17A     -0.625516    18A     -0.605458
      19A     -0.556728    20A     -0.526099    21A     -0.515162
      22A     -0.485441    23A     -0.468995    24A     -0.419254
      25A     -0.410971

  @DF-RHF Final Energy:  -307.09430926579307

   => Energetics <=

    Nuclear Repulsion Energy =            259.9903515025763454
    One-Electron Energy =                -934.3839779244405008
    Two-Electron Energy =                 367.2993171560711971
    DFT Exchange-Correlation Energy =       0.0000000000000000
    Empirical Dispersion Energy =           0.0000000000000000
    PCM Polarization Energy =               0.0000000000000000
    EFP Energy =                            0.0000000000000000
    Total Energy =                       -307.0943092657929583
    Molecular point group: c1
  Basis Set: CC-PVTZ
  Basis Set:

  -Total Gradient:
     Atom            X                  Y                   Z
    ------   -----------------  -----------------  -----------------
       1       -0.000002043471    -0.000001802311    -0.000000227170
       2       -0.000884854376     0.000369901105     0.000653489002
       3        0.001419276760    -0.000677271349    -0.000538245219
       4        0.000001968198     0.000004241907     0.000002014691
       5       -0.000005642887    -0.000001586091    -0.000002830177
       6       -0.000829114619     0.000667908556    -0.001032328561
       7        0.000299327175    -0.000349911000     0.000876050373
       8        0.000008153073    -0.000003596937     0.000002071172
       9       -0.000008167640    -0.000009794621     0.000000343323
      10        0.000007177076    -0.000003652072     0.000033856405
      11       -0.000000855857     0.000009154963    -0.000003903404
      12        0.000005653488    -0.000014306478     0.000011341799
      13       -0.000007238690     0.000011202803    -0.000006746229
      14       -0.000003911775     0.000000964577     0.000002916327
      15        0.000004400974    -0.000002107596    -0.000000345564
      16       -0.000004127434     0.000000654544     0.000002543231

  **** Optimization is complete! (in 7 steps) ****
    Final optimized geometry and variables:
    Molecular point group: c1

    Geometry (in Angstrom), charge = 0, multiplicity = 1:

    H           -3.137171058976     0.205242136520    -0.929896678556
    C           -2.325844702878    -0.513344736870    -1.021330200941
    O           -1.490151393294    -0.480394440735     0.088437033287
    H           -2.747535742273    -1.506011570232    -1.084058065150
    H           -1.788968950383    -0.309330963246    -1.945266493670
    C           -0.834147286554     0.728844899056     0.318530869593
    C            0.598635601702     0.717612315349    -0.168654049994
    H           -1.363427641790     1.552164373145    -0.155109293158
    H           -0.833251937388     0.903288071120     1.387114249596
    O            1.352586728763    -0.133604336445     0.628665559207
    H            0.636458413444     0.398833901690    -1.209643028106
    H            0.996085678458     1.732317006060    -0.120665659765
    C            2.672535147270    -0.281674927825     0.224936775425
    H            2.738326897529    -0.704207319102    -0.775321483347
    H            3.202049280590     0.669267976442     0.231559396205
    H            3.156899672002    -0.953512753130     0.918310992348

  Mulliken Charges: (a.u.)
   Center  Symbol    Alpha    Beta     Spin     Total
       1     H     0.47004  0.47004  0.00000  0.05991
       2     C     3.03083  3.03083  0.00000 -0.06167
       3     O     4.17536  4.17536  0.00000 -0.35072
       4     H     0.44741  0.44741  0.00000  0.10518
       5     H     0.47434  0.47434  0.00000  0.05132
       6     C     2.97368  2.97368  0.00000  0.05265
       7     C     2.96166  2.96166  0.00000  0.07668
       8     H     0.47285  0.47285  0.00000  0.05430
       9     H     0.45182  0.45182  0.00000  0.09635
      10     O     4.16791  4.16791  0.00000 -0.33583
      11     H     0.47675  0.47675  0.00000  0.04649
      12     H     0.47520  0.47520  0.00000  0.04961
      13     C     3.03147  3.03147  0.00000 -0.06295
      14     H     0.47150  0.47150  0.00000  0.05700
      15     H     0.47320  0.47320  0.00000  0.05361
      16     H     0.44597  0.44597  0.00000  0.10807

   Total alpha = 25.00000, Total beta = 25.00000, Total charge = -0.00000

*** Psi4 exiting successfully. Buy a developer a beer!
