                              Psi4 1.0.54 Driver

  ==> Input File <==

--------------------------------------------------------------------------
set {
	reference rhf
	basis cc-pvtz
}

set_num_threads( 4 )
memory 2 gb

molecule MOL {
0 1

H	 1.914133	 2.240228	 0.851051
N	 1.063089	 1.725566	 0.770821
C	 1.263552	 0.494993	 0.021953
H	 0.402615	 2.318068	 0.312507
C	 -0.016533	 -0.325589	 -0.026925
H	 2.035909	 -0.077034	 0.525186
H	 1.616490	 0.669944	 -0.995304
C	 -1.280353	 0.525521	 0.047747
H	 -0.016686	 -0.912532	 -0.939714
H	 -0.014099	 -1.037598	 0.796369
C	 -2.560681	 -0.301323	 -0.007747
H	 -1.279957	 1.241025	 -0.770189
H	 -1.270445	 1.110526	 0.963468
H	 -2.617064	 -0.872870	 -0.928010
H	 -3.439525	 0.331102	 0.043462
H	 -2.609427	 -1.002736	 0.818585

	symmetry c1
}
set optking {
	frozen_dihedral = ("
		6 3 5 9
	")
}

ee,wfn = optimize('scf', return_wfn=True)
oeprop( wfn, 'DIPOLE', 'QUADRUPOLE', 'MULLIKEN_CHARGES')
f=open( 'psi4out.xyz', 'w' )
f.write( "16  " )
f.write( str(ee) + "\n" )
f.write( MOL.save_string_xyz() )
f.close()
--------------------------------------------------------------------------

    Molecular point group: c1
  Charge       = 0
  Multiplicity = 1
  Basis Set: CC-PVTZ
  Basis Set:
  @DF-RHF Final Energy:  -212.39235617225745
    Total Energy =                       -212.3923561722572799
    Molecular point group: c1
  Basis Set: CC-PVTZ
  Basis Set:
  Basis Set: CC-PVTZ
  Basis Set:
  @DF-RHF Final Energy:  -212.37881583251075
    Total Energy =                       -212.3788158325109237
  Basis Set: CC-PVTZ
  Basis Set:
  Basis Set: CC-PVTZ
  Basis Set:
  @DF-RHF Final Energy:  -212.39402765767952
    Total Energy =                       -212.3940276576794304
  Basis Set: CC-PVTZ
  Basis Set:
  Basis Set: CC-PVTZ
  Basis Set:
  @DF-RHF Final Energy:  -212.39461147223545
    Total Energy =                       -212.3946114722355105
  Basis Set: CC-PVTZ
  Basis Set:
  Basis Set: CC-PVTZ
  Basis Set:
  @DF-RHF Final Energy:  -212.39464628524510
    Total Energy =                       -212.3946462852451305
  Basis Set: CC-PVTZ
  Basis Set:
  Basis Set: CC-PVTZ
  Basis Set:
  @DF-RHF Final Energy:  -212.39465396494083
    Total Energy =                       -212.3946539649408010
  Basis Set: CC-PVTZ
  Basis Set:
  Basis Set: CC-PVTZ
  Basis Set:
  @DF-RHF Final Energy:  -212.39465934288100
    Total Energy =                       -212.3946593428809706
  Basis Set: CC-PVTZ
  Basis Set:
  Charge       = 0
  Multiplicity = 1
  Basis Set: CC-PVTZ
  Basis Set:

    Orbital Energies (a.u.)
    -----------------------

    Doubly Occupied:

       1A    -15.526033     2A    -11.239259     3A    -11.209237
       4A    -11.208299     5A    -11.203997     6A     -1.177450
       7A     -1.055267     8A     -0.959206     9A     -0.852717
      10A     -0.776887    11A     -0.666357    12A     -0.647769
      13A     -0.597315    14A     -0.584276    15A     -0.547854
      16A     -0.525154    17A     -0.510195    18A     -0.471847
      19A     -0.465344    20A     -0.452418    21A     -0.381862

  @DF-RHF Final Energy:  -212.39465939572079

   => Energetics <=

    Nuclear Repulsion Energy =            189.6550008032556320
    One-Electron Energy =                -661.9818336235111929
    Two-Electron Energy =                 259.9321734245347670
    DFT Exchange-Correlation Energy =       0.0000000000000000
    Empirical Dispersion Energy =           0.0000000000000000
    PCM Polarization Energy =               0.0000000000000000
    EFP Energy =                            0.0000000000000000
    Total Energy =                       -212.3946593957207938
    Molecular point group: c1
  Basis Set: CC-PVTZ
  Basis Set:

  -Total Gradient:
     Atom            X                  Y                   Z
    ------   -----------------  -----------------  -----------------
       1        0.000013226264    -0.000000024256     0.000004816820
       2       -0.000000213374    -0.000013557028    -0.000003944971
       3        0.001965157260    -0.001471969706    -0.007956669771
       4       -0.000005227817    -0.000002729218    -0.000004678146
       5        0.001961392944    -0.006474213627     0.004709745292
       6       -0.001964903067     0.002238499380     0.006016475140
       7        0.000004534654     0.000002504970     0.000000137288
       8        0.000004419495    -0.000000358012     0.000016498883
       9       -0.001969965237     0.005728949197    -0.002778807431
      10       -0.000007553119     0.000005112467    -0.000001395277
      11       -0.000006826803    -0.000011288696    -0.000002049732
      12        0.000005152998    -0.000005276356     0.000004363634
      13       -0.000000967560     0.000003708843    -0.000002816290
      14       -0.000000758064    -0.000001918965     0.000002078786
      15        0.000004472809     0.000000811960    -0.000001169707
      16       -0.000001941386     0.000001749046    -0.000002584518

  **** Optimization is complete! (in 8 steps) ****
    Final optimized geometry and variables:
    Molecular point group: c1

    Geometry (in Angstrom), charge = 0, multiplicity = 1:

    H            2.463385316842     1.205494493029     1.208178049260
    N            1.533401030013     0.955882014851     0.947260544960
    C            1.550213864807    -0.170007086130     0.019573338028
    H            1.118431916649     1.764829356118     0.536769549252
    C            0.153107427456    -0.764536355481    -0.215556160325
    H            2.164913243727    -0.921547026932     0.499908326562
    H            2.006901235057     0.082931026347    -0.935654757596
    C           -0.989829658580     0.252512908297    -0.225782522407
    H            0.151849449720    -1.238490717215    -1.193176686781
    H           -0.057550893935    -1.523671343895     0.529349329394
    C           -2.333202105251    -0.389269577127    -0.557726091474
    H           -0.778919676265     1.029807536958    -0.957841484290
    H           -1.053725307337     0.740714172517     0.738392105800
    H           -2.316794743611    -0.856286363837    -1.537024663461
    H           -3.130169309661     0.345591519646    -0.555295672490
    H           -2.588317141853    -1.154945298436     0.167462825018

  Mulliken Charges: (a.u.)
   Center  Symbol    Alpha    Beta     Spin     Total
       1     H     0.42933  0.42933  0.00000  0.14135
       2     N     3.69235  3.69235  0.00000 -0.38471
       3     C     3.03635  3.03635  0.00000 -0.07270
       4     H     0.42716  0.42716  0.00000  0.14568
       5     C     3.07565  3.07565  0.00000 -0.15131
       6     H     0.45504  0.45504  0.00000  0.08992
       7     H     0.46318  0.46318  0.00000  0.07365
       8     C     3.09398  3.09398  0.00000 -0.18796
       9     H     0.45776  0.45776  0.00000  0.08449
      10     H     0.45445  0.45445  0.00000  0.09110
      11     C     3.15107  3.15107  0.00000 -0.30214
      12     H     0.45803  0.45803  0.00000  0.08393
      13     H     0.44553  0.44553  0.00000  0.10893
      14     H     0.45660  0.45660  0.00000  0.08679
      15     H     0.44905  0.44905  0.00000  0.10189
      16     H     0.45446  0.45446  0.00000  0.09109

   Total alpha = 21.00000, Total beta = 21.00000, Total charge = -0.00000

*** Psi4 exiting successfully. Buy a developer a beer!
