                              Psi4 1.0.54 Driver

  ==> Input File <==

--------------------------------------------------------------------------
set {
	reference rhf
	basis cc-pvtz
}

set_num_threads( 4 )
memory 2 gb

molecule MOL {
0 1

H	 -2.498963	 -0.741158	 -0.729149
O	 -2.346257	 -0.289210	 0.080372
C	 -1.183935	 0.486039	 -0.009831
C	 0.062853	 -0.375310	 0.027457
H	 -1.178881	 1.094526	 -0.908634
H	 -1.184406	 1.155156	 0.838676
O	 0.322840	 -0.823603	 -1.262075
H	 -0.087889	 -1.219224	 0.702721
H	 0.895878	 0.207563	 0.414630
C	 1.464539	 -1.606449	 -1.384124
H	 1.395452	 -2.507174	 -0.778158
H	 1.561121	 -1.891584	 -2.421456
H	 2.355500	 -1.058743	 -1.086253

	symmetry c1
}
set optking {
	frozen_dihedral = ("
		8 4 3 5
	")
}

ee,wfn = optimize('scf', return_wfn=True)
oeprop( wfn, 'DIPOLE', 'QUADRUPOLE', 'MULLIKEN_CHARGES')
f=open( 'psi4out.xyz', 'w' )
f.write( "13  " )
f.write( str(ee) + "\n" )
f.write( MOL.save_string_xyz() )
f.close()
--------------------------------------------------------------------------

    Molecular point group: c1
  Charge       = 0
  Multiplicity = 1
  Basis Set: CC-PVTZ
  Basis Set:
  @DF-RHF Final Energy:  -268.06256221891357
    Total Energy =                       -268.0625622189135129
    Molecular point group: c1
  Basis Set: CC-PVTZ
  Basis Set:
  Basis Set: CC-PVTZ
  Basis Set:
  @DF-RHF Final Energy:  -268.06325555076432
    Total Energy =                       -268.0632555507642678
  Basis Set: CC-PVTZ
  Basis Set:
  Basis Set: CC-PVTZ
  Basis Set:
  @DF-RHF Final Energy:  -268.06347062034081
    Total Energy =                       -268.0634706203408655
  Basis Set: CC-PVTZ
  Basis Set:
  Basis Set: CC-PVTZ
  Basis Set:
  @DF-RHF Final Energy:  -268.06348712254066
    Total Energy =                       -268.0634871225407778
  Basis Set: CC-PVTZ
  Basis Set:
  Charge       = 0
  Multiplicity = 1
  Basis Set: CC-PVTZ
  Basis Set:

    Orbital Energies (a.u.)
    -----------------------

    Doubly Occupied:

       1A    -20.557695     2A    -20.544804     3A    -11.270186
       4A    -11.269127     5A    -11.267303     6A     -1.393478
       7A     -1.360791     8A     -1.020409     9A     -0.918444
      10A     -0.838510    11A     -0.706587    12A     -0.682460
      13A     -0.661918    14A     -0.635130    15A     -0.595831
      16A     -0.574564    17A     -0.540029    18A     -0.492572
      19A     -0.489611    20A     -0.438757    21A     -0.427019

  @DF-RHF Final Energy:  -268.06348788053447

   => Energetics <=

    Nuclear Repulsion Energy =            193.4471304370399878
    One-Electron Energy =                -749.6507877922276748
    Two-Electron Energy =                 288.1401694746532485
    DFT Exchange-Correlation Energy =       0.0000000000000000
    Empirical Dispersion Energy =           0.0000000000000000
    PCM Polarization Energy =               0.0000000000000000
    EFP Energy =                            0.0000000000000000
    Total Energy =                       -268.0634878805344670
    Molecular point group: c1
  Basis Set: CC-PVTZ
  Basis Set:

  -Total Gradient:
     Atom            X                  Y                   Z
    ------   -----------------  -----------------  -----------------
       1        0.000019223547     0.000072909424     0.000097918838
       2       -0.000058292562    -0.000033682787    -0.000081523899
       3        0.002535771947     0.004012636487     0.002307951389
       4        0.001722993840     0.002613033887     0.004354217271
       5       -0.002427760958    -0.003832285999    -0.002693160576
       6       -0.000000479443    -0.000025366423    -0.000010939946
       7       -0.000060883226     0.000033705508     0.000037728839
       8       -0.001755020765    -0.002844325402    -0.004075254442
       9        0.000012429950    -0.000002419606     0.000021057434
      10        0.000042306829    -0.000021195418     0.000048247150
      11        0.000001216903     0.000004363977    -0.000007828064
      12       -0.000029118677     0.000031139003     0.000013368124
      13       -0.000002387385    -0.000008512650    -0.000011782119

  **** Optimization is complete! (in 5 steps) ****
    Final optimized geometry and variables:
    Molecular point group: c1

    Geometry (in Angstrom), charge = 0, multiplicity = 1:

    H           -1.985599514017    -0.305492603628    -0.248240012555
    O           -1.976018998353     0.208063688995     0.539855587999
    C           -0.834368280869     1.021008307986     0.540453827609
    C            0.441659944893     0.207323508871     0.561377250227
    H           -0.832615190194     1.643450766046    -0.348553021867
    H           -0.898105814493     1.646660466779     1.419415877331
    O            0.681324410599    -0.251395230197    -0.737964608774
    H            0.305918260173    -0.649632198265     1.216593818711
    H            1.279716079214     0.805616010695     0.913334077330
    C            1.775805160204    -1.099457537155    -0.858333857312
    H            1.652213449743    -1.997160050941    -0.257062771677
    H            1.861977244740    -1.384377213271    -1.896789136653
    H            2.695941190166    -0.605846143765    -0.553844596493

  Mulliken Charges: (a.u.)
   Center  Symbol    Alpha    Beta     Spin     Total
       1     H     0.38816  0.38816  0.00000  0.22368
       2     O     4.20901  4.20901  0.00000 -0.41801
       3     C     2.96261  2.96261  0.00000  0.07478
       4     C     2.98057  2.98057  0.00000  0.03887
       5     H     0.46671  0.46671  0.00000  0.06658
       6     H     0.45600  0.45600  0.00000  0.08799
       7     O     4.18128  4.18128  0.00000 -0.36256
       8     H     0.46715  0.46715  0.00000  0.06571
       9     H     0.47118  0.47118  0.00000  0.05764
      10     C     3.02996  3.02996  0.00000 -0.05991
      11     H     0.47004  0.47004  0.00000  0.05992
      12     H     0.44680  0.44680  0.00000  0.10641
      13     H     0.47055  0.47055  0.00000  0.05890

   Total alpha = 21.00000, Total beta = 21.00000, Total charge = -0.00000

*** Psi4 exiting successfully. Buy a developer a beer!
