  ==> Input File <==

--------------------------------------------------------------------------
set {
	reference rhf
	basis 6-31G*
}

set_num_threads( 4 )
memory 2 gb

molecule MOL {
0 1

O	 0.261551	 -0.048022	 -2.088398
C	 -0.154535	 -0.585514	 -1.114052
C	 -1.523533	 -1.193498	 -0.977064
O	 0.550821	 -0.724572	 0.000672
H	 -1.434009	 -2.247291	 -0.740017
H	 -2.069946	 -1.066406	 -1.899654
H	 -2.055227	 -0.717404	 -0.161456
C	 1.863949	 -0.193559	 -0.000319
H	 2.028859	 0.409284	 -0.881648
H	 2.526261	 -1.045082	 -0.000003
H	 2.029520	 0.410555	 0.880008

	symmetry c1
}
set optking {
	frozen_dihedral = ("
		2 4 8 9
	")
}

ee = optimize('scf')
oeprop('DIPOLE', 'QUADRUPOLE', 'MULLIKEN_CHARGES')
f=open( 'psi4out.xyz', 'w' )
f.write( "11  " )
f.write( str(ee) + "\n" )
f.write( MOL.save_string_xyz() )
f.close()
--------------------------------------------------------------------------

    Molecular point group: c1
  Charge       = 0
  Multiplicity = 1
  Basis Set: 6-31G*
  Basis Set:
  @DF-RHF Final Energy:  -266.83324762945892
    Total Energy =                       -266.8332476294590379
    Molecular point group: c1
  Basis Set: 6-31G*
  Basis Set:
  Basis Set: 6-31G*
  Basis Set:
  @DF-RHF Final Energy:  -266.83389395981141
    Total Energy =                       -266.8338939598115189
  Basis Set: 6-31G*
  Basis Set:
  Basis Set: 6-31G*
  Basis Set:
  @DF-RHF Final Energy:  -266.83436593948716
    Total Energy =                       -266.8343659394868155
  Basis Set: 6-31G*
  Basis Set:
  Basis Set: 6-31G*
  Basis Set:
  @DF-RHF Final Energy:  -266.83416384180771
    Total Energy =                       -266.8341638418078787
  Basis Set: 6-31G*
  Basis Set:
  Basis Set: 6-31G*
  Basis Set:
  @DF-RHF Final Energy:  -266.83441996125111
    Total Energy =                       -266.8344199612512284
  Basis Set: 6-31G*
  Basis Set:
  Charge       = 0
  Multiplicity = 1
  Basis Set: 6-31G*
  Basis Set:

    Orbital Energies (a.u.)
    -----------------------

    Doubly Occupied:

       1A    -20.604860     2A    -20.545747     3A    -11.377819
       4A    -11.280660     5A    -11.234020     6A     -1.468484
       7A     -1.364996     8A     -1.035973     9A     -0.953409
      10A     -0.777206    11A     -0.696945    12A     -0.678729
      13A     -0.676986    14A     -0.597356    15A     -0.591091
      16A     -0.560515    17A     -0.528722    18A     -0.518975
      19A     -0.454119    20A     -0.442535

  @DF-RHF Final Energy:  -266.83442056985814

   => Energetics <=

    Nuclear Repulsion Energy =            182.8589715125741577
    One-Electron Energy =                -726.6084894708917545
    Two-Electron Energy =                 276.9150973884596851
    DFT Exchange-Correlation Energy =       0.0000000000000000
    Empirical Dispersion Energy =           0.0000000000000000
    PCM Polarization Energy =               0.0000000000000000
    EFP Energy =                            0.0000000000000000
    Total Energy =                       -266.8344205698579117
    Molecular point group: c1
  Basis Set: 6-31G*
  Basis Set:

  -Total Gradient:
     Atom            X                  Y                   Z
    ------   -----------------  -----------------  -----------------
       1        0.000020151697    -0.000008813892     0.000039888572
       2       -0.000205674454     0.000596713949     0.000202250494
       3        0.000003520290    -0.000022124552     0.000005997758
       4        0.000399541983    -0.000925132540    -0.000375768854
       5        0.000000607061     0.000006283454    -0.000001890217
       6       -0.000001292752    -0.000000767712    -0.000003141556
       7        0.000002826537     0.000005421118     0.000000354272
       8       -0.000439603265     0.000896731612     0.000515307594
       9        0.000226659533    -0.000568508137    -0.000376887689
      10        0.000034376184     0.000018172851     0.000005583567
      11       -0.000041112813     0.000002023847    -0.000011693944

  **** Optimization is complete! (in 6 steps) ****
    Final optimized geometry and variables:
    Molecular point group: c1

    Geometry (in Angstrom), charge = 0, multiplicity = 1:

    O            0.011959249382     0.489008292583    -1.286072235009
    C           -0.375963581096    -0.039226741272    -0.295541603262
    C           -1.742568965427    -0.644163080907    -0.122207950874
    O            0.345068299693    -0.175117999847     0.811015947632
    H           -1.648294514376    -1.696272926623     0.120314332962
    H           -2.310153409051    -0.523055480651    -1.032648461563
    H           -2.254117438528    -0.161651895118     0.702490208181
    C            1.662951418275     0.346943342685     0.848719178560
    H            1.857456730542     0.961465399000    -0.013958215281
    H            2.358764402286    -0.480637154467     0.874814303216
    H            1.754584382375     0.924495920146     1.756994367118

  Mulliken Charges: (a.u.)
   Center  Symbol    Alpha    Beta     Spin     Total
       1     O     4.28171  4.28171  0.00000 -0.56343
       2     C     2.62206  2.62206  0.00000  0.75587
       3     C     3.28211  3.28211  0.00000 -0.56423
       4     O     4.30150  4.30150  0.00000 -0.60299
       5     H     0.40002  0.40002  0.00000  0.19997
       6     H     0.39682  0.39682  0.00000  0.20637
       7     H     0.40015  0.40015  0.00000  0.19970
       8     C     3.09838  3.09838  0.00000 -0.19677
       9     H     0.39360  0.39360  0.00000  0.21280
      10     H     0.41258  0.41258  0.00000  0.17484
      11     H     0.41107  0.41107  0.00000  0.17787

   Total alpha = 20.00000, Total beta = 20.00000, Total charge = -0.00000
