  ==> Input File <==

--------------------------------------------------------------------------
set {
	reference rhf
	basis 6-31G*
}

set_num_threads( 4 )
memory 2 gb

molecule MOL {
0 1

H	 -2.631529	 -0.070682	 2.297065
C	 -2.964616	 -0.338855	 1.286739
C	 -2.688713	 0.698637	 0.228392
O	 -3.499543	 -1.381658	 1.091378
C	 -1.220012	 1.144545	 0.209990
H	 -2.995898	 0.298732	 -0.730995
H	 -3.320980	 1.557579	 0.450004
C	 -0.252658	 0.041456	 -0.226725
H	 -1.126582	 1.992911	 -0.461450
H	 -0.940469	 1.508173	 1.197607
C	 1.180775	 0.282413	 0.250794
H	 -0.266029	 -0.034465	 -1.312038
H	 -0.597733	 -0.921000	 0.146291
C	 2.148627	 -0.814315	 -0.201312
H	 1.516199	 1.249228	 -0.115937
H	 1.192670	 0.346017	 1.338083
C	 3.580890	 -0.659131	 0.322722
H	 2.166869	 -0.852443	 -1.289387
H	 1.762857	 -1.776509	 0.128956
C	 4.324889	 0.564933	 -0.213704
H	 4.142010	 -1.551473	 0.056605
H	 3.564836	 -0.624694	 1.410140
H	 4.342616	 0.565491	 -1.300421
H	 3.866655	 1.493402	 0.110242
H	 5.353900	 0.572371	 0.132816

	symmetry c1
}
set optking {
	frozen_dihedral = ("
		3 5 8 12
	")
}

ee = optimize('scf')
oeprop('DIPOLE', 'QUADRUPOLE', 'MULLIKEN_CHARGES')
f=open( 'psi4out.xyz', 'w' )
f.write( "25  " )
f.write( str(ee) + "\n" )
f.write( MOL.save_string_xyz() )
f.close()
--------------------------------------------------------------------------

    Molecular point group: c1
  Charge       = 0
  Multiplicity = 1
  Basis Set: 6-31G*
  Basis Set:
  @DF-RHF Final Energy:  -387.12033741244147
    Total Energy =                       -387.1203374124415859
    Molecular point group: c1
  Basis Set: 6-31G*
  Basis Set:
  Basis Set: 6-31G*
  Basis Set:
  @DF-RHF Final Energy:  -387.12014825629825
    Total Energy =                       -387.1201482562981937
  Basis Set: 6-31G*
  Basis Set:
  Basis Set: 6-31G*
  Basis Set:
  @DF-RHF Final Energy:  -387.11872266148595
    Total Energy =                       -387.1187226614855490
  Basis Set: 6-31G*
  Basis Set:
  Basis Set: 6-31G*
  Basis Set:
  @DF-RHF Final Energy:  -387.12044844150637
    Total Energy =                       -387.1204484415061415
  Basis Set: 6-31G*
  Basis Set:
  @DF-RHF Final Energy:  -387.12053571693468
    Total Energy =                       -387.1205357169342278
  @DF-RHF Final Energy:  -387.12054683832412
    Total Energy =                       -387.1205468383240031
  Basis Set: 6-31G*
  Basis Set:
  @DF-RHF Final Energy:  -387.12055334407455
    Total Energy =                       -387.1205533440745512
  Basis Set: 6-31G*
  Basis Set:
  Basis Set: 6-31G*
  Basis Set:
  @DF-RHF Final Energy:  -387.12055662105524
    Total Energy =                       -387.1205566210544475
  Basis Set: 6-31G*
  Basis Set:
  Basis Set: 6-31G*
  Basis Set:
  @DF-RHF Final Energy:  -387.12055762106013
    Total Energy =                       -387.1205576210594472
  Basis Set: 6-31G*
  Basis Set:
  Charge       = 0
  Multiplicity = 1
  Basis Set: 6-31G*
  Basis Set:

    Orbital Energies (a.u.)
    -----------------------

    Doubly Occupied:

       1A    -20.562889     2A    -11.326620     3A    -11.235406
       4A    -11.234723     5A    -11.223233     6A    -11.219403
       7A    -11.217656     8A    -11.216486     9A    -11.210478
      10A     -1.402702    11A     -1.103188    12A     -1.069270
      13A     -1.013100    14A     -0.942090    15A     -0.875192
      16A     -0.819213    17A     -0.789329    18A     -0.780504
      19A     -0.665273    20A     -0.661637    21A     -0.634664
      22A     -0.623200    23A     -0.606089    24A     -0.589288
      25A     -0.574215    26A     -0.553755    27A     -0.533736
      28A     -0.523555    29A     -0.509580    30A     -0.496241
      31A     -0.489340    32A     -0.478680    33A     -0.464149
      34A     -0.458240    35A     -0.440430    36A     -0.410443

  @DF-RHF Final Energy:  -387.12055793056737

   => Energetics <=

    Nuclear Repulsion Energy =            440.3838104769400275
    One-Electron Energy =               -1397.1007433571078309
    Two-Electron Energy =                 569.5963749496003174
    DFT Exchange-Correlation Energy =       0.0000000000000000
    Empirical Dispersion Energy =           0.0000000000000000
    PCM Polarization Energy =               0.0000000000000000
    EFP Energy =                            0.0000000000000000
    Total Energy =                       -387.1205579305675428
    Molecular point group: c1
  Basis Set: 6-31G*
  Basis Set:

  -Total Gradient:
     Atom            X                  Y                   Z
    ------   -----------------  -----------------  -----------------
       1        0.000004553013     0.000016079207    -0.000008694641
       2        0.000013389644    -0.000017916810    -0.000024181621
       3        0.000239241162    -0.000754225634     0.002579220353
       4       -0.000022120267     0.000015762035    -0.000013492151
       5        0.000291752395     0.001632374322    -0.003614141806
       6        0.000000646013    -0.000018035250     0.000008130321
       7       -0.000029947994    -0.000004524448    -0.000006074841
       8       -0.003208039152    -0.003235717819     0.001239319294
       9        0.000031315053     0.000017168127     0.000032431470
      10       -0.000020328805    -0.000019574253     0.000007428785
      11       -0.000006397064     0.000018185392    -0.000056762286
      12        0.002689790641     0.002352608046    -0.000177607869
      13       -0.000004648369    -0.000001896397     0.000019547624
      14        0.000011664915     0.000004023596     0.000006798050
      15       -0.000008270341     0.000002975894     0.000011416766
      16       -0.000003093167    -0.000001684248    -0.000004818625
      17       -0.000003035658     0.000003733018     0.000008804398
      18        0.000001622382     0.000019665905     0.000005256464
      19        0.000011402953    -0.000016837743    -0.000011577398
      20        0.000006436601    -0.000007235754    -0.000007250317
      21        0.000001919117    -0.000007274474     0.000010542778
      22       -0.000009186454     0.000012987341    -0.000000456131
      23       -0.000004598495     0.000004628154    -0.000002139606
      24        0.000016549599    -0.000006574862     0.000003875791
      25       -0.000000617719    -0.000008693341    -0.000005574806

  **** Optimization is complete! (in 10 steps) ****
    Final optimized geometry and variables:
    Molecular point group: c1

    Geometry (in Angstrom), charge = 0, multiplicity = 1:

    H           -2.800836183783     0.097518155568     2.005068403908
    C           -3.073106502414    -0.233207622423     0.995059747285
    C           -2.765433751897     0.753197879937    -0.102422009255
    O           -3.573984640568    -1.298110362645     0.830426903178
    C           -1.289731830879     1.179003307715    -0.101397750901
    H           -3.054639423776     0.312212112144    -1.049638321708
    H           -3.392830385458     1.627568036006     0.065267109498
    C           -0.326701770583     0.059180168256    -0.519520591177
    H           -1.163924751525     2.034287379223    -0.757422757220
    H           -1.031404981853     1.527479933699     0.897583886858
    C            1.110891676004     0.312832084676    -0.056408879448
    H           -0.326968695738    -0.019024341890    -1.604422897299
    H           -0.665971982650    -0.899005369323    -0.134148269119
    C            2.088456474588    -0.760819358455    -0.541290696840
    H            1.427599472984     1.292010977972    -0.407599301794
    H            1.135451107933     0.355360596310     1.031537032620
    C            3.520108488019    -0.607532783372    -0.015187490702
    H            2.105828050849    -0.766485536848    -1.629986893918
    H            1.712130512696    -1.736026125960    -0.239394405669
    C            4.250529274984     0.640421915040    -0.514527228887
    H            4.089725159204    -1.485675021807    -0.308877341289
    H            3.505071854232    -0.606592846815     1.072832628263
    H            4.269059900447     0.673301494622    -1.600642853844
    H            3.781700186151     1.553873940739    -0.163733066159
    H            5.279093589252     0.649379111256    -0.167287953602

  Mulliken Charges: (a.u.)
   Center  Symbol    Alpha    Beta     Spin     Total
       1     H     0.43236  0.43236  0.00000  0.13527
       2     C     2.83065  2.83065  0.00000  0.33871
       3     C     3.20744  3.20744  0.00000 -0.41489
       4     O     4.23780  4.23780  0.00000 -0.47559
       5     C     3.16774  3.16774  0.00000 -0.33548
       6     H     0.39981  0.39981  0.00000  0.20038
       7     H     0.40765  0.40765  0.00000  0.18469
       8     C     3.15679  3.15679  0.00000 -0.31358
       9     H     0.41137  0.41137  0.00000  0.17726
      10     H     0.41992  0.41992  0.00000  0.16016
      11     C     3.15512  3.15512  0.00000 -0.31023
      12     H     0.41820  0.41820  0.00000  0.16360
      13     H     0.41446  0.41446  0.00000  0.17109
      14     C     3.15332  3.15332  0.00000 -0.30664
      15     H     0.42114  0.42114  0.00000  0.15772
      16     H     0.42399  0.42399  0.00000  0.15201
      17     C     3.15269  3.15269  0.00000 -0.30539
      18     H     0.42355  0.42355  0.00000  0.15290
      19     H     0.42013  0.42013  0.00000  0.15974
      20     C     3.24132  3.24132  0.00000 -0.48264
      21     H     0.42000  0.42000  0.00000  0.16000
      22     H     0.42310  0.42310  0.00000  0.15381
      23     H     0.42209  0.42209  0.00000  0.15583
      24     H     0.42069  0.42069  0.00000  0.15862
      25     H     0.41868  0.41868  0.00000  0.16264

   Total alpha = 36.00000, Total beta = 36.00000, Total charge = -0.00000
