                              Psi4 1.0.54 Driver

  ==> Input File <==

--------------------------------------------------------------------------
set {
	reference rhf
	basis cc-pvtz
}

set_num_threads( 4 )
memory 2 gb

molecule MOL {
0 1

H	 -0.246427	 1.306903	 -1.047749
O	 0.057669	 1.301365	 -0.158528
C	 0.004145	 -0.005141	 0.363049
C	 1.199168	 -0.827145	 -0.096690
C	 -1.316386	 -0.602081	 -0.083515
H	 0.012026	 0.043363	 1.450619
H	 1.216685	 -0.896776	 -1.178167
H	 2.129940	 -0.372354	 0.228035
H	 1.160783	 -1.829622	 0.314294
H	 -1.357882	 -0.655920	 -1.165207
H	 -2.140147	 0.011735	 0.257253
H	 -1.440790	 -1.601175	 0.317669

	symmetry c1
}
set optking {
	frozen_dihedral = ("
		1 2 3 4
	")
}

ee,wfn = optimize('scf', return_wfn=True)
oeprop( wfn, 'DIPOLE', 'QUADRUPOLE', 'MULLIKEN_CHARGES')
f=open( 'psi4out.xyz', 'w' )
f.write( "12  " )
f.write( str(ee) + "\n" )
f.write( MOL.save_string_xyz() )
f.close()
--------------------------------------------------------------------------

    Molecular point group: c1
  Charge       = 0
  Multiplicity = 1
  Basis Set: CC-PVTZ
  Basis Set:
  @DF-RHF Final Energy:  -193.19329663702146
    Total Energy =                       -193.1932966370214331
    Molecular point group: c1
  Basis Set: CC-PVTZ
  Basis Set:
  Basis Set: CC-PVTZ
  Basis Set:
  @DF-RHF Final Energy:  -193.19488314287105
    Total Energy =                       -193.1948831428712197
  Basis Set: CC-PVTZ
  Basis Set:
  Basis Set: CC-PVTZ
  Basis Set:
  @DF-RHF Final Energy:  -193.19526376952956
    Total Energy =                       -193.1952637695296460
  Basis Set: CC-PVTZ
  Basis Set:
  Charge       = 0
  Multiplicity = 1
  Basis Set: CC-PVTZ
  Basis Set:

    Orbital Energies (a.u.)
    -----------------------

    Doubly Occupied:

       1A    -20.543591     2A    -11.273910     3A    -11.213764
       4A    -11.208066     5A     -1.364319     6A     -1.043065
       7A     -0.942179     8A     -0.819922     9A     -0.663311
      10A     -0.646535    11A     -0.604339    12A     -0.574305
      13A     -0.545295    14A     -0.517479    15A     -0.511738
      16A     -0.466550    17A     -0.433727

  @DF-RHF Final Energy:  -193.19526657876435

   => Energetics <=

    Nuclear Repulsion Energy =            135.5738702610418045
    One-Electron Energy =                -530.7940865247253441
    Two-Electron Energy =                 202.0249496849193349
    DFT Exchange-Correlation Energy =       0.0000000000000000
    Empirical Dispersion Energy =           0.0000000000000000
    PCM Polarization Energy =               0.0000000000000000
    EFP Energy =                            0.0000000000000000
    Total Energy =                       -193.1952665787642047
    Molecular point group: c1
  Basis Set: CC-PVTZ
  Basis Set:

  -Total Gradient:
     Atom            X                  Y                   Z
    ------   -----------------  -----------------  -----------------
       1       -0.001194344131     0.000159021614     0.000327503319
       2        0.001682713682    -0.000241882141    -0.000083818512
       3       -0.000745559446    -0.000320725972    -0.000807784507
       4        0.000296116573     0.000365595516     0.000621863312
       5       -0.000108887208    -0.000054510302    -0.000086478777
       6        0.000029582859     0.000035014714    -0.000036118468
       7       -0.000001535030     0.000003979944     0.000018207986
       8        0.000050605681    -0.000008341444    -0.000001781545
       9       -0.000047830384     0.000040236819     0.000022326786
      10       -0.000006057839    -0.000005098666    -0.000002546869
      11        0.000013143744     0.000017236612     0.000016074917
      12        0.000032051497     0.000009473306     0.000012552356

  **** Optimization is complete! (in 4 steps) ****
    Final optimized geometry and variables:
    Molecular point group: c1

    Geometry (in Angstrom), charge = 0, multiplicity = 1:

    H           -0.152784487085     1.361443657077    -1.030426680960
    O            0.089183700099     1.328548502962    -0.122162457398
    C           -0.001792774752     0.006758206882     0.353281513094
    C            1.224542963284    -0.797172387756    -0.051867415954
    C           -1.303530450595    -0.647327082513    -0.083578373092
    H           -0.008271916428     0.102353005528     1.432492513727
    H            1.271931399317    -0.912267419200    -1.130859760138
    H            2.125311510260    -0.292651419537     0.273141300534
    H            1.204159543759    -1.787049685056     0.390625577178
    H           -1.339327520469    -0.751286795088    -1.165093782131
    H           -2.150699984883    -0.049602555894     0.229009603897
    H           -1.403891842639    -1.637028719097     0.346185430468

  Mulliken Charges: (a.u.)
   Center  Symbol    Alpha    Beta     Spin     Total
       1     H     0.39438  0.39438  0.00000  0.21124
       2     O     4.20952  4.20952  0.00000 -0.41904
       3     C     2.92645  2.92645  0.00000  0.14711
       4     C     3.14263  3.14263  0.00000 -0.28526
       5     C     3.15008  3.15008  0.00000 -0.30016
       6     H     0.45225  0.45225  0.00000  0.09550
       7     H     0.46132  0.46132  0.00000  0.07735
       8     H     0.44552  0.44552  0.00000  0.10896
       9     H     0.45779  0.45779  0.00000  0.08442
      10     H     0.46150  0.46150  0.00000  0.07701
      11     H     0.44416  0.44416  0.00000  0.11168
      12     H     0.45440  0.45440  0.00000  0.09120

   Total alpha = 17.00000, Total beta = 17.00000, Total charge =  0.00000

*** Psi4 exiting successfully. Buy a developer a beer!
