                              Psi4 1.0.54 Driver

  ==> Input File <==

--------------------------------------------------------------------------
set {
	reference rhf
	basis cc-pvtz
}

set_num_threads( 4 )
memory 2 gb

molecule MOL {
0 1

H	 -2.644180	 -0.653737	 1.272255
C	 -2.092774	 -0.380414	 0.391915
O	 -0.808934	 -0.154049	 0.752536
F	 -2.163230	 -1.351640	 -0.507133
F	 -2.627232	 0.691260	 -0.169301
C	 0.040662	 0.423903	 -0.165864
C	 1.361383	 -0.340282	 -0.111148
Cl	 0.313013	 2.137436	 0.201786
H	 -0.337302	 0.367299	 -1.171640
F	 2.212066	 0.152665	 -0.975072
F	 1.142748	 -1.594125	 -0.429567
F	 1.903137	 -0.307845	 1.075318

	symmetry c1
}
set optking {
	frozen_dihedral = ("
		6 3 2 4
	")
}

ee,wfn = optimize('scf', return_wfn=True)
oeprop( wfn, 'DIPOLE', 'QUADRUPOLE', 'MULLIKEN_CHARGES')
f=open( 'psi4out.xyz', 'w' )
f.write( "12  " )
f.write( str(ee) + "\n" )
f.write( MOL.save_string_xyz() )
f.close()
--------------------------------------------------------------------------

    Molecular point group: c1
  Charge       = 0
  Multiplicity = 1
  Basis Set: CC-PVTZ
  Basis Set:
  @DF-RHF Final Energy: -1146.62017184615843
    Total Energy =                      -1146.6201718461584278
    Molecular point group: c1
  Basis Set: CC-PVTZ
  Basis Set:
  Basis Set: CC-PVTZ
  Basis Set:
  @DF-RHF Final Energy: -1146.62017885843534
    Total Energy =                      -1146.6201788584353380
  Basis Set: CC-PVTZ
  Basis Set:
  Basis Set: CC-PVTZ
  Basis Set:
  @DF-RHF Final Energy: -1146.62018442812359
    Total Energy =                      -1146.6201844281235935
  Basis Set: CC-PVTZ
  Basis Set:
  Basis Set: CC-PVTZ
  Basis Set:
  @DF-RHF Final Energy: -1146.62018606208630
    Total Energy =                      -1146.6201860620860771
  Basis Set: CC-PVTZ
  Basis Set:
  Basis Set: CC-PVTZ
  Basis Set:
  @DF-RHF Final Energy: -1146.62018729214537
    Total Energy =                      -1146.6201872921453742
  Basis Set: CC-PVTZ
  Basis Set:
  Charge       = 0
  Multiplicity = 1
  Basis Set: CC-PVTZ
  Basis Set:

    Orbital Energies (a.u.)
    -----------------------

    Doubly Occupied:

       1A   -104.856616     2A    -26.354793     3A    -26.353656
       4A    -26.353061     5A    -26.345846     6A    -26.341619
       7A    -20.641170     8A    -11.520080     9A    -11.484162
      10A    -11.401372    11A    -10.582154    12A     -8.048949
      13A     -8.046967    14A     -8.046889    15A     -1.767778
      16A     -1.725345    17A     -1.662726    18A     -1.661150
      19A     -1.645536    20A     -1.487473    21A     -1.178234
      22A     -1.053416    23A     -0.990917    24A     -0.924666
      25A     -0.864663    26A     -0.858388    27A     -0.851935
      28A     -0.831039    29A     -0.818170    30A     -0.794304
      31A     -0.733523    32A     -0.732957    33A     -0.711887
      34A     -0.708836    35A     -0.684935    36A     -0.681254
      37A     -0.666054    38A     -0.663946    39A     -0.651174
      40A     -0.638494    41A     -0.598541    42A     -0.581924
      43A     -0.524510    44A     -0.478682    45A     -0.470090

  @DF-RHF Final Energy: -1146.62018755663121

   => Energetics <=

    Nuclear Repulsion Energy =            738.2171844338524807
    One-Electron Energy =               -3059.6349895962612209
    Two-Electron Energy =                1174.7976176057782141
    DFT Exchange-Correlation Energy =       0.0000000000000000
    Empirical Dispersion Energy =           0.0000000000000000
    PCM Polarization Energy =               0.0000000000000000
    EFP Energy =                            0.0000000000000000
    Total Energy =                      -1146.6201875566302988
    Molecular point group: c1
  Basis Set: CC-PVTZ
  Basis Set:

  -Total Gradient:
     Atom            X                  Y                   Z
    ------   -----------------  -----------------  -----------------
       1        0.000033713118     0.000006006369     0.000025670688
       2       -0.000097437173     0.001946422200    -0.001173236130
       3        0.000531290557    -0.002262217787    -0.000400874687
       4       -0.000120673845    -0.000920410763     0.001018741843
       5        0.000039175195    -0.000072781833    -0.000004527170
       6       -0.000410575248     0.001291186355     0.000555186164
       7       -0.000007860024    -0.000052548259     0.000011013586
       8        0.000016596754     0.000000296156    -0.000008038630
       9        0.000002262765     0.000006921741    -0.000007081972
      10        0.000018224094     0.000015582195    -0.000015771468
      11        0.000002459920     0.000040114841     0.000011967401
      12       -0.000007176107     0.000001428907    -0.000013049620

  **** Optimization is complete! (in 6 steps) ****
    Final optimized geometry and variables:
    Molecular point group: c1

    Geometry (in Angstrom), charge = 0, multiplicity = 1:

    H           -2.615776021213    -0.787737807565     1.266642607803
    C           -2.070036358865    -0.503589699285     0.386014332656
    O           -0.781398430530    -0.288743570660     0.739108296402
    F           -2.148961134156    -1.466355278296    -0.520619132327
    F           -2.605744790954     0.575959905746    -0.157631249018
    C            0.066211374122     0.291562916760    -0.178992113117
    C            1.392328423905    -0.462968586781    -0.116935205453
    CL           0.324838876895     2.008653738906     0.182173288506
    H           -0.307862506237     0.227984558778    -1.186084193082
    F            2.242808927139     0.034603103078    -0.978677272288
    F            1.184168490632    -1.718799537930    -0.433412277994
    F            1.929022891752    -0.423439631670     1.071591265667

  Mulliken Charges: (a.u.)
   Center  Symbol    Alpha    Beta     Spin     Total
       1     H     0.45252  0.45252  0.00000  0.09495
       2     C     2.73975  2.73975  0.00000  0.52051
       3     O     4.15666  4.15666  0.00000 -0.31331
       4     F     4.61688  4.61688  0.00000 -0.23377
       5     F     4.61556  4.61556  0.00000 -0.23112
       6     C     2.93680  2.93680  0.00000  0.12640
       7     C     2.66903  2.66903  0.00000  0.66193
       8    CL     8.57456  8.57456  0.00000 -0.14912
       9     H     0.43084  0.43084  0.00000  0.13831
      10     F     4.60257  4.60257  0.00000 -0.20514
      11     F     4.60428  4.60428  0.00000 -0.20856
      12     F     4.60054  4.60054  0.00000 -0.20107

   Total alpha = 45.00000, Total beta = 45.00000, Total charge = -0.00000

*** Psi4 exiting successfully. Buy a developer a beer!
