  ==> Input File <==

--------------------------------------------------------------------------
set {
	reference rhf
	basis cc-pvtz
}

set_num_threads( 4 )
memory 2 gb

molecule MOL {
0 1

H	 -1.778758	 2.015573	 -0.918897
C	 -1.162557	 2.305290	 -0.078314
C	 0.155374	 1.546433	 -0.080557
H	 -1.725356	 2.103156	 0.823138
H	 -0.982068	 3.371980	 -0.137481
C	 0.000000	 0.039916	 0.000014
H	 0.781809	 1.857762	 0.751039
H	 0.728915	 1.770952	 -0.975842
C	 1.286532	 -0.763243	 0.000268
O	 -1.066039	 -0.480093	 0.059438
C	 2.547023	 0.087626	 -0.000114
H	 1.264245	 -1.421103	 -0.864380
H	 1.264290	 -1.420353	 0.865489
H	 2.584452	 0.725630	 -0.872909
H	 3.427035	 -0.544422	 0.000125
H	 2.584484	 0.726356	 0.872143

	symmetry c1
}
set optking {
	frozen_dihedral = ("
		3 6 9 12
	")
}

ee = optimize('scf')
oeprop('DIPOLE', 'QUADRUPOLE', 'MULLIKEN_CHARGES')
f=open( 'psi4out.xyz', 'w' )
f.write( "16  " )
f.write( str(ee) + "\n" )
f.write( MOL.save_string_xyz() )
f.close()
--------------------------------------------------------------------------

    Molecular point group: c1
  Charge       = 0
  Multiplicity = 1
  Basis Set: CC-PVTZ
  Basis Set:
  @DF-RHF Final Energy:  -270.12407469884812
    Total Energy =                       -270.1240746988479486
    Molecular point group: c1
  Basis Set: CC-PVTZ
  Basis Set:
  Basis Set: CC-PVTZ
  Basis Set:
  @DF-RHF Final Energy:  -270.12568998100818
    Total Energy =                       -270.1256899810081222
  Basis Set: CC-PVTZ
  Basis Set:
  Basis Set: CC-PVTZ
  Basis Set:
  @DF-RHF Final Energy:  -270.12702050527173
    Total Energy =                       -270.1270205052716165
  Basis Set: CC-PVTZ
  Basis Set:
  Basis Set: CC-PVTZ
  Basis Set:
  @DF-RHF Final Energy:  -270.12715773631305
    Total Energy =                       -270.1271577363128245
  Basis Set: CC-PVTZ
  Basis Set:
  Basis Set: CC-PVTZ
  Basis Set:
  @DF-RHF Final Energy:  -270.12721426042560
    Total Energy =                       -270.1272142604255464
  Basis Set: CC-PVTZ
  Basis Set:
  Basis Set: CC-PVTZ
  Basis Set:
  @DF-RHF Final Energy:  -270.12723143042149
    Total Energy =                       -270.1272314304217161
  Basis Set: CC-PVTZ
  Basis Set:
  Charge       = 0
  Multiplicity = 1
  Basis Set: CC-PVTZ
  Basis Set:

    Orbital Energies (a.u.)
    -----------------------

    Doubly Occupied:

       1A    -20.534620     2A    -11.318577     3A    -11.232358
       4A    -11.231752     5A    -11.225201     6A    -11.211117
       7A     -1.396667     8A     -1.072538     9A     -1.036225
      10A     -0.907687    11A     -0.868394    12A     -0.722644
      13A     -0.655215    14A     -0.650095    15A     -0.632055
      16A     -0.609585    17A     -0.553592    18A     -0.542217
      19A     -0.538760    20A     -0.511587    21A     -0.507600
      22A     -0.504019    23A     -0.472681    24A     -0.397994

  @DF-RHF Final Energy:  -270.12723157190226

   => Energetics <=

    Nuclear Repulsion Energy =            240.7971213623002882
    One-Electron Energy =                -843.1823465767862444
    Two-Electron Energy =                 332.2579936425838696
    DFT Exchange-Correlation Energy =       0.0000000000000000
    Empirical Dispersion Energy =           0.0000000000000000
    PCM Polarization Energy =               0.0000000000000000
    EFP Energy =                            0.0000000000000000
    Total Energy =                       -270.1272315719020298
    Molecular point group: c1
  Basis Set: CC-PVTZ
  Basis Set:

  -Total Gradient:
     Atom            X                  Y                   Z
    ------   -----------------  -----------------  -----------------
       1       -0.000004557712     0.000003610241     0.000003026824
       2       -0.000011869625    -0.000015218656    -0.000017816065
       3        0.000023837337     0.000022123457     0.000360196867
       4       -0.000005871636     0.000000872518     0.000005336998
       5        0.000003176300    -0.000002193018     0.000001747009
       6       -0.000057522805    -0.000098915283    -0.000446238344
       7       -0.000009896609    -0.000002236400    -0.000013222241
       8        0.000007944282    -0.000015697770    -0.000015398899
       9        0.000214373492     0.000341079462    -0.000099020668
      10        0.000007032483     0.000031674612     0.000009333770
      11        0.000002956272    -0.000002031068     0.000013240039
      12       -0.000178464947    -0.000271389271     0.000211347956
      13       -0.000003400869     0.000009901735    -0.000008174976
      14       -0.000004395918     0.000004457297    -0.000002793299
      15        0.000006715085    -0.000003251546    -0.000001696441
      16        0.000009944865    -0.000002786310     0.000000131470

  **** Optimization is complete! (in 7 steps) ****
    Final optimized geometry and variables:
    Molecular point group: c1

    Geometry (in Angstrom), charge = 0, multiplicity = 1:

    H           -2.149108101258     1.496985247612    -0.903003015399
    C           -1.545998377515     1.821428776768    -0.065783226092
    C           -0.190547679491     1.132092480503    -0.069479787221
    H           -2.094913167737     1.593698479699     0.837980124192
    H           -1.420021087342     2.895743689638    -0.129352379707
    C           -0.275819853393    -0.377356095016     0.016827531657
    H            0.421457205533     1.479913740639     0.757491343455
    H            0.367501669465     1.383389281912    -0.967040453683
    C            1.004356185000    -1.205635356944     0.013958058216
    O           -1.322290881406    -0.936468256595     0.083252907917
    C            2.344243080101    -0.477496708495     0.020233014823
    H            0.932418957303    -1.851710703019    -0.854589971483
    H            0.930206751778    -1.862870090528     0.872697063197
    H            2.470412970960     0.153930409537    -0.850659670185
    H            3.150967517289    -1.199992288875     0.016472053899
    H            2.466491498890     0.140150951158     0.901804582904

  Mulliken Charges: (a.u.)
   Center  Symbol    Alpha    Beta     Spin     Total
       1     H     0.44756  0.44756  0.00000  0.10488
       2     C     3.14193  3.14193  0.00000 -0.28385
       3     C     3.10436  3.10436  0.00000 -0.20872
       4     H     0.44753  0.44753  0.00000  0.10495
       5     H     0.45095  0.45095  0.00000  0.09810
       6     C     2.87298  2.87298  0.00000  0.25405
       7     H     0.44385  0.44385  0.00000  0.11231
       8     H     0.44374  0.44374  0.00000  0.11252
       9     C     3.08855  3.08855  0.00000 -0.17710
      10     O     4.17857  4.17857  0.00000 -0.35714
      11     C     3.15894  3.15894  0.00000 -0.31788
      12     H     0.43962  0.43962  0.00000  0.12077
      13     H     0.43828  0.43828  0.00000  0.12344
      14     H     0.45123  0.45123  0.00000  0.09753
      15     H     0.44110  0.44110  0.00000  0.11780
      16     H     0.45083  0.45083  0.00000  0.09834

   Total alpha = 24.00000, Total beta = 24.00000, Total charge =  0.00000
