  ==> Input File <==

--------------------------------------------------------------------------
set {
	reference rhf
	basis 6-31G*
}

set_num_threads( 1 )
memory 2 gb

molecule MOL {
0 1

H	 -0.503143	 -1.641513	 0.153194
N	 -0.626943	 -0.667432	 -0.000092
C	 -1.968868	 -0.173637	 -0.210142
C	 0.469286	 0.129090	 0.000148
H	 -2.418932	 -0.631799	 -1.084520
H	 -1.915813	 0.892170	 -0.361695
H	 -2.596972	 -0.376010	 0.650999
C	 1.788933	 -0.616240	 -0.000037
O	 0.411098	 1.327768	 -0.000049
H	 1.872803	 -1.245775	 -0.880381
H	 2.595421	 0.101576	 0.003713
H	 1.870096	 -1.252171	 0.875943

	symmetry c1
}
set optking {
	frozen_dihedral = ("
		4 2 3 5
	")
}

ee = energy('scf')
oeprop('DIPOLE', 'QUADRUPOLE', 'MULLIKEN_CHARGES')
f=open( 'psi4out.xyz', 'w' )
f.write( "12  " )
f.write( str(ee) + "\n" )
f.write( MOL.save_string_xyz() )
f.close()
--------------------------------------------------------------------------

    Molecular point group: c1

    Geometry (in Angstrom), charge = 0, multiplicity = 1:

       Center              X                  Y                   Z               Mass
    ------------   -----------------  -----------------  -----------------  -----------------
           H         -0.505380283235    -1.638446294161     0.196590312234     1.007825032070
           N         -0.629180283235    -0.664365294161     0.043304312234    14.003074004780
           C         -1.971105283235    -0.170570294161    -0.166745687766    12.000000000000
           C          0.467048716765     0.132156705839     0.043544312234    12.000000000000
           H         -2.421169283235    -0.628732294161    -1.041123687766     1.007825032070
           H         -1.918050283235     0.895236705839    -0.318298687766     1.007825032070
           H         -2.599209283235    -0.372943294161     0.694395312234     1.007825032070
           C          1.786695716765    -0.613173294161     0.043359312234    12.000000000000
           O          0.408860716765     1.330834705839     0.043347312234    15.994914619560
           H          1.870565716765    -1.242708294161    -0.836984687766     1.007825032070
           H          2.593183716765     0.104642705839     0.047109312234     1.007825032070
           H          1.867858716765    -1.249104294161     0.919339312234     1.007825032070

  Charge       = 0
  Multiplicity = 1
  Basis Set: 6-31G*
  Basis Set:

    Orbital Energies (a.u.)
    -----------------------

    Doubly Occupied:

       1A    -20.516517     2A    -15.580483     3A    -11.343288
       4A    -11.253922     5A    -11.229522     6A     -1.384364
       7A     -1.227878     8A     -1.015478     9A     -0.931676
      10A     -0.786359    11A     -0.689057    12A     -0.647991
      13A     -0.632297    14A     -0.585896    15A     -0.579856
      16A     -0.554892    17A     -0.544402    18A     -0.506795
      19A     -0.413124    20A     -0.383710

  @DF-RHF Final Energy:  -247.00434094706171

   => Energetics <=

    Nuclear Repulsion Energy =            181.2441282398532110
    One-Electron Energy =                -694.8817629773834597
    Two-Electron Energy =                 266.6332937904688265
    DFT Exchange-Correlation Energy =       0.0000000000000000
    Empirical Dispersion Energy =           0.0000000000000000
    PCM Polarization Energy =               0.0000000000000000
    EFP Energy =                            0.0000000000000000
    Total Energy =                       -247.0043409470613938

  Mulliken Charges: (a.u.)
   Center  Symbol    Alpha    Beta     Spin     Total
       1     H     0.31117  0.31117  0.00000  0.37767
       2     N     3.89154  3.89154  0.00000 -0.78309
       3     C     3.14201  3.14201  0.00000 -0.28401
       4     C     2.63162  2.63162  0.00000  0.73676
       5     H     0.41705  0.41705  0.00000  0.16591
       6     H     0.38630  0.38630  0.00000  0.22739
       7     H     0.41638  0.41638  0.00000  0.16724
       8     C     3.29449  3.29449  0.00000 -0.58897
       9     O     4.30127  4.30127  0.00000 -0.60253
      10     H     0.40663  0.40663  0.00000  0.18674
      11     H     0.39215  0.39215  0.00000  0.21570
      12     H     0.40940  0.40940  0.00000  0.18120

   Total alpha = 20.00000, Total beta = 20.00000, Total charge =  0.00000
