  ==> Input File <==

--------------------------------------------------------------------------
set {
	reference rhf
	basis 6-31G*
}

set_num_threads( 4 )
memory 2 gb

molecule MOL {
0 1

H	 2.866480	 -0.465706	 0.876907
C	 2.405773	 -0.024801	 0.000000
N	 0.988830	 -0.304158	 0.000000
H	 2.866480	 -0.465706	 -0.876907
H	 2.629928	 1.045948	 0.000000
C	 0.670685	 -1.551075	 0.670782
C	 0.420356	 -0.281368	 -1.335023
H	 1.139860	 -2.406526	 0.174217
H	 1.047393	 -1.512810	 1.688069
C	 -0.835698	 -1.751715	 0.694106
H	 0.613763	 0.686634	 -1.786477
H	 0.871290	 -1.044297	 -1.977750
C	 -1.079389	 -0.515680	 -1.258507
H	 -1.087029	 -2.718154	 1.111053
H	 -1.297306	 -0.978788	 1.306047
O	 -1.365292	 -1.718359	 -0.601413
H	 -1.506492	 -0.590575	 -2.249966
H	 -1.552462	 0.315402	 -0.738434

	symmetry c1
}
set optking {
	frozen_dihedral = ("
		6 3 2 5
	")
}

ee = optimize('scf')
oeprop('DIPOLE', 'QUADRUPOLE', 'MULLIKEN_CHARGES')
f=open( 'psi4out.xyz', 'w' )
f.write( "18  " )
f.write( str(ee) + "\n" )
f.write( MOL.save_string_xyz() )
f.close()
--------------------------------------------------------------------------

    Molecular point group: c1
  Charge       = 0
  Multiplicity = 1
  Basis Set: 6-31G*
  Basis Set:
  @DF-RHF Final Energy:  -325.02516827448454
    Total Energy =                       -325.0251682744842014
    Molecular point group: c1
  Basis Set: 6-31G*
  Basis Set:
  Basis Set: 6-31G*
  Basis Set:
  @DF-RHF Final Energy:  -325.02621217320234
    Total Energy =                       -325.0262121732019978
  Basis Set: 6-31G*
  Basis Set:
  Basis Set: 6-31G*
  Basis Set:
  @DF-RHF Final Energy:  -325.02632772395077
    Total Energy =                       -325.0263277239509989
  Basis Set: 6-31G*
  Basis Set:
  Basis Set: 6-31G*
  Basis Set:
  @DF-RHF Final Energy:  -325.02633139974733
    Total Energy =                       -325.0263313997470505
  Basis Set: 6-31G*
  Basis Set:
  Charge       = 0
  Multiplicity = 1
  Basis Set: 6-31G*
  Basis Set:

    Orbital Energies (a.u.)
    -----------------------

    Doubly Occupied:

       1A    -20.553747     2A    -15.546886     3A    -11.265848
       4A    -11.265792     5A    -11.244210     6A    -11.243867
       7A    -11.240874     8A     -1.382994     9A     -1.229839
      10A     -1.038565    11A     -0.980971    12A     -0.883044
      13A     -0.869175    14A     -0.773317    15A     -0.683198
      16A     -0.645263    17A     -0.643209    18A     -0.632794
      19A     -0.627781    20A     -0.570918    21A     -0.556852
      22A     -0.544697    23A     -0.526347    24A     -0.501009
      25A     -0.484836    26A     -0.452216    27A     -0.407819
      28A     -0.347796

  @DF-RHF Final Energy:  -325.02633167375404

   => Energetics <=

    Nuclear Repulsion Energy =            341.1865418162441301
    One-Electron Energy =               -1118.1380225063060152
    Two-Electron Energy =                 451.9251490163073299
    DFT Exchange-Correlation Energy =       0.0000000000000000
    Empirical Dispersion Energy =           0.0000000000000000
    PCM Polarization Energy =               0.0000000000000000
    EFP Energy =                            0.0000000000000000
    Total Energy =                       -325.0263316737545551
    Molecular point group: c1
  Basis Set: 6-31G*
  Basis Set:

  -Total Gradient:
     Atom            X                  Y                   Z
    ------   -----------------  -----------------  -----------------
       1        0.000009544859    -0.000005009445     0.000009468451
       2       -0.000110938321     0.000581777022    -0.004518764946
       3        0.000547372094    -0.002479441610    -0.003023149921
       4       -0.000004053924     0.000005988512     0.000022038148
       5       -0.000064932231     0.000093855879     0.004540588206
       6       -0.000393346521     0.001765498062     0.002963728605
       7        0.000002947445     0.000013067966     0.000021690587
       8        0.000008566934     0.000003967134    -0.000001403304
       9       -0.000001549293     0.000001954972    -0.000004775419
      10       -0.000015589457     0.000040662334    -0.000002382088
      11        0.000000787063    -0.000003096354     0.000001139463
      12       -0.000004389191    -0.000001265654    -0.000003909882
      13        0.000001045024    -0.000005908721    -0.000017357210
      14        0.000002832472     0.000002904089    -0.000009585505
      15       -0.000002612177     0.000000663897     0.000011749057
      16        0.000022409125    -0.000016411261     0.000013834972
      17       -0.000007642214    -0.000001394624    -0.000000318135
      18        0.000009548314     0.000002187803    -0.000002591079

  **** Optimization is complete! (in 5 steps) ****
    Final optimized geometry and variables:
    Molecular point group: c1

    Geometry (in Angstrom), charge = 0, multiplicity = 1:

    H            2.686236409416     0.517202565460     1.181603669945
    C            2.239391557261     0.867618106640     0.258171848132
    N            0.829742034099     0.544046828715     0.249223998924
    H            2.790436503997     0.416067228233    -0.568995275823
    H            2.378133334101     1.943870530153     0.235905148450
    C            0.496712769644    -0.689711256192     0.933609843540
    C            0.243447287204     0.602442018791    -1.073539874154
    H            0.945186938822    -1.563264760904     0.449013276075
    H            0.874691969462    -0.644474282665     1.949423533112
    C           -1.013551650498    -0.860046124497     0.964527459687
    H            0.445125531827     1.577075817803    -1.507650273968
    H            0.676301607294    -0.151998465978    -1.738531169136
    C           -1.258160572373     0.386727331765    -0.982040272873
    H           -1.282846917525    -1.820471945402     1.384322145516
    H           -1.455402031985    -0.076412227065     1.577455536593
    O           -1.550109966964    -0.816294370339    -0.327965420019
    H           -1.698110997274     0.322956672061    -1.968716595194
    H           -1.715231106505     1.219701173572    -0.450949315601

  Mulliken Charges: (a.u.)
   Center  Symbol    Alpha    Beta     Spin     Total
       1     H     0.41856  0.41856  0.00000  0.16288
       2     C     3.13847  3.13847  0.00000 -0.27694
       3     N     3.79269  3.79269  0.00000 -0.58538
       4     H     0.42977  0.42977  0.00000  0.14045
       5     H     0.41509  0.41509  0.00000  0.16983
       6     C     3.06501  3.06501  0.00000 -0.13002
       7     C     3.06544  3.06544  0.00000 -0.13089
       8     H     0.42903  0.42903  0.00000  0.14195
       9     H     0.41704  0.41704  0.00000  0.16593
      10     C     2.99809  2.99809  0.00000  0.00383
      11     H     0.41695  0.41695  0.00000  0.16609
      12     H     0.42854  0.42854  0.00000  0.14291
      13     C     2.99769  2.99769  0.00000  0.00462
      14     H     0.41343  0.41343  0.00000  0.17315
      15     H     0.42432  0.42432  0.00000  0.15135
      16     O     4.31218  4.31218  0.00000 -0.62435
      17     H     0.41340  0.41340  0.00000  0.17319
      18     H     0.42430  0.42430  0.00000  0.15140

   Total alpha = 28.00000, Total beta = 28.00000, Total charge =  0.00000
