  ==> Input File <==

--------------------------------------------------------------------------
set {
	reference rhf
	basis 6-31G*
}

set_num_threads( 4 )
memory 2 gb

molecule MOL {
0 1

H	 -2.422942	 1.093368	 2.608294
C	 -2.366356	 0.298073	 1.890684
C	 -1.285264	 0.151781	 1.160041
H	 -3.206245	 -0.363255	 1.789971
O	 -1.180634	 -0.819263	 0.215062
H	 -0.430683	 0.798839	 1.250605
C	 0.051604	 -1.018856	 -0.387932
C	 1.043764	 0.054862	 -0.001873
H	 -0.017620	 -1.041351	 -1.469781
H	 0.437898	 -1.966374	 -0.042284
F	 2.212596	 -0.199467	 -0.571921
F	 0.652529	 1.252447	 -0.405055
F	 1.230877	 0.110694	 1.300533

	symmetry c1
}
set optking {
	frozen_dihedral = ("
		3 5 7 9
	")
}

ee = optimize('scf')
oeprop('DIPOLE', 'QUADRUPOLE', 'MULLIKEN_CHARGES')
f=open( 'psi4out.xyz', 'w' )
f.write( "13  " )
f.write( str(ee) + "\n" )
f.write( MOL.save_string_xyz() )
f.close()
--------------------------------------------------------------------------

    Molecular point group: c1
  Charge       = 0
  Multiplicity = 1
  Basis Set: 6-31G*
  Basis Set:
  @DF-RHF Final Energy:  -527.50714535199404
    Total Energy =                       -527.5071453519940405
    Molecular point group: c1
  Basis Set: 6-31G*
  Basis Set:
  Basis Set: 6-31G*
  Basis Set:
  @DF-RHF Final Energy:  -527.52009270223607
    Total Energy =                       -527.5200927022358428
  Basis Set: 6-31G*
  Basis Set:
  Basis Set: 6-31G*
  Basis Set:
  @DF-RHF Final Energy:  -527.52467517630794
    Total Energy =                       -527.5246751763085058
  Basis Set: 6-31G*
  Basis Set:
  Basis Set: 6-31G*
  Basis Set:
  @DF-RHF Final Energy:  -527.52584755718067
    Total Energy =                       -527.5258475571808958
  Basis Set: 6-31G*
  Basis Set:
  @DF-RHF Final Energy:  -527.52617033664910
    Total Energy =                       -527.5261703366494430
  @DF-RHF Final Energy:  -527.52624444940682
    Total Energy =                       -527.5262444494064766
  Basis Set: 6-31G*
  Basis Set:
  @DF-RHF Final Energy:  -527.52627281639366
    Total Energy =                       -527.5262728163936572
  Basis Set: 6-31G*
  Basis Set:
  Basis Set: 6-31G*
  Basis Set:
  @DF-RHF Final Energy:  -527.52627874615541
    Total Energy =                       -527.5262787461557537
  Basis Set: 6-31G*
  Basis Set:
  Basis Set: 6-31G*
  Basis Set:
  @DF-RHF Final Energy:  -527.52628073390520
    Total Energy =                       -527.5262807339050823
  Basis Set: 6-31G*
  Basis Set:
  Charge       = 0
  Multiplicity = 1
  Basis Set: 6-31G*
  Basis Set:

    Orbital Energies (a.u.)
    -----------------------

    Doubly Occupied:

       1A    -26.351812     2A    -26.351405     3A    -26.350430
       4A    -20.600235     5A    -11.513104     6A    -11.319054
       7A    -11.294967     8A    -11.214857     9A     -1.750327
      10A     -1.647554    11A     -1.646981    12A     -1.426450
      13A     -1.084298    14A     -1.019714    15A     -0.931275
      16A     -0.845038    17A     -0.839551    18A     -0.835287
      19A     -0.759858    20A     -0.725506    21A     -0.721228
      22A     -0.701351    23A     -0.682403    24A     -0.663937
      25A     -0.655345    26A     -0.651565    27A     -0.644500
      28A     -0.592818    29A     -0.558624    30A     -0.524978
      31A     -0.486762    32A     -0.352213

  @DF-RHF Final Energy:  -527.52628124361081

   => Energetics <=

    Nuclear Repulsion Energy =            416.2315911126817696
    One-Electron Energy =               -1556.0288882444833689
    Two-Electron Energy =                 612.2710158881905045
    DFT Exchange-Correlation Energy =       0.0000000000000000
    Empirical Dispersion Energy =           0.0000000000000000
    PCM Polarization Energy =               0.0000000000000000
    EFP Energy =                            0.0000000000000000
    Total Energy =                       -527.5262812436110380
    Molecular point group: c1
  Basis Set: 6-31G*
  Basis Set:

  -Total Gradient:
     Atom            X                  Y                   Z
    ------   -----------------  -----------------  -----------------
       1       -0.000005483606    -0.000001991803     0.000001569728
       2       -0.000005955363     0.000001061712     0.000003605080
       3       -0.000190455625     0.001102450413    -0.001144520411
       4       -0.000000866789     0.000000561030    -0.000000400398
       5        0.000359327773    -0.001236331879     0.001747705778
       6       -0.000018941253    -0.000014063768     0.000004119845
       7       -0.000596150237    -0.001468759192    -0.000600487535
       8        0.000014334647    -0.000032239897    -0.000085050702
       9        0.000416343254     0.001647057732     0.000003329538
      10        0.000004746794     0.000004914776     0.000002973240
      11        0.000022525565    -0.000000931246     0.000006335684
      12       -0.000034722869    -0.000005177145     0.000060450492
      13        0.000035297711     0.000003449272     0.000000369657

  **** Optimization is complete! (in 10 steps) ****
    Final optimized geometry and variables:
    Molecular point group: c1

    Geometry (in Angstrom), charge = 0, multiplicity = 1:

    H           -2.869518490714     1.007364966853     2.321078326161
    C           -2.661287072141     0.214274010093     1.628907791628
    C           -1.706269366019     0.355934062029     0.738479004849
    H           -3.259873898772    -0.676208007533     1.674761594561
    O           -1.481655017138    -0.596339269374    -0.207878498673
    H           -1.106466163758     1.241982821503     0.674652789575
    C           -0.223139123580    -0.916566385625    -0.713570852264
    C            0.935373762673    -0.009851224479    -0.355652396876
    H           -0.284483720837    -0.908352354679    -1.793037732014
    H            0.051735275790    -1.910173655057    -0.383376468775
    F            2.022769053436    -0.474689949798    -0.948115968595
    F            0.755381974159     1.233846080946    -0.771502330861
    F            1.174278831157     0.033965342913     0.942365689842

  Mulliken Charges: (a.u.)
   Center  Symbol    Alpha    Beta     Spin     Total
       1     H     0.40757  0.40757  0.00000  0.18487
       2     C     3.22952  3.22952  0.00000 -0.45905
       3     C     2.90758  2.90758  0.00000  0.18484
       4     H     0.40377  0.40377  0.00000  0.19246
       5     O     4.31719  4.31719  0.00000 -0.63439
       6     H     0.39693  0.39693  0.00000  0.20614
       7     C     3.01937  3.01937  0.00000 -0.03873
       8     C     2.48157  2.48157  0.00000  1.03686
       9     H     0.39939  0.39939  0.00000  0.20122
      10     H     0.40127  0.40127  0.00000  0.19747
      11     F     4.68013  4.68013  0.00000 -0.36025
      12     F     4.67926  4.67926  0.00000 -0.35853
      13     F     4.67645  4.67645  0.00000 -0.35291

   Total alpha = 32.00000, Total beta = 32.00000, Total charge = -0.00000
