                              Psi4 1.0.54 Driver

  ==> Input File <==

--------------------------------------------------------------------------
set {
	reference rhf
	basis cc-pvtz
}

set_num_threads( 4 )
memory 2 gb

molecule MOL {
0 1

H	 -4.117271	 0.071068	 1.374278
O	 -3.401473	 -0.480687	 1.118554
C	 -2.245798	 0.289278	 0.918586
C	 -1.116326	 -0.633858	 0.508420
H	 -2.414457	 1.035064	 0.144551
H	 -1.978605	 0.818796	 1.830753
C	 0.196029	 0.106276	 0.266738
H	 -1.415377	 -1.164729	 -0.389892
H	 -0.985417	 -1.382291	 1.283423
C	 1.330220	 -0.826136	 -0.155230
H	 0.041260	 0.866975	 -0.492273
H	 0.487559	 0.632663	 1.173109
C	 2.719700	 -0.407669	 0.328325
H	 1.339388	 -0.911200	 -1.239363
H	 1.119001	 -1.821953	 0.224128
C	 3.241564	 0.893452	 -0.276737
H	 3.418299	 -1.204729	 0.093035
H	 2.711776	 -0.323368	 1.411960
H	 3.254204	 0.841071	 -1.360784
H	 2.634460	 1.745075	 0.005842
H	 4.254264	 1.092401	 0.054971

	symmetry c1
}
set optking {
	frozen_dihedral = ("
		4 7 10 14
	")
}

ee,wfn = optimize('scf', return_wfn=True)
oeprop( wfn, 'DIPOLE', 'QUADRUPOLE', 'MULLIKEN_CHARGES')
f=open( 'psi4out.xyz', 'w' )
f.write( "21  " )
f.write( str(ee) + "\n" )
f.write( MOL.save_string_xyz() )
f.close()
--------------------------------------------------------------------------

    Molecular point group: c1
  Charge       = 0
  Multiplicity = 1
  Basis Set: CC-PVTZ
  Basis Set:
  @DF-RHF Final Energy:  -310.33039718178514
    Total Energy =                       -310.3303971817853153
    Molecular point group: c1
  Basis Set: CC-PVTZ
  Basis Set:
  Basis Set: CC-PVTZ
  Basis Set:
  @DF-RHF Final Energy:  -310.33061327762357
    Total Energy =                       -310.3306132776234563
  Basis Set: CC-PVTZ
  Basis Set:
  Basis Set: CC-PVTZ
  Basis Set:
  @DF-RHF Final Energy:  -310.33073350226340
    Total Energy =                       -310.3307335022633993
  Basis Set: CC-PVTZ
  Basis Set:
  Basis Set: CC-PVTZ
  Basis Set:
  @DF-RHF Final Energy:  -310.33074011356354
    Total Energy =                       -310.3307401135636496
  Basis Set: CC-PVTZ
  Basis Set:
  Charge       = 0
  Multiplicity = 1
  Basis Set: CC-PVTZ
  Basis Set:

    Orbital Energies (a.u.)
    -----------------------

    Doubly Occupied:

       1A    -20.545462     2A    -11.264933     3A    -11.213459
       4A    -11.212806     5A    -11.211171     6A    -11.209296
       7A    -11.206063     8A     -1.363295     9A     -1.086874
      10A     -1.034530    11A     -0.954149    12A     -0.876630
      13A     -0.809013    14A     -0.778368    15A     -0.696109
      16A     -0.661512    17A     -0.627112    18A     -0.604394
      19A     -0.586059    20A     -0.575012    21A     -0.536694
      22A     -0.522222    23A     -0.510244    24A     -0.488253
      25A     -0.481187    26A     -0.458659    27A     -0.455443
      28A     -0.443763    29A     -0.437582

  @DF-RHF Final Energy:  -310.33074150922295

   => Energetics <=

    Nuclear Repulsion Energy =            313.1028197858477711
    One-Electron Energy =               -1041.1665378289571890
    Two-Electron Energy =                 417.7329765338863581
    DFT Exchange-Correlation Energy =       0.0000000000000000
    Empirical Dispersion Energy =           0.0000000000000000
    PCM Polarization Energy =               0.0000000000000000
    EFP Energy =                            0.0000000000000000
    Total Energy =                       -310.3307415092231167
    Molecular point group: c1
  Basis Set: CC-PVTZ
  Basis Set:

  -Total Gradient:
     Atom            X                  Y                   Z
    ------   -----------------  -----------------  -----------------
       1        0.000005040867     0.000002566521     0.000004213101
       2       -0.000006543406    -0.000011159284    -0.000007843246
       3       -0.000009175804     0.000006596502     0.000003196610
       4        0.000683814883    -0.000390809418     0.002812550983
       5        0.000003499830    -0.000000445067    -0.000002542948
       6        0.000001853786     0.000002416846     0.000000551321
       7       -0.000390276960     0.001348094763    -0.003918621041
       8        0.000017434794     0.000014102813    -0.000005384681
       9        0.000004085078    -0.000018461081     0.000005232249
      10       -0.002813748099    -0.003967103796     0.001304202206
      11       -0.000007924353     0.000031194963     0.000019868938
      12       -0.000061934520     0.000001361537    -0.000001207031
      13       -0.000036159182     0.000011531448    -0.000019967497
      14        0.002555259695     0.003025287530    -0.000164495375
      15        0.000041016922    -0.000025567525    -0.000007873128
      16        0.000008317781    -0.000030978372    -0.000021324389
      17        0.000018320603     0.000012084110    -0.000009346024
      18       -0.000022880272    -0.000019347076     0.000016761984
      19       -0.000003223235     0.000013754291    -0.000014696132
      20       -0.000004516937    -0.000007783870     0.000006769726
      21        0.000017738530     0.000002664167    -0.000000045624

  **** Optimization is complete! (in 5 steps) ****
    Final optimized geometry and variables:
    Molecular point group: c1

    Geometry (in Angstrom), charge = 0, multiplicity = 1:

    H           -4.151779844592     0.293804431579     0.926413342970
    O           -3.442849530559    -0.276233877306     0.692779695125
    C           -2.271913164965     0.468623297927     0.486677972785
    C           -1.153791043812    -0.483330134297     0.113807565932
    H           -2.418764154548     1.196902639377    -0.308136592658
    H           -2.005882298116     1.017081760378     1.388073925713
    C            0.179288773752     0.224839286037    -0.111237080211
    H           -1.447684882829    -1.025910004731    -0.779754477197
    H           -1.048704089584    -1.219301359033     0.904114208141
    C            1.301327195065    -0.732673589883    -0.538820388928
    H            0.060350808025     1.012521437163    -0.848464272363
    H            0.464915083760     0.718709710639     0.814665969393
    C            2.697180629130    -0.308050072822    -0.077570530001
    H            1.318302912627    -0.806442224474    -1.622931367271
    H            1.096260467906    -1.726075966176    -0.154468626173
    C            3.174733798658     1.014787006262    -0.670859970600
    H            3.403941457314    -1.087753026583    -0.345151265485
    H            2.711745627087    -0.243534181308     1.007313525871
    H            3.185282013263     0.972980013106    -1.755448228657
    H            2.535949416518     1.840441540541    -0.379239531640
    H            4.180541258368     1.247419566161    -0.340224874741

  Mulliken Charges: (a.u.)
   Center  Symbol    Alpha    Beta     Spin     Total
       1     H     0.39753  0.39753  0.00000  0.20493
       2     O     4.19422  4.19422  0.00000 -0.38845
       3     C     2.96383  2.96383  0.00000  0.07233
       4     C     3.08408  3.08408  0.00000 -0.16817
       5     H     0.47475  0.47475  0.00000  0.05050
       6     H     0.47523  0.47523  0.00000  0.04953
       7     C     3.10734  3.10734  0.00000 -0.21467
       8     H     0.45054  0.45054  0.00000  0.09893
       9     H     0.45098  0.45098  0.00000  0.09804
      10     C     3.09437  3.09437  0.00000 -0.18873
      11     H     0.45094  0.45094  0.00000  0.09811
      12     H     0.45500  0.45500  0.00000  0.09000
      13     C     3.08961  3.08961  0.00000 -0.17922
      14     H     0.45275  0.45275  0.00000  0.09450
      15     H     0.44763  0.44763  0.00000  0.10475
      16     C     3.15087  3.15087  0.00000 -0.30175
      17     H     0.44922  0.44922  0.00000  0.10155
      18     H     0.45548  0.45548  0.00000  0.08904
      19     H     0.45508  0.45508  0.00000  0.08985
      20     H     0.45370  0.45370  0.00000  0.09261
      21     H     0.44684  0.44684  0.00000  0.10632

   Total alpha = 29.00000, Total beta = 29.00000, Total charge =  0.00000

*** Psi4 exiting successfully. Buy a developer a beer!
