  ==> Input File <==

--------------------------------------------------------------------------
set {
	reference rhf
	basis 6-31G*
}

set_num_threads( 4 )
memory 2 gb

molecule MOL {
0 1

H	 -2.646374	 -0.642757	 1.268656
C	 -2.083525	 -0.384536	 0.393091
O	 -0.807605	 -0.127164	 0.768327
F	 -2.118945	 -1.383102	 -0.486752
F	 -2.621877	 0.670592	 -0.209486
C	 -0.236951	 -0.950939	 1.721446
C	 0.440082	 -0.046477	 2.743078
Cl	 0.940469	 -2.049142	 0.983309
H	 -0.967700	 -1.552170	 2.233599
F	 0.997855	 -0.764725	 3.694471
F	 -0.472894	 0.726892	 3.296081
F	 1.355883	 0.716667	 2.198197

	symmetry c1
}
set optking {
	frozen_dihedral = ("
		6 3 2 4
	")
}

ee = optimize('scf')
oeprop('DIPOLE', 'QUADRUPOLE', 'MULLIKEN_CHARGES')
f=open( 'psi4out.xyz', 'w' )
f.write( "12  " )
f.write( str(ee) + "\n" )
f.write( MOL.save_string_xyz() )
f.close()
--------------------------------------------------------------------------

    Molecular point group: c1
  Charge       = 0
  Multiplicity = 1
  Basis Set: 6-31G*
  Basis Set:
  @DF-RHF Final Energy: -1146.30686162411303
    Total Energy =                      -1146.3068616241125710
    Molecular point group: c1
  Basis Set: 6-31G*
  Basis Set:
  Basis Set: 6-31G*
  Basis Set:
  @DF-RHF Final Energy: -1146.30854513528448
    Total Energy =                      -1146.3085451352847031
  Basis Set: 6-31G*
  Basis Set:
  Basis Set: 6-31G*
  Basis Set:
  @DF-RHF Final Energy: -1146.30902913405680
    Total Energy =                      -1146.3090291340572549
  Basis Set: 6-31G*
  Basis Set:
  Basis Set: 6-31G*
  Basis Set:
  @DF-RHF Final Energy: -1146.30908557686644
    Total Energy =                      -1146.3090855768666643
  Basis Set: 6-31G*
  Basis Set:
  @DF-RHF Final Energy: -1146.30912725968551
    Total Energy =                      -1146.3091272596848285
  Basis Set: 6-31G*
  Basis Set:
  @DF-RHF Final Energy: -1146.30917112238058
    Total Energy =                      -1146.3091711223801212
  Basis Set: 6-31G*
  Basis Set:
  Basis Set: 6-31G*
  Basis Set:
  @DF-RHF Final Energy: -1146.30919141556183
    Total Energy =                      -1146.3091914155615996
  Basis Set: 6-31G*
  Basis Set:
  Basis Set: 6-31G*
  Basis Set:
  @DF-RHF Final Energy: -1146.30920589457492
    Total Energy =                      -1146.3092058945749159
  Basis Set: 6-31G*
  Basis Set:
  Charge       = 0
  Multiplicity = 1
  Basis Set: 6-31G*
  Basis Set:

    Orbital Energies (a.u.)
    -----------------------

    Doubly Occupied:

       1A   -104.847014     2A    -26.364525     3A    -26.363444
       4A    -26.361566     5A    -26.344668     6A    -26.340959
       7A    -20.651289     8A    -11.532592     9A    -11.491486
      10A    -11.408710    11A    -10.581814    12A     -8.051160
      13A     -8.047604    14A     -8.047528    15A     -1.765681
      16A     -1.716178    17A     -1.662096    18A     -1.660806
      19A     -1.637871    20A     -1.490069    21A     -1.181421
      22A     -1.055179    23A     -0.985204    24A     -0.932293
      25A     -0.860035    26A     -0.857207    27A     -0.848243
      28A     -0.827221    29A     -0.811011    30A     -0.791393
      31A     -0.732447    32A     -0.728542    33A     -0.703185
      34A     -0.692459    35A     -0.682954    36A     -0.678034
      37A     -0.662291    38A     -0.658043    39A     -0.650517
      40A     -0.637384    41A     -0.615840    42A     -0.566618
      43A     -0.522151    44A     -0.480292    45A     -0.473134

  @DF-RHF Final Energy: -1146.30920689915047

   => Energetics <=

    Nuclear Repulsion Energy =            727.6364478307692707
    One-Electron Energy =               -3037.8909972606816154
    Two-Electron Energy =                1163.9453425307617636
    DFT Exchange-Correlation Energy =       0.0000000000000000
    Empirical Dispersion Energy =           0.0000000000000000
    PCM Polarization Energy =               0.0000000000000000
    EFP Energy =                            0.0000000000000000
    Total Energy =                      -1146.3092068991506949
    Molecular point group: c1
  Basis Set: 6-31G*
  Basis Set:

  -Total Gradient:
     Atom            X                  Y                   Z
    ------   -----------------  -----------------  -----------------
       1       -0.000014467229     0.000009506943    -0.000020319449
       2       -0.000243582410    -0.000653790448     0.000929355229
       3        0.000593640510    -0.000338116320    -0.000986750395
       4        0.000054032114     0.000543681601    -0.000472677844
       5        0.000006566188     0.000039569364     0.000029167590
       6       -0.000427216092     0.000497733062     0.000587272586
       7        0.000046481603    -0.000010329016     0.000074866801
       8        0.000057601224    -0.000056763535    -0.000038297915
       9        0.000021406921     0.000003664475     0.000002694939
      10        0.000009091932    -0.000036419069    -0.000050289075
      11       -0.000085524109     0.000046591099    -0.000014778204
      12       -0.000018030699    -0.000045328170    -0.000040244259

  **** Optimization is complete! (in 9 steps) ****
    Final optimized geometry and variables:
    Molecular point group: c1

    Geometry (in Angstrom), charge = 0, multiplicity = 1:

    H           -2.429301223716    -0.323272974153    -0.343970968573
    C           -1.773136530898     0.074635658230    -1.102338336661
    O           -0.554612082056     0.423718867318    -0.606207344161
    F           -1.642003015040    -0.824884270138    -2.068300591437
    F           -2.297910268565     1.163207977883    -1.623774590033
    C            0.043385447646    -0.415568580796     0.300052138708
    C            0.810475761362     0.467769768511     1.277438873185
    CL           1.133383782686    -1.578219036656    -0.480191419287
    H           -0.676853265767    -0.986755805456     0.866732091721
    F            1.394794361116    -0.268621568416     2.198105228748
    F           -0.045666859669     1.269592349550     1.880580535699
    F            1.717007427047     1.198255586482     0.679757659896

  Mulliken Charges: (a.u.)
   Center  Symbol    Alpha    Beta     Spin     Total
       1     H     0.42219  0.42219  0.00000  0.15562
       2     C     2.56794  2.56794  0.00000  0.86412
       3     O     4.29490  4.29490  0.00000 -0.58980
       4     F     4.67754  4.67754  0.00000 -0.35508
       5     F     4.67078  4.67078  0.00000 -0.34156
       6     C     3.04034  3.04034  0.00000 -0.08067
       7     C     2.43036  2.43036  0.00000  1.13928
       8    CL     8.49877  8.49877  0.00000  0.00246
       9     H     0.37993  0.37993  0.00000  0.24013
      10     F     4.67399  4.67399  0.00000 -0.34797
      11     F     4.67718  4.67718  0.00000 -0.35436
      12     F     4.66609  4.66609  0.00000 -0.33218

   Total alpha = 45.00000, Total beta = 45.00000, Total charge = -0.00000
