  ==> Input File <==

--------------------------------------------------------------------------
set {
	reference rhf
	basis 6-31G*
}

set_num_threads( 4 )
memory 2 gb

molecule MOL {
0 1

H	 3.893188	 0.355400	 -0.101367
N	 3.092854	 -0.246221	 -0.068770
C	 1.865559	 0.531981	 0.018834
H	 3.199514	 -0.826043	 0.741946
C	 0.645745	 -0.382037	 -0.029944
H	 1.841966	 1.207024	 -0.831236
H	 1.815756	 1.155410	 0.915079
C	 -0.679275	 0.379305	 0.025956
H	 0.698998	 -0.976915	 -0.937203
H	 0.693479	 -1.083846	 0.802235
C	 -0.503064	 1.877951	 0.277722
H	 -1.305344	 -0.043266	 0.810380
H	 -1.222054	 0.235273	 -0.907046
C	 -1.829825	 2.634072	 0.336871
H	 0.037838	 2.024331	 1.210038
H	 0.120030	 2.303505	 -0.506059
H	 -2.462461	 2.253975	 1.134125
H	 -1.671890	 3.692961	 0.516911
H	 -2.379435	 2.535519	 -0.595120

	symmetry c1
}
set optking {
	frozen_dihedral = ("
		12 8 5 9
	")
}

ee = optimize('scf')
oeprop('DIPOLE', 'QUADRUPOLE', 'MULLIKEN_CHARGES')
f=open( 'psi4out.xyz', 'w' )
f.write( "19  " )
f.write( str(ee) + "\n" )
f.write( MOL.save_string_xyz() )
f.close()
--------------------------------------------------------------------------

    Molecular point group: c1
  Charge       = 0
  Multiplicity = 1
  Basis Set: 6-31G*
  Basis Set:
  @DF-RHF Final Energy:  -251.33715907505592
    Total Energy =                       -251.3371590750558084
    Molecular point group: c1
  Basis Set: 6-31G*
  Basis Set:
  Basis Set: 6-31G*
  Basis Set:
  @DF-RHF Final Energy:  -251.33710680962946
    Total Energy =                       -251.3371068096294039
  Basis Set: 6-31G*
  Basis Set:
  Basis Set: 6-31G*
  Basis Set:
  @DF-RHF Final Energy:  -251.34121514173810
    Total Energy =                       -251.3412151417379619
  Basis Set: 6-31G*
  Basis Set:
  Basis Set: 6-31G*
  Basis Set:
  @DF-RHF Final Energy:  -251.34183720367272
    Total Energy =                       -251.3418372036727533
  Basis Set: 6-31G*
  Basis Set:
  @DF-RHF Final Energy:  -251.34185237778885
    Total Energy =                       -251.3418523777891096
  Basis Set: 6-31G*
  Basis Set:
  @DF-RHF Final Energy:  -251.34185646607412
    Total Energy =                       -251.3418564660740344
  Basis Set: 6-31G*
  Basis Set:
  Basis Set: 6-31G*
  Basis Set:
  @DF-RHF Final Energy:  -251.34193226312527
    Total Energy =                       -251.3419322631251589
  Basis Set: 6-31G*
  Basis Set:
  Basis Set: 6-31G*
  Basis Set:
  @DF-RHF Final Energy:  -251.34193677366781
    Total Energy =                       -251.3419367736677827
  Basis Set: 6-31G*
  Basis Set:
  Charge       = 0
  Multiplicity = 1
  Basis Set: 6-31G*
  Basis Set:

    Orbital Energies (a.u.)
    -----------------------

    Doubly Occupied:

       1A    -15.532070     2A    -11.239118     3A    -11.214997
       4A    -11.213386     5A    -11.209972     6A    -11.208190
       7A     -1.176246     8A     -1.069464     9A     -0.994034
      10A     -0.899385    11A     -0.835788    12A     -0.767722
      13A     -0.661617    14A     -0.641135    15A     -0.620235
      16A     -0.584054    17A     -0.572461    18A     -0.546834
      19A     -0.524794    20A     -0.503114    21A     -0.492121
      22A     -0.460047    23A     -0.451081    24A     -0.446260
      25A     -0.380219

  @DF-RHF Final Energy:  -251.34193700856937

   => Energetics <=

    Nuclear Repulsion Energy =            249.3412940478233679
    One-Electron Energy =                -832.8777760669993313
    Two-Electron Energy =                 332.1945450106065891
    DFT Exchange-Correlation Energy =       0.0000000000000000
    Empirical Dispersion Energy =           0.0000000000000000
    PCM Polarization Energy =               0.0000000000000000
    EFP Energy =                            0.0000000000000000
    Total Energy =                       -251.3419370085694027
    Molecular point group: c1
  Basis Set: 6-31G*
  Basis Set:

  -Total Gradient:
     Atom            X                  Y                   Z
    ------   -----------------  -----------------  -----------------
       1       -0.000002829188     0.000003522895     0.000012536195
       2       -0.000000232311    -0.000006449429     0.000051583596
       3       -0.000016171450     0.000029315219    -0.000132534359
       4        0.000014138394    -0.000015205023     0.000003640549
       5       -0.000923789689    -0.001696597404     0.001592898439
       6        0.000012610978     0.000000407892    -0.000003233825
       7       -0.000017044403     0.000003598558     0.000005178041
       8       -0.000824233501    -0.001257681853    -0.001905979673
       9        0.000901189420     0.001659881088    -0.001034380663
      10       -0.000018785476    -0.000025301822    -0.000001489523
      11        0.000016956209    -0.000019493728     0.000117090045
      12        0.000836600076     0.001345785401     0.001373010263
      13        0.000011095240    -0.000017283109    -0.000008822818
      14       -0.000002395667    -0.000005894731    -0.000030423171
      15        0.000010348204     0.000009539639    -0.000003520320
      16       -0.000000013373    -0.000007641693    -0.000020522513
      17        0.000011137088     0.000003722257     0.000000581135
      18        0.000006489546    -0.000001495495    -0.000012974428
      19       -0.000015070098    -0.000002728662    -0.000002636969

  **** Optimization is complete! (in 9 steps) ****
    Final optimized geometry and variables:
    Molecular point group: c1

    Geometry (in Angstrom), charge = 0, multiplicity = 1:

    H            3.510423038047    -0.672416502948    -0.248692449073
    N            2.657185678513    -1.196028479686    -0.209685870581
    C            1.511799832549    -0.303949375356    -0.086103928836
    H            2.722934259025    -1.796403299857     0.590532426338
    C            0.222873272965    -1.127039081035    -0.110136354598
    H            1.535492209415     0.372714419662    -0.933488947104
    H            1.552191406208     0.312625988810     0.812375823655
    C           -1.117619820197    -0.344872146097    -0.052041926699
    H            0.258789383056    -1.719292518045    -1.017750655516
    H            0.263021549195    -1.833520303603     0.715794488106
    C           -1.042980197533     1.167575668523     0.196895123263
    H           -1.734946539758    -0.768372203327     0.735833087248
    H           -1.661328584906    -0.505654483650    -0.978822857495
    C           -2.430647237446     1.808872178226     0.218878437604
    H           -0.546736406372     1.366632472851     1.142957139844
    H           -0.444952938787     1.647756795262    -0.572528627549
    H           -3.049107546581     1.380179982936     1.002502950783
    H           -2.366477489059     2.878099087958     0.396140612300
    H           -2.946431862447     1.660502554364    -0.725694878562

  Mulliken Charges: (a.u.)
   Center  Symbol    Alpha    Beta     Spin     Total
       1     H     0.33245  0.33245  0.00000  0.33510
       2     N     3.92261  3.92261  0.00000 -0.84522
       3     C     3.06368  3.06368  0.00000 -0.12737
       4     H     0.33563  0.33563  0.00000  0.32875
       5     C     3.15640  3.15640  0.00000 -0.31279
       6     H     0.42006  0.42006  0.00000  0.15988
       7     H     0.43254  0.43254  0.00000  0.13493
       8     C     3.15690  3.15690  0.00000 -0.31380
       9     H     0.40968  0.40968  0.00000  0.18064
      10     H     0.42575  0.42575  0.00000  0.14849
      11     C     3.15635  3.15635  0.00000 -0.31269
      12     H     0.42163  0.42163  0.00000  0.15675
      13     H     0.42011  0.42011  0.00000  0.15977
      14     C     3.23900  3.23900  0.00000 -0.47800
      15     H     0.42249  0.42249  0.00000  0.15502
      16     H     0.42178  0.42178  0.00000  0.15644
      17     H     0.42198  0.42198  0.00000  0.15604
      18     H     0.41947  0.41947  0.00000  0.16106
      19     H     0.42151  0.42151  0.00000  0.15699

   Total alpha = 25.00000, Total beta = 25.00000, Total charge = -0.00000
