                              Psi4 1.0.54 Driver

  ==> Input File <==

--------------------------------------------------------------------------
set {
	reference rhf
	basis cc-pvtz
}

set_num_threads( 4 )
memory 2 gb

molecule MOL {
0 1

H	 2.453876	 -0.658816	 -0.000766
C	 1.738023	 0.145787	 -0.000181
O	 0.462225	 -0.453381	 -0.000137
H	 1.883912	 0.752229	 -0.885146
H	 1.884386	 0.751370	 0.885305
C	 -0.590669	 0.341337	 0.000062
O	 -1.694002	 -0.053925	 0.000252
H	 -0.340530	 1.403777	 0.000200

	symmetry c1
}
ee,wfn = energy('scf', return_wfn=True)
oeprop( wfn, 'DIPOLE', 'QUADRUPOLE', 'MULLIKEN_CHARGES')
oeprop( wfn, 'GRID_ESP')
f=open( 'psi4out.xyz', 'w' )
f.write( "8  " )
f.write( str(ee) + "\n" )
f.write( MOL.save_string_xyz() )
f.close()
--------------------------------------------------------------------------

    Molecular point group: c1

    Geometry (in Angstrom), charge = 0, multiplicity = 1:

       Center              X                  Y                   Z               Mass
    ------------   -----------------  -----------------  -----------------  -----------------
           H          2.453980161526    -0.658771463986    -0.000766020499     1.007825032070
           C          1.738127161526     0.145831536014    -0.000181020499    12.000000000000
           O          0.462329161526    -0.453336463986    -0.000137020499    15.994914619560
           H          1.884016161526     0.752273536014    -0.885146020499     1.007825032070
           H          1.884490161526     0.751414536014     0.885304979501     1.007825032070
           C         -0.590564838474     0.341381536014     0.000061979501    12.000000000000
           O         -1.693897838474    -0.053880463986     0.000251979501    15.994914619560
           H         -0.340425838474     1.403821536014     0.000199979501     1.007825032070

  Charge       = 0
  Multiplicity = 1
  Basis Set: CC-PVTZ
  Basis Set:

    Orbital Energies (a.u.)
    -----------------------

    Doubly Occupied:

       1A    -20.610226     2A    -20.546859     3A    -11.374349
       4A    -11.302180     5A     -1.480200     6A     -1.386115
       7A     -0.994181     8A     -0.849703     9A     -0.740567
      10A     -0.689646    11A     -0.685324    12A     -0.607374
      13A     -0.574016    14A     -0.543719    15A     -0.465360
      16A     -0.457468

  @DF-RHF Final Energy:  -227.87012680765997

   => Energetics <=

    Nuclear Repulsion Energy =            121.5117063981074352
    One-Electron Energy =                -552.1489354314226148
    Two-Electron Energy =                 202.7671022256551794
    DFT Exchange-Correlation Energy =       0.0000000000000000
    Empirical Dispersion Energy =           0.0000000000000000
    PCM Polarization Energy =               0.0000000000000000
    EFP Energy =                            0.0000000000000000
    Total Energy =                       -227.8701268076600002

  Mulliken Charges: (a.u.)
   Center  Symbol    Alpha    Beta     Spin     Total
       1     H     0.43869  0.43869  0.00000  0.12262
       2     C     3.03398  3.03398  0.00000 -0.06796
       3     O     4.12080  4.12080  0.00000 -0.24159
       4     H     0.45909  0.45909  0.00000  0.08182
       5     H     0.45908  0.45908  0.00000  0.08183
       6     C     2.83603  2.83603  0.00000  0.32795
       7     O     4.17474  4.17474  0.00000 -0.34947
       8     H     0.47760  0.47760  0.00000  0.04481

   Total alpha = 16.00000, Total beta = 16.00000, Total charge = -0.00000

*** Psi4 exiting successfully. Buy a developer a beer!
