  ==> Input File <==

--------------------------------------------------------------------------
set {
	reference rhf
	basis 6-31G*
}

set_num_threads( 4 )
memory 2 gb

molecule MOL {
0 1

H	 -0.216825	 0.021369	 -3.357402
C	 0.374198	 0.036393	 -2.447010
C	 -0.521757	 -0.028637	 -1.217342
H	 0.969602	 0.942322	 -2.434777
H	 1.053364	 -0.811668	 -2.481329
N	 0.263400	 0.031178	 0.000000
H	 -1.199035	 0.820290	 -1.219355
H	 -1.147901	 -0.924895	 -1.265384
C	 -0.521757	 -0.028637	 1.217342
H	 0.935769	 -0.712709	 0.000000
C	 0.373595	 0.044258	 2.447008
H	 -1.202982	 0.817128	 1.216654
H	 -1.143732	 -0.927654	 1.267938
H	 0.964776	 0.952910	 2.432185
H	 -0.217566	 0.029216	 3.357310
H	 1.056695	 -0.800523	 2.484025

	symmetry c1
}
set optking {
	frozen_dihedral = ("
		12 9 6 3
	")
}

ee = optimize('scf')
oeprop('DIPOLE', 'QUADRUPOLE', 'MULLIKEN_CHARGES')
f=open( 'psi4out.xyz', 'w' )
f.write( "16  " )
f.write( str(ee) + "\n" )
f.write( MOL.save_string_xyz() )
f.close()
--------------------------------------------------------------------------

    Molecular point group: c1
  Charge       = 0
  Multiplicity = 1
  Basis Set: 6-31G*
  Basis Set:

    Orbital Energies (a.u.)
    -----------------------

    Doubly Occupied:

       1A    -15.534239     2A    -11.240570     3A    -11.240551
       4A    -11.208253     5A    -11.208188     6A     -1.205627
       7A     -1.028128     8A     -0.962760     9A     -0.831957
      10A     -0.821531    11A     -0.661922    12A     -0.628202
      13A     -0.598803    14A     -0.588080    15A     -0.553725
      16A     -0.521077    17A     -0.508330    18A     -0.488789
      19A     -0.482009    20A     -0.473975    21A     -0.359839

  @DF-RHF Final Energy:  -212.31397255484634

   => Energetics <=

    Nuclear Repulsion Energy =            189.1837206303356709
    One-Electron Energy =                -660.7022771862357331
    Two-Electron Energy =                 259.2045840010536040
    DFT Exchange-Correlation Energy =       0.0000000000000000
    Empirical Dispersion Energy =           0.0000000000000000
    PCM Polarization Energy =               0.0000000000000000
    EFP Energy =                            0.0000000000000000
    Total Energy =                       -212.3139725548464867
    Molecular point group: c1
  Basis Set: 6-31G*
  Basis Set:

  -Total Gradient:
     Atom            X                  Y                   Z
    ------   -----------------  -----------------  -----------------
       1       -0.000002574659    -0.000018039210    -0.000000463135
       2       -0.000030986765     0.000022433787    -0.000039057760
       3        0.000112982717     0.000016174171     0.000070701790
       4        0.000017895637     0.000014263498     0.000011708730
       5       -0.000021497278     0.000008806410     0.000021165958
       6       -0.000035023986    -0.000068940203     0.000009109883
       7       -0.000006774407     0.000010452165    -0.000019742511
       8       -0.000024537055    -0.000012862225    -0.000010713630
       9        0.000095453757    -0.000006625014    -0.000078414562
      10       -0.000039484376     0.000014131773    -0.000010829228
      11       -0.000036531928     0.000033771919     0.000032022475
      12       -0.000021657327     0.000004768278     0.000019211398
      13       -0.000005878065    -0.000031595959     0.000026715397
      14        0.000021146382     0.000020866811    -0.000006098121
      15        0.000002095307    -0.000011426164    -0.000007262091
      16       -0.000024627954     0.000003819962    -0.000018054591

  **** Optimization is complete! (in 1 steps) ****
    Final optimized geometry and variables:
    Molecular point group: c1

    Geometry (in Angstrom), charge = 0, multiplicity = 1:

    H           -0.216698659485     0.019751138816    -3.357399810121
    C            0.374324340515     0.034775138816    -2.447007810121
    C           -0.521630659485    -0.030254861184    -1.217339810121
    H            0.969728340515     0.940704138816    -2.434774810121
    H            1.053490340515    -0.813285861184    -2.481326810121
    N            0.263526340515     0.029560138816     0.000002189879
    H           -1.198908659485     0.818672138816    -1.219352810121
    H           -1.147774659485    -0.926512861184    -1.265381810121
    C           -0.521630659485    -0.030254861184     1.217344189879
    H            0.935895340515    -0.714326861184     0.000002189879
    C            0.373721340515     0.042640138816     2.447010189879
    H           -1.202855659485     0.815510138816     1.216656189879
    H           -1.143605659485    -0.929271861184     1.267940189879
    H            0.964902340515     0.951292138816     2.432187189879
    H           -0.217439659485     0.027598138816     3.357312189879
    H            1.056821340515    -0.802140861184     2.484027189879

  Mulliken Charges: (a.u.)
   Center  Symbol    Alpha    Beta     Spin     Total
       1     H     0.42021  0.42021  0.00000  0.15957
       2     C     3.24210  3.24210  0.00000 -0.48421
       3     C     3.05260  3.05260  0.00000 -0.10519
       4     H     0.41197  0.41197  0.00000  0.17606
       5     H     0.42487  0.42487  0.00000  0.15026
       6     N     3.84925  3.84925  0.00000 -0.69850
       7     H     0.42043  0.42043  0.00000  0.15914
       8     H     0.43529  0.43529  0.00000  0.12943
       9     C     3.05269  3.05269  0.00000 -0.10539
      10     H     0.33578  0.33578  0.00000  0.32844
      11     C     3.24197  3.24197  0.00000 -0.48394
      12     H     0.42045  0.42045  0.00000  0.15911
      13     H     0.43526  0.43526  0.00000  0.12947
      14     H     0.41198  0.41198  0.00000  0.17604
      15     H     0.42027  0.42027  0.00000  0.15947
      16     H     0.42488  0.42488  0.00000  0.15025

   Total alpha = 21.00000, Total beta = 21.00000, Total charge = -0.00000
