  ==> Input File <==

--------------------------------------------------------------------------
set {
	reference rhf
	basis 6-31G*
}

set_num_threads( 4 )
memory 2 gb

molecule MOL {
0 1

H	 3.893188	 0.355400	 -0.101367
N	 3.092854	 -0.246221	 -0.068770
C	 1.865559	 0.531981	 0.018834
H	 3.199514	 -0.826043	 0.741946
C	 0.645745	 -0.382037	 -0.029944
H	 1.841966	 1.207024	 -0.831236
H	 1.815756	 1.155410	 0.915079
C	 -0.679275	 0.379305	 0.025956
H	 0.698998	 -0.976915	 -0.937203
H	 0.693479	 -1.083846	 0.802235
C	 -1.374018	 0.480448	 -1.333263
H	 -0.503153	 1.382071	 0.412337
H	 -1.349031	 -0.106216	 0.734153
C	 -2.695613	 1.245511	 -1.273457
H	 -0.707244	 0.966394	 -2.042124
H	 -1.553676	 -0.520187	 -1.720701
H	 -2.544454	 2.262217	 -0.921636
H	 -3.163328	 1.300574	 -2.251625
H	 -3.397377	 0.764133	 -0.598036

	symmetry c1
}
set optking {
	frozen_dihedral = ("
		12 8 5 9
	")
}

ee = optimize('scf')
oeprop('DIPOLE', 'QUADRUPOLE', 'MULLIKEN_CHARGES')
f=open( 'psi4out.xyz', 'w' )
f.write( "19  " )
f.write( str(ee) + "\n" )
f.write( MOL.save_string_xyz() )
f.close()
--------------------------------------------------------------------------

    Molecular point group: c1
  Charge       = 0
  Multiplicity = 1
  Basis Set: 6-31G*
  Basis Set:
  @DF-RHF Final Energy:  -251.34721102299326
    Total Energy =                       -251.3472110229934060
    Molecular point group: c1
  Basis Set: 6-31G*
  Basis Set:
  Basis Set: 6-31G*
  Basis Set:
  @DF-RHF Final Energy:  -251.34747096753787
    Total Energy =                       -251.3474709675377881
  Basis Set: 6-31G*
  Basis Set:
  Basis Set: 6-31G*
  Basis Set:
  @DF-RHF Final Energy:  -251.34755563211391
    Total Energy =                       -251.3475556321137674
  Basis Set: 6-31G*
  Basis Set:
  Basis Set: 6-31G*
  Basis Set:
  @DF-RHF Final Energy:  -251.34755332663804
    Total Energy =                       -251.3475533266380353
  Basis Set: 6-31G*
  Basis Set:
  Basis Set: 6-31G*
  Basis Set:
  @DF-RHF Final Energy:  -251.34755831379374
    Total Energy =                       -251.3475583137936837
  Basis Set: 6-31G*
  Basis Set:
  Charge       = 0
  Multiplicity = 1
  Basis Set: 6-31G*
  Basis Set:

    Orbital Energies (a.u.)
    -----------------------

    Doubly Occupied:

       1A    -15.532504     2A    -11.240001     3A    -11.213447
       4A    -11.212545     5A    -11.209246     6A    -11.206997
       7A     -1.176809     8A     -1.071317     9A     -0.996380
      10A     -0.899204    11A     -0.819270    12A     -0.785024
      13A     -0.660211    14A     -0.634426    15A     -0.625030
      16A     -0.587319    17A     -0.569922    18A     -0.548403
      19A     -0.525365    20A     -0.498436    21A     -0.486019
      22A     -0.464983    23A     -0.453051    24A     -0.448544
      25A     -0.381195

  @DF-RHF Final Energy:  -251.34755840562664

   => Energetics <=

    Nuclear Repulsion Energy =            247.5624865272353361
    One-Electron Energy =                -829.3287950349060793
    Two-Electron Energy =                 330.4187501020442141
    DFT Exchange-Correlation Energy =       0.0000000000000000
    Empirical Dispersion Energy =           0.0000000000000000
    PCM Polarization Energy =               0.0000000000000000
    EFP Energy =                            0.0000000000000000
    Total Energy =                       -251.3475584056265006
    Molecular point group: c1
  Basis Set: 6-31G*
  Basis Set:

  -Total Gradient:
     Atom            X                  Y                   Z
    ------   -----------------  -----------------  -----------------
       1       -0.000007533317     0.000003804214     0.000000259460
       2       -0.000008565404    -0.000010168814     0.000008203840
       3        0.000001027365     0.000022974164    -0.000014329290
       4        0.000002819647    -0.000002095543     0.000001204053
       5       -0.001265295971    -0.002314268882     0.000974236889
       6       -0.000001337113     0.000003607977    -0.000001160196
       7        0.000002123308    -0.000007633243     0.000002118672
       8       -0.000225099547    -0.000572270357     0.002678558898
       9        0.001089388229     0.002029979905    -0.001240538311
      10       -0.000012428185    -0.000001676951     0.000003944204
      11        0.000009680350     0.000004514793    -0.000005671046
      12        0.000411888807     0.000855185710    -0.002416681518
      13        0.000006689107    -0.000011416691     0.000006477800
      14       -0.000001775720    -0.000003705976     0.000000890421
      15        0.000003090443    -0.000000397063     0.000000374246
      16       -0.000006648214     0.000003086796     0.000002416647
      17        0.000001748333     0.000001285328    -0.000003959710
      18       -0.000000738967    -0.000002764905     0.000000798366
      19        0.000000966848     0.000001959539     0.000002856574

  **** Optimization is complete! (in 6 steps) ****
    Final optimized geometry and variables:
    Molecular point group: c1

    Geometry (in Angstrom), charge = 0, multiplicity = 1:

    H            3.698944923861     0.063252197677     0.273182007880
    N            2.911110248271    -0.554110367708     0.314628913530
    C            1.673687225907     0.196103235675     0.466769559419
    H            3.056066559764    -1.156279482559     1.102911010905
    C            0.468565652243    -0.741770796813     0.443828248870
    H            1.604094579713     0.890686766379    -0.365390750437
    H            1.644518404543     0.797125238458     1.378932592114
    C           -0.876233695193     0.009995146898     0.484213055000
    H            0.541600148911    -1.337871750532    -0.460392958038
    H            0.544536036910    -1.430076480548     1.282437055487
    C           -1.543525870759     0.125495261048    -0.890056898824
    H           -0.720870551335     1.015949178251     0.870402043904
    H           -1.563290761777    -0.479353925301     1.169063406578
    C           -2.841138640467     0.931426975035    -0.858411636089
    H           -0.849581423670     0.585050798298    -1.591005372341
    H           -1.746242979005    -0.871840584066    -1.273535004860
    H           -2.664066303817     1.948004137569    -0.518163322203
    H           -3.294634722275     0.986989127326    -1.843279034446
    H           -3.565883722129     0.480935985224    -0.185784694978

  Mulliken Charges: (a.u.)
   Center  Symbol    Alpha    Beta     Spin     Total
       1     H     0.33246  0.33246  0.00000  0.33509
       2     N     3.92205  3.92205  0.00000 -0.84410
       3     C     3.06226  3.06226  0.00000 -0.12452
       4     H     0.33534  0.33534  0.00000  0.32932
       5     C     3.15550  3.15550  0.00000 -0.31100
       6     H     0.42104  0.42104  0.00000  0.15791
       7     H     0.43420  0.43420  0.00000  0.13161
       8     C     3.15831  3.15831  0.00000 -0.31661
       9     H     0.41039  0.41039  0.00000  0.17923
      10     H     0.42471  0.42471  0.00000  0.15058
      11     C     3.15241  3.15241  0.00000 -0.30482
      12     H     0.42341  0.42341  0.00000  0.15317
      13     H     0.42043  0.42043  0.00000  0.15914
      14     C     3.23982  3.23982  0.00000 -0.47964
      15     H     0.42240  0.42240  0.00000  0.15519
      16     H     0.42153  0.42153  0.00000  0.15695
      17     H     0.42238  0.42238  0.00000  0.15524
      18     H     0.41927  0.41927  0.00000  0.16145
      19     H     0.42209  0.42209  0.00000  0.15581

   Total alpha = 25.00000, Total beta = 25.00000, Total charge = -0.00000
