  ==> Input File <==

--------------------------------------------------------------------------
set {
	reference rhf
	basis 6-31G*
}

set_num_threads( 4 )
memory 2 gb

molecule MOL {
0 1

H	 -3.261111	 -0.295142	 1.469456
C	 -3.306842	 -0.277400	 0.373456
C	 -2.660244	 0.921717	 -0.272021
O	 -3.838538	 -1.161155	 -0.216482
C	 -1.220012	 1.144545	 0.209990
H	 -2.705793	 0.797307	 -1.347733
H	 -3.263782	 1.790044	 -0.010477
C	 -0.252658	 0.041456	 -0.226725
H	 -0.873521	 2.100229	 -0.171974
H	 -1.211708	 1.231594	 1.295398
C	 1.180775	 0.282413	 0.250794
H	 -0.266029	 -0.034465	 -1.312038
H	 -0.597733	 -0.921000	 0.146291
C	 2.148627	 -0.814315	 -0.201312
H	 1.516199	 1.249228	 -0.115937
H	 1.192670	 0.346017	 1.338083
C	 3.580890	 -0.659131	 0.322722
H	 2.166869	 -0.852443	 -1.289387
H	 1.762857	 -1.776509	 0.128956
C	 4.523260	 0.095142	 -0.616762
H	 3.989403	 -1.650377	 0.502991
H	 3.558660	 -0.160441	 1.289539
H	 4.552928	 -0.372275	 -1.597532
H	 4.221545	 1.128460	 -0.751655
H	 5.535372	 0.100986	 -0.223582

	symmetry c1
}
set optking {
	frozen_dihedral = ("
		20 17 14 18
	")
}

ee = optimize('scf')
oeprop('DIPOLE', 'QUADRUPOLE', 'MULLIKEN_CHARGES')
f=open( 'psi4out.xyz', 'w' )
f.write( "25  " )
f.write( str(ee) + "\n" )
f.write( MOL.save_string_xyz() )
f.close()
--------------------------------------------------------------------------

    Molecular point group: c1
  Charge       = 0
  Multiplicity = 1
  Basis Set: 6-31G*
  Basis Set:
  @DF-RHF Final Energy:  -387.11967621124131
    Total Energy =                       -387.1196762112408578
    Molecular point group: c1
  Basis Set: 6-31G*
  Basis Set:
  Basis Set: 6-31G*
  Basis Set:
  @DF-RHF Final Energy:  -387.12004478179750
    Total Energy =                       -387.1200447817973327
  Basis Set: 6-31G*
  Basis Set:
  Basis Set: 6-31G*
  Basis Set:
  @DF-RHF Final Energy:  -387.11659241469039
    Total Energy =                       -387.1165924146907855
  Basis Set: 6-31G*
  Basis Set:
  Basis Set: 6-31G*
  Basis Set:
  @DF-RHF Final Energy:  -387.12014295297922
    Total Energy =                       -387.1201429529794495
  Basis Set: 6-31G*
  Basis Set:
  @DF-RHF Final Energy:  -387.12024529926822
    Total Energy =                       -387.1202452992683902
  Basis Set: 6-31G*
  Basis Set:
  @DF-RHF Final Energy:  -387.12025064806687
    Total Energy =                       -387.1202506480668717
  Basis Set: 6-31G*
  Basis Set:
  Basis Set: 6-31G*
  Basis Set:
  @DF-RHF Final Energy:  -387.12027141953496
    Total Energy =                       -387.1202714195351291
  Basis Set: 6-31G*
  Basis Set:
  Basis Set: 6-31G*
  Basis Set:
  @DF-RHF Final Energy:  -387.12027512457826
    Total Energy =                       -387.1202751245780291
  Basis Set: 6-31G*
  Basis Set:
  Charge       = 0
  Multiplicity = 1
  Basis Set: 6-31G*
  Basis Set:

    Orbital Energies (a.u.)
    -----------------------

    Doubly Occupied:

       1A    -20.562022     2A    -11.326174     3A    -11.235373
       4A    -11.234675     5A    -11.223830     6A    -11.220204
       7A    -11.217698     8A    -11.216747     9A    -11.211062
      10A     -1.401959    11A     -1.103783    12A     -1.069271
      13A     -1.013827    14A     -0.942718    15A     -0.871434
      16A     -0.818257    17A     -0.789549    18A     -0.786151
      19A     -0.664294    20A     -0.662084    21A     -0.632603
      22A     -0.623748    23A     -0.604457    24A     -0.593153
      25A     -0.574305    26A     -0.550905    27A     -0.533159
      28A     -0.524229    29A     -0.508810    30A     -0.497073
      31A     -0.488119    32A     -0.481044    33A     -0.467101
      34A     -0.458484    35A     -0.439704    36A     -0.409555

  @DF-RHF Final Energy:  -387.12027568130827

   => Energetics <=

    Nuclear Repulsion Energy =            437.9926291320671226
    One-Electron Energy =               -1392.3106868405700425
    Two-Electron Energy =                 567.1977820271943074
    DFT Exchange-Correlation Energy =       0.0000000000000000
    Empirical Dispersion Energy =           0.0000000000000000
    PCM Polarization Energy =               0.0000000000000000
    EFP Energy =                            0.0000000000000000
    Total Energy =                       -387.1202756813086125
    Molecular point group: c1
  Basis Set: 6-31G*
  Basis Set:

  -Total Gradient:
     Atom            X                  Y                   Z
    ------   -----------------  -----------------  -----------------
       1        0.000007504416     0.000021945787    -0.000001517514
       2        0.000003188394    -0.000001012355     0.000002402280
       3       -0.000033963914    -0.000027803515     0.000038039840
       4       -0.000003340695     0.000001306761    -0.000021479469
       5        0.000023708221     0.000009098191    -0.000044017767
       6        0.000009737534    -0.000010079610     0.000008052737
       7        0.000002014514     0.000002285034     0.000002369473
       8       -0.000011819265     0.000011501914     0.000011984593
       9        0.000011420454     0.000018491739     0.000003914506
      10       -0.000004867282    -0.000025586157    -0.000021554378
      11       -0.000017914156    -0.000010800172     0.000037503939
      12       -0.000026852630     0.000015384489    -0.000002193875
      13        0.000012229614    -0.000006368960    -0.000000905436
      14        0.000866420335    -0.004879200503    -0.000181279349
      15       -0.000001403446    -0.000014763389    -0.000005835874
      16       -0.000000192132     0.000011506045     0.000008261132
      17       -0.001050400418     0.003671711792     0.001389256802
      18       -0.000480809960     0.003292411756    -0.000187392561
      19        0.000003836186     0.000006548931     0.000000513120
      20        0.000677259259    -0.002084758713    -0.001034360046
      21        0.000003590128    -0.000009014482     0.000012673590
      22       -0.000000059651     0.000005215905    -0.000017232698
      23       -0.000001652423    -0.000003307725     0.000010918322
      24        0.000007560900     0.000001123169    -0.000006287687
      25        0.000004806015     0.000004164070    -0.000001833680

  **** Optimization is complete! (in 9 steps) ****
    Final optimized geometry and variables:
    Molecular point group: c1

    Geometry (in Angstrom), charge = 0, multiplicity = 1:

    H           -3.328140027738    -0.248905884359     1.451970406574
    C           -3.337267173239    -0.196864475858     0.356058720223
    C           -2.647561079515     1.008622985371    -0.230256485399
    O           -3.870879496137    -1.048628398650    -0.277670056672
    C           -1.217769175877     1.184806073785     0.300036022762
    H           -2.663709776378     0.919966796101    -1.310387392297
    H           -3.240740537562     1.880647792872     0.042166724182
    C           -0.259090250643     0.078895908036    -0.148634140893
    H           -0.841780702366     2.146767560592    -0.036165312310
    H           -1.239554012295     1.231971685279     1.387503521326
    C            1.166037865843     0.278496501879     0.369362926549
    H           -0.248003677723     0.037916018398    -1.235834079601
    H           -0.629294691665    -0.888919413932     0.185077059996
    C            2.126712293729    -0.833029494010    -0.066531586347
    H            1.540708031766     1.240509591499     0.024017884977
    H            1.150288069719     0.330792639121     1.456626486510
    C            3.577189900988    -0.594481802209     0.388855288494
    H            2.097563393479    -0.899989416439    -1.152115080167
    H            1.764920648481    -1.782154495836     0.319300140354
    C            4.415903941295     0.179630210902    -0.629569015030
    H            4.059931162278    -1.551508309625     0.568561356155
    H            3.580872693389    -0.073214263907     1.343054827713
    H            4.496559743116    -0.372465722601    -1.561211781475
    H            3.978973319562     1.148088198836    -0.857178097042
    H            5.421498803023     0.353134534972    -0.258807077356

  Mulliken Charges: (a.u.)
   Center  Symbol    Alpha    Beta     Spin     Total
       1     H     0.43261  0.43261  0.00000  0.13477
       2     C     2.83081  2.83081  0.00000  0.33838
       3     C     3.20815  3.20815  0.00000 -0.41631
       4     O     4.23776  4.23776  0.00000 -0.47552
       5     C     3.16654  3.16654  0.00000 -0.33308
       6     H     0.39972  0.39972  0.00000  0.20056
       7     H     0.40662  0.40662  0.00000  0.18677
       8     C     3.15512  3.15512  0.00000 -0.31023
       9     H     0.41287  0.41287  0.00000  0.17425
      10     H     0.41960  0.41960  0.00000  0.16081
      11     C     3.15391  3.15391  0.00000 -0.30781
      12     H     0.41807  0.41807  0.00000  0.16386
      13     H     0.41849  0.41849  0.00000  0.16302
      14     C     3.15435  3.15435  0.00000 -0.30870
      15     H     0.42254  0.42254  0.00000  0.15491
      16     H     0.42317  0.42317  0.00000  0.15365
      17     C     3.15488  3.15488  0.00000 -0.30975
      18     H     0.42161  0.42161  0.00000  0.15677
      19     H     0.41936  0.41936  0.00000  0.16127
      20     C     3.24014  3.24014  0.00000 -0.48028
      21     H     0.41966  0.41966  0.00000  0.16067
      22     H     0.42183  0.42183  0.00000  0.15633
      23     H     0.42059  0.42059  0.00000  0.15883
      24     H     0.42237  0.42237  0.00000  0.15527
      25     H     0.41922  0.41922  0.00000  0.16155

   Total alpha = 36.00000, Total beta = 36.00000, Total charge =  0.00000
