  ==> Input File <==

--------------------------------------------------------------------------
set {
	reference rhf
	basis 6-31G*
}

set_num_threads( 4 )
memory 2 gb

molecule MOL {
0 1

H	 -3.275893	 0.345784	 3.051040
O	 -2.563810	 -0.213018	 2.774306
C	 -1.818962	 0.431869	 1.773349
C	 -0.687956	 -0.490861	 1.354851
H	 -2.449103	 0.662327	 0.915375
H	 -1.414629	 1.373214	 2.143113
C	 0.198102	 0.111031	 0.262842
H	 -1.119712	 -1.427502	 1.012771
H	 -0.093686	 -0.723834	 2.234081
C	 1.331804	 -0.827780	 -0.158768
H	 -0.416238	 0.359965	 -0.599011
H	 0.624910	 1.048670	 0.616660
C	 2.723619	 -0.410569	 0.329459
H	 1.342964	 -0.912588	 -1.244120
H	 1.116806	 -1.824343	 0.220779
C	 3.243875	 0.895854	 -0.272975
H	 3.424222	 -1.207124	 0.091250
H	 2.714788	 -0.329854	 1.414619
H	 3.251977	 0.848779	 -1.358681
H	 2.637085	 1.747371	 0.016682
H	 4.259473	 1.094070	 0.055697

	symmetry c1
}
set optking {
	frozen_dihedral = ("
		4 7 10 14
	")
}

ee = optimize('scf')
oeprop('DIPOLE', 'QUADRUPOLE', 'MULLIKEN_CHARGES')
f=open( 'psi4out.xyz', 'w' )
f.write( "21  " )
f.write( str(ee) + "\n" )
f.write( MOL.save_string_xyz() )
f.close()
--------------------------------------------------------------------------

    Molecular point group: c1
  Charge       = 0
  Multiplicity = 1
  Basis Set: 6-31G*
  Basis Set:
  @DF-RHF Final Energy:  -310.20750826890492
    Total Energy =                       -310.2075082689048031
    Molecular point group: c1
  Basis Set: 6-31G*
  Basis Set:
  Basis Set: 6-31G*
  Basis Set:
  @DF-RHF Final Energy:  -310.20775310517121
    Total Energy =                       -310.2077531051709229
  Basis Set: 6-31G*
  Basis Set:
  Basis Set: 6-31G*
  Basis Set:
  @DF-RHF Final Energy:  -310.20802521563627
    Total Energy =                       -310.2080252156361553
  Basis Set: 6-31G*
  Basis Set:
  Basis Set: 6-31G*
  Basis Set:
  @DF-RHF Final Energy:  -310.20790181097357
    Total Energy =                       -310.2079018109734534
  Basis Set: 6-31G*
  Basis Set:
  Basis Set: 6-31G*
  Basis Set:
  @DF-RHF Final Energy:  -310.20804397498989
    Total Energy =                       -310.2080439749898346
  Basis Set: 6-31G*
  Basis Set:
  Basis Set: 6-31G*
  Basis Set:
  @DF-RHF Final Energy:  -310.20805152640338
    Total Energy =                       -310.2080515264034375
  Basis Set: 6-31G*
  Basis Set:
  Basis Set: 6-31G*
  Basis Set:
  @DF-RHF Final Energy:  -310.20805272741916
    Total Energy =                       -310.2080527274188739
  Basis Set: 6-31G*
  Basis Set:
  Charge       = 0
  Multiplicity = 1
  Basis Set: 6-31G*
  Basis Set:

    Orbital Energies (a.u.)
    -----------------------

    Doubly Occupied:

       1A    -20.551885     2A    -11.266899     3A    -11.215665
       4A    -11.215195     5A    -11.213232     6A    -11.210939
       7A    -11.208070     8A     -1.358675     9A     -1.084679
      10A     -1.032526    11A     -0.953210    12A     -0.874936
      13A     -0.811799    14A     -0.776488    15A     -0.691688
      16A     -0.658700    17A     -0.624577    18A     -0.609213
      19A     -0.576214    20A     -0.572138    21A     -0.543399
      22A     -0.522287    23A     -0.499669    24A     -0.492101
      25A     -0.481900    26A     -0.456074    27A     -0.452216
      28A     -0.444473    29A     -0.434135

  @DF-RHF Final Energy:  -310.20805271039757

   => Energetics <=

    Nuclear Repulsion Energy =            313.7406445418342287
    One-Electron Energy =               -1042.2314321119770284
    Two-Electron Energy =                 418.2827348597451760
    DFT Exchange-Correlation Energy =       0.0000000000000000
    Empirical Dispersion Energy =           0.0000000000000000
    PCM Polarization Energy =               0.0000000000000000
    EFP Energy =                            0.0000000000000000
    Total Energy =                       -310.2080527103976806
    Molecular point group: c1
  Basis Set: 6-31G*
  Basis Set:

  -Total Gradient:
     Atom            X                  Y                   Z
    ------   -----------------  -----------------  -----------------
       1        0.000001914095     0.000001109138    -0.000002089200
       2       -0.000000779635    -0.000004002959    -0.000003898545
       3       -0.000007504730    -0.000003800206     0.000000605052
       4       -0.000827918552    -0.000521465911    -0.000977254972
       5       -0.000001751540     0.000000092639    -0.000000778880
       6        0.000002160942    -0.000000945526    -0.000001553202
       7        0.000822709519     0.000419161577     0.001406576451
       8        0.000012362560    -0.000009790776     0.000001414980
       9        0.000000880184     0.000010281082     0.000005379173
      10        0.001153514241     0.001632511674    -0.000490774568
      11       -0.000002354910     0.000015090887     0.000019870938
      12       -0.000020344553     0.000008518908    -0.000001875595
      13        0.000024818766    -0.000030999548    -0.000032052047
      14       -0.001162550250    -0.001515395053     0.000075715315
      15        0.000024829795    -0.000007691214    -0.000026257457
      16       -0.000020781699    -0.000000474066     0.000010825128
      17        0.000003557302    -0.000010797807     0.000013161955
      18        0.000001946599     0.000019295903    -0.000003861951
      19        0.000002169603    -0.000009672851     0.000001267259
      20       -0.000002615992     0.000014180525    -0.000001586954
      21       -0.000004261736    -0.000005206418     0.000007167119

  **** Optimization is complete! (in 8 steps) ****
    Final optimized geometry and variables:
    Molecular point group: c1

    Geometry (in Angstrom), charge = 0, multiplicity = 1:

    H           -3.570589879807     0.364958504475     2.171551356523
    O           -2.869720580845    -0.194364295688     1.868493682661
    C           -2.109390485148     0.483250206065     0.901323399851
    C           -0.998249299294    -0.441514006351     0.437776870918
    H           -2.732868973358     0.769745102749     0.055298270683
    H           -1.685534931166     1.396188971387     1.317632309257
    C           -0.105816444577     0.188387478650    -0.634345940832
    H           -1.447841221719    -1.354037518354     0.056680499999
    H           -0.404346514475    -0.724329851907     1.303239475596
    C            1.051050099352    -0.736831331514    -1.074012929290
    H           -0.720394306917     0.444342727992    -1.493960554223
    H            0.290805718576     1.130009997661    -0.262935398818
    C            2.432294399728    -0.323120078598    -0.552476450159
    H            1.082698973169    -0.805444195902    -2.158472613124
    H            0.841159011382    -1.746035200835    -0.728771704256
    C            3.000167745869     0.928693438106    -1.223139998355
    H            3.126602604739    -1.145391273347    -0.706522083169
    H            2.379052522108    -0.168766142041     0.523568212826
    H            3.114118035423     0.776073729219    -2.292853282167
    H            2.358920405661     1.792988262507    -1.081143825087
    H            3.976769911524     1.177222277360    -0.819001597431

  Mulliken Charges: (a.u.)
   Center  Symbol    Alpha    Beta     Spin     Total
       1     H     0.28117  0.28117  0.00000  0.43766
       2     O     4.37168  4.37168  0.00000 -0.74335
       3     C     2.99040  2.99040  0.00000  0.01920
       4     C     3.16091  3.16091  0.00000 -0.32183
       5     H     0.43288  0.43288  0.00000  0.13424
       6     H     0.43292  0.43292  0.00000  0.13415
       7     C     3.16352  3.16352  0.00000 -0.32704
       8     H     0.41420  0.41420  0.00000  0.17160
       9     H     0.41499  0.41499  0.00000  0.17003
      10     C     3.15641  3.15641  0.00000 -0.31282
      11     H     0.42083  0.42083  0.00000  0.15834
      12     H     0.42118  0.42118  0.00000  0.15763
      13     C     3.15401  3.15401  0.00000 -0.30801
      14     H     0.42101  0.42101  0.00000  0.15798
      15     H     0.41768  0.41768  0.00000  0.16465
      16     C     3.24010  3.24010  0.00000 -0.48020
      17     H     0.42090  0.42090  0.00000  0.15819
      18     H     0.42276  0.42276  0.00000  0.15448
      19     H     0.42197  0.42197  0.00000  0.15606
      20     H     0.42113  0.42113  0.00000  0.15775
      21     H     0.41935  0.41935  0.00000  0.16129

   Total alpha = 29.00000, Total beta = 29.00000, Total charge = -0.00000
