  ==> Input File <==

--------------------------------------------------------------------------
set {
	reference rhf
	basis cc-pvtz
}

set_num_threads( 4 )
memory 2 gb

molecule MOL {
0 1

O	 1.047921	 -2.032215	 1.703821
C	 0.266269	 -1.638858	 0.907473
C	 -1.156101	 -2.107164	 0.792547
O	 0.550743	 -0.719877	 0.000412
H	 -1.826170	 -1.266164	 0.915555
H	 -1.352919	 -2.852766	 1.545457
H	 -1.323716	 -2.519443	 -0.194047
C	 1.863204	 -0.194033	 0.000410
H	 2.031502	 0.409177	 -0.879273
H	 2.524488	 -1.045142	 0.000793
H	 2.031291	 0.409823	 0.879686

	symmetry c1
}
set optking {
	frozen_dihedral = ("
		2 4 8 9
	")
}

ee = optimize('scf')
oeprop('DIPOLE', 'QUADRUPOLE', 'MULLIKEN_CHARGES')
f=open( 'psi4out.xyz', 'w' )
f.write( "11  " )
f.write( str(ee) + "\n" )
f.write( MOL.save_string_xyz() )
f.close()
--------------------------------------------------------------------------

    Molecular point group: c1
  Charge       = 0
  Multiplicity = 1
  Basis Set: CC-PVTZ
  Basis Set:
  @DF-RHF Final Energy:  -266.93748843613389
    Total Energy =                       -266.9374884361340037
    Molecular point group: c1
  Basis Set: CC-PVTZ
  Basis Set:
  Basis Set: CC-PVTZ
  Basis Set:
  @DF-RHF Final Energy:  -266.93877967857946
    Total Energy =                       -266.9387796785796354
  Basis Set: CC-PVTZ
  Basis Set:
  Basis Set: CC-PVTZ
  Basis Set:
  @DF-RHF Final Energy:  -266.93906399691969
    Total Energy =                       -266.9390639969196286
  Basis Set: CC-PVTZ
  Basis Set:
  Basis Set: CC-PVTZ
  Basis Set:
  @DF-RHF Final Energy:  -266.93853471098669
    Total Energy =                       -266.9385347109865734
  Basis Set: CC-PVTZ
  Basis Set:
  Basis Set: CC-PVTZ
  Basis Set:
  @DF-RHF Final Energy:  -266.93907880777198
    Total Energy =                       -266.9390788077720345
  Basis Set: CC-PVTZ
  Basis Set:
  Charge       = 0
  Multiplicity = 1
  Basis Set: CC-PVTZ
  Basis Set:

    Orbital Energies (a.u.)
    -----------------------

    Doubly Occupied:

       1A    -20.598753     2A    -20.535279     3A    -11.368921
       4A    -11.279881     5A    -11.233174     6A     -1.474176
       7A     -1.367773     8A     -1.037050     9A     -0.953738
      10A     -0.780173    11A     -0.698246    12A     -0.684574
      13A     -0.681196    14A     -0.596181    15A     -0.593334
      16A     -0.561803    17A     -0.527438    18A     -0.524762
      19A     -0.462269    20A     -0.445949

  @DF-RHF Final Energy:  -266.93907948319554

   => Energetics <=

    Nuclear Repulsion Energy =            183.6852016735860786
    One-Electron Energy =                -728.4392209422355791
    Two-Electron Energy =                 277.8149397854538165
    DFT Exchange-Correlation Energy =       0.0000000000000000
    Empirical Dispersion Energy =           0.0000000000000000
    PCM Polarization Energy =               0.0000000000000000
    EFP Energy =                            0.0000000000000000
    Total Energy =                       -266.9390794831956555
    Molecular point group: c1
  Basis Set: CC-PVTZ
  Basis Set:

  -Total Gradient:
     Atom            X                  Y                   Z
    ------   -----------------  -----------------  -----------------
       1       -0.000039864867    -0.000058844611     0.000071178936
       2        0.000336213841    -0.000557735075    -0.000514682101
       3        0.000028312214     0.000034118132    -0.000023725806
       4       -0.000263012237     0.000750666795     0.000583242762
       5        0.000004320939     0.000003960938     0.000004233837
       6        0.000024456547     0.000007584891     0.000002232198
       7        0.000003069472    -0.000000256978    -0.000006863398
       8       -0.000239794950     0.000596338684     0.000337442612
       9        0.000239545512    -0.000737480562    -0.000467804727
      10       -0.000036059578    -0.000025952227     0.000000691434
      11       -0.000057186892    -0.000012399986     0.000014054255

  **** Optimization is complete! (in 6 steps) ****
    Final optimized geometry and variables:
    Molecular point group: c1

    Geometry (in Angstrom), charge = 0, multiplicity = 1:

    O            0.506785090670    -0.711395512564     1.033475088065
    C           -0.267650306920    -0.311262117092     0.233480111889
    C           -1.690952796945    -0.773539930149     0.107300572261
    O            0.024510062430     0.611649026595    -0.667301649320
    H           -2.358275776087     0.069652461282     0.230284830883
    H           -1.895290195784    -1.521735756140     0.855618981213
    H           -1.854076922289    -1.180420979627    -0.882269458591
    C            1.342849986159     1.122325004212    -0.673098527993
    H            1.430057616616     1.712358301315    -1.570945108877
    H            2.063098381819     0.318948111624    -0.685741584030
    H            1.514114148615     1.737467557746     0.198465776184

  Mulliken Charges: (a.u.)
   Center  Symbol    Alpha    Beta     Spin     Total
       1     O     4.19673  4.19673  0.00000 -0.39345
       2     C     2.80151  2.80151  0.00000  0.39698
       3     C     3.13811  3.13811  0.00000 -0.27623
       4     O     4.14785  4.14785  0.00000 -0.29570
       5     H     0.44527  0.44527  0.00000  0.10946
       6     H     0.43788  0.43788  0.00000  0.12424
       7     H     0.44561  0.44561  0.00000  0.10878
       8     C     3.03347  3.03347  0.00000 -0.06694
       9     H     0.44583  0.44583  0.00000  0.10835
      10     H     0.45229  0.45229  0.00000  0.09542
      11     H     0.45546  0.45546  0.00000  0.08909

   Total alpha = 20.00000, Total beta = 20.00000, Total charge =  0.00000
