  ==> Input File <==

--------------------------------------------------------------------------
set {
	reference rhf
	basis 6-31G*
}

set_num_threads( 1 )
memory 2 gb

molecule MOL {
0 1

H	 -2.311090	 0.456289	 3.047743
C	 -2.315327	 -0.085443	 2.121909
C	 -1.215541	 -0.172906	 1.409995
H	 -3.230555	 -0.546049	 1.800799
O	 -1.180634	 -0.819263	 0.215062
H	 -0.287083	 0.275020	 1.717441
C	 0.051604	 -1.018856	 -0.387932
C	 1.043764	 0.054862	 -0.001873
H	 -0.017620	 -1.041351	 -1.469781
H	 0.437898	 -1.966374	 -0.042284
F	 2.212596	 -0.199467	 -0.571921
F	 0.652529	 1.252447	 -0.405055
F	 1.230877	 0.110694	 1.300533

	symmetry c1
}
set optking {
	frozen_dihedral = ("
		11 8 7 9,
		6 3 2 1,
		6 3 5 7
	")
}

ee = energy('scf')
oeprop('DIPOLE', 'QUADRUPOLE', 'MULLIKEN_CHARGES')
f=open( 'psi4out.xyz', 'w' )
f.write( "13  " )
f.write( str(ee) + "\n" )
f.write( MOL.save_string_xyz() )
f.close()
--------------------------------------------------------------------------

    Molecular point group: c1

    Geometry (in Angstrom), charge = 0, multiplicity = 1:

       Center              X                  Y                   Z               Mass
    ------------   -----------------  -----------------  -----------------  -----------------
           H         -2.503557910316     0.523803174518     2.632080620210     1.007825032070
           C         -2.507794910316    -0.017928825482     1.706246620210    12.000000000000
           C         -1.408008910316    -0.105391825482     0.994332620210    12.000000000000
           H         -3.423022910316    -0.478534825482     1.385136620210     1.007825032070
           O         -1.373101910316    -0.751748825482    -0.200600379790    15.994914619560
           H         -0.479550910316     0.342534174518     1.301778620210     1.007825032070
           C         -0.140863910316    -0.951341825482    -0.803594379790    12.000000000000
           C          0.851296089684     0.122376174518    -0.417535379790    12.000000000000
           H         -0.210087910316    -0.973836825482    -1.885443379790     1.007825032070
           H          0.245430089684    -1.898859825482    -0.457946379790     1.007825032070
           F          2.020128089684    -0.131952825482    -0.987583379790    18.998403224000
           F          0.460061089684     1.319961174518    -0.820717379790    18.998403224000
           F          1.038409089684     0.178208174518     0.884870620210    18.998403224000

  Charge       = 0
  Multiplicity = 1
  Basis Set: 6-31G*
  Basis Set:

    Orbital Energies (a.u.)
    -----------------------

    Doubly Occupied:

       1A    -26.366153     2A    -26.355163     3A    -26.353333
       4A    -20.601178     5A    -11.517793     6A    -11.320542
       7A    -11.277394     8A    -11.204298     9A     -1.761372
      10A     -1.664277    11A     -1.649746    12A     -1.433962
      13A     -1.083334    14A     -1.015244    15A     -0.939156
      16A     -0.867033    17A     -0.849755    18A     -0.837439
      19A     -0.768131    20A     -0.735767    21A     -0.719923
      22A     -0.713540    23A     -0.687707    24A     -0.663526
      25A     -0.660857    26A     -0.660605    27A     -0.643458
      28A     -0.581111    29A     -0.553390    30A     -0.523807
      31A     -0.488362    32A     -0.340731

  @DF-RHF Final Energy:  -527.50219148819122

   => Energetics <=

    Nuclear Repulsion Energy =            423.9992594664589660
    One-Electron Energy =               -1571.3266461062396502
    Two-Electron Energy =                 619.8251951515898099
    DFT Exchange-Correlation Energy =       0.0000000000000000
    Empirical Dispersion Energy =           0.0000000000000000
    PCM Polarization Energy =               0.0000000000000000
    EFP Energy =                            0.0000000000000000
    Total Energy =                       -527.5021914881909879

  Mulliken Charges: (a.u.)
   Center  Symbol    Alpha    Beta     Spin     Total
       1     H     0.40927  0.40927  0.00000  0.18145
       2     C     3.24294  3.24294  0.00000 -0.48588
       3     C     2.92436  2.92436  0.00000  0.15127
       4     H     0.40736  0.40736  0.00000  0.18527
       5     O     4.31338  4.31338  0.00000 -0.62676
       6     H     0.36356  0.36356  0.00000  0.27289
       7     C     3.02849  3.02849  0.00000 -0.05698
       8     C     2.48203  2.48203  0.00000  1.03593
       9     H     0.39226  0.39226  0.00000  0.21547
      10     H     0.40350  0.40350  0.00000  0.19300
      11     F     4.68086  4.68086  0.00000 -0.36171
      12     F     4.67668  4.67668  0.00000 -0.35336
      13     F     4.67530  4.67530  0.00000 -0.35060

   Total alpha = 32.00000, Total beta = 32.00000, Total charge =  0.00000
