  ==> Input File <==

--------------------------------------------------------------------------
set {
	reference rhf
	basis cc-pvtz
}

set_num_threads( 4 )
memory 2 gb

molecule MOL {
0 1

O	 0.395927	 1.296676	 -0.000076
C	 0.503051	 0.114301	 -0.000074
C	 -0.701422	 -0.805636	 -0.000109
C	 1.858118	 -0.556123	 0.000212
C	 -0.614739	 -1.940523	 1.008157
H	 -1.581338	 -0.193424	 0.179830
H	 -0.818902	 -1.191686	 -1.009368
H	 -0.521818	 -1.557964	 2.015749
H	 -1.503500	 -2.558029	 0.956713
H	 0.247370	 -2.565089	 0.816020
H	 1.961106	 -1.191101	 -0.872843
H	 2.636688	 0.191085	 -0.000109
H	 1.961070	 -1.190284	 0.873873

	symmetry c1
}
set optking {
	frozen_dihedral = ("
		6 3 2 1
	")
}

ee = optimize('scf')
oeprop('DIPOLE', 'QUADRUPOLE', 'MULLIKEN_CHARGES')
f=open( 'psi4out.xyz', 'w' )
f.write( "13  " )
f.write( str(ee) + "\n" )
f.write( MOL.save_string_xyz() )
f.close()
--------------------------------------------------------------------------

    Molecular point group: c1
  Charge       = 0
  Multiplicity = 1
  Basis Set: CC-PVTZ
  Basis Set:
  @DF-RHF Final Energy:  -231.07963605518671
    Total Energy =                       -231.0796360551867110
    Molecular point group: c1
  Basis Set: CC-PVTZ
  Basis Set:
  Basis Set: CC-PVTZ
  Basis Set:
  @DF-RHF Final Energy:  -231.07931797265280
    Total Energy =                       -231.0793179726528024
  Basis Set: CC-PVTZ
  Basis Set:
  Basis Set: CC-PVTZ
  Basis Set:
  @DF-RHF Final Energy:  -231.07982269418656
    Total Energy =                       -231.0798226941865323
  Basis Set: CC-PVTZ
  Basis Set:
  Basis Set: CC-PVTZ
  Basis Set:
  @DF-RHF Final Energy:  -231.08078121475785
    Total Energy =                       -231.0807812147577351
  Basis Set: CC-PVTZ
  Basis Set:
  Basis Set: CC-PVTZ
  Basis Set:
  @DF-RHF Final Energy:  -231.08085029332761
    Total Energy =                       -231.0808502933275577
  Basis Set: CC-PVTZ
  Basis Set:
  Basis Set: CC-PVTZ
  Basis Set:
  @DF-RHF Final Energy:  -231.08086270898707
    Total Energy =                       -231.0808627089870129
  Basis Set: CC-PVTZ
  Basis Set:
  Basis Set: CC-PVTZ
  Basis Set:
  @DF-RHF Final Energy:  -231.08086786168528
    Total Energy =                       -231.0808678616853626
  Basis Set: CC-PVTZ
  Basis Set:
  Charge       = 0
  Multiplicity = 1
  Basis Set: CC-PVTZ
  Basis Set:

    Orbital Energies (a.u.)
    -----------------------

    Doubly Occupied:

       1A    -20.538173     2A    -11.320683     3A    -11.232642
       4A    -11.228182     5A    -11.227349     6A     -1.398170
       7A     -1.069132     8A     -0.994975     9A     -0.890328
      10A     -0.733914    11A     -0.655237    12A     -0.649154
      13A     -0.620101    14A     -0.591247    15A     -0.560319
      16A     -0.544728    17A     -0.529846    18A     -0.507057
      19A     -0.485535    20A     -0.402379

  @DF-RHF Final Energy:  -231.08086797543936

   => Energetics <=

    Nuclear Repulsion Energy =            177.2260909190086693
    One-Electron Energy =                -664.2556131487485800
    Two-Electron Energy =                 255.9486542543006919
    DFT Exchange-Correlation Energy =       0.0000000000000000
    Empirical Dispersion Energy =           0.0000000000000000
    PCM Polarization Energy =               0.0000000000000000
    EFP Energy =                            0.0000000000000000
    Total Energy =                       -231.0808679754391903
    Molecular point group: c1
  Basis Set: CC-PVTZ
  Basis Set:

  -Total Gradient:
     Atom            X                  Y                   Z
    ------   -----------------  -----------------  -----------------
       1        0.000028930035     0.000013702969    -0.000779845904
       2        0.000000998026    -0.000049028669     0.001253982629
       3       -0.000086552672     0.000160617675    -0.001267249421
       4       -0.000010341142     0.000016244823     0.000003721629
       5       -0.000005135370    -0.000015077024     0.000022759519
       6        0.000079799543    -0.000131012198     0.000764713576
       7       -0.000002637390    -0.000003319071     0.000005845976
       8        0.000000243464    -0.000000218952    -0.000001313553
       9       -0.000001772061    -0.000002285950     0.000001163448
      10       -0.000001315216     0.000005531598    -0.000003338624
      11       -0.000006784167     0.000003714546     0.000000366387
      12        0.000006041814     0.000000981971    -0.000000784972
      13       -0.000001474865     0.000000148285    -0.000000020691

  **** Optimization is complete! (in 8 steps) ****
    Final optimized geometry and variables:
    Molecular point group: c1

    Geometry (in Angstrom), charge = 0, multiplicity = 1:

    O            0.097282884305     1.678957765687    -0.162970123706
    C            0.220242383085     0.497775931493    -0.190119656233
    C           -0.992787527012    -0.412295994930    -0.219317016189
    C            1.589699236157    -0.142302660257    -0.229820520288
    C           -0.947003086549    -1.581575606310     0.764692445844
    H           -1.857088248364     0.208595956473    -0.030523213244
    H           -1.078440716724    -0.794793136351    -1.233497744746
    H           -0.830858821761    -1.231676907206     1.784248528142
    H           -1.870193442932    -2.144609931411     0.713481527089
    H           -0.134701834678    -2.264385548130     0.549264690314
    H            1.634693158552    -0.919021474023    -0.984687996114
    H            2.332624358314     0.613815124684    -0.431437850102
    H            1.806105307332    -0.606073984097     0.726070116431

  Mulliken Charges: (a.u.)
   Center  Symbol    Alpha    Beta     Spin     Total
       1     O     4.17116  4.17116  0.00000 -0.34231
       2     C     2.85585  2.85585  0.00000  0.28830
       3     C     3.09791  3.09791  0.00000 -0.19583
       4     C     3.16187  3.16187  0.00000 -0.32373
       5     C     3.15709  3.15709  0.00000 -0.31418
       6     H     0.43708  0.43708  0.00000  0.12585
       7     H     0.44833  0.44833  0.00000  0.10333
       8     H     0.44756  0.44756  0.00000  0.10487
       9     H     0.44179  0.44179  0.00000  0.11641
      10     H     0.45256  0.45256  0.00000  0.09488
      11     H     0.44909  0.44909  0.00000  0.10183
      12     H     0.43233  0.43233  0.00000  0.13535
      13     H     0.44738  0.44738  0.00000  0.10523

   Total alpha = 20.00000, Total beta = 20.00000, Total charge =  0.00000
