  ==> Input File <==

--------------------------------------------------------------------------
set {
	reference rhf
	basis cc-pvtz
}

set_num_threads( 4 )
memory 2 gb

molecule MOL {
0 1

H	 2.938802	 -0.911834	 -1.488618
C	 2.222364	 -1.111407	 -0.702381
C	 1.322304	 0.099773	 -0.484271
H	 1.646650	 -1.983324	 -0.991663
H	 2.776218	 -1.357934	 0.196402
C	 0.308557	 -0.162619	 0.622645
H	 0.791220	 0.338974	 -1.397214
H	 1.918110	 0.963774	 -0.216961
N	 -1.069352	 -0.004081	 0.085342
H	 0.371632	 -1.172932	 0.991288
H	 0.400391	 0.548875	 1.426218
O	 -1.584901	 -0.965470	 -0.377818
O	 -1.548033	 1.079343	 0.130056

	symmetry c1
}
set optking {
	frozen_dihedral = ("
		7 3 6 9
	")
}

ee = optimize('scf')
oeprop('DIPOLE', 'QUADRUPOLE', 'MULLIKEN_CHARGES')
f=open( 'psi4out.xyz', 'w' )
f.write( "13  " )
f.write( str(ee) + "\n" )
f.write( MOL.save_string_xyz() )
f.close()
--------------------------------------------------------------------------

    Molecular point group: c1
  Charge       = 0
  Multiplicity = 1
  Basis Set: CC-PVTZ
  Basis Set:
  @DF-RHF Final Energy:  -321.85557712443563
    Total Energy =                       -321.8555771244357402
    Molecular point group: c1
  Basis Set: CC-PVTZ
  Basis Set:
  Basis Set: CC-PVTZ
  Basis Set:
  @DF-RHF Final Energy:  -321.85289318750364
    Total Energy =                       -321.8528931875038097
  Basis Set: CC-PVTZ
  Basis Set:
  Basis Set: CC-PVTZ
  Basis Set:
  @DF-RHF Final Energy:  -321.84949541253513
    Total Energy =                       -321.8494954125353615
  Basis Set: CC-PVTZ
  Basis Set:
  Basis Set: CC-PVTZ
  Basis Set:
  @DF-RHF Final Energy:  -321.85594909901340
    Total Energy =                       -321.8559490990132872
  Basis Set: CC-PVTZ
  Basis Set:
  @DF-RHF Final Energy:  -321.85604156680012
    Total Energy =                       -321.8560415667999450
  @DF-RHF Final Energy:  -321.85605948504065
    Total Energy =                       -321.8560594850403049
  Basis Set: CC-PVTZ
  Basis Set:
  @DF-RHF Final Energy:  -321.85606483700042
    Total Energy =                       -321.8560648370003037
  Basis Set: CC-PVTZ
  Basis Set:
  Basis Set: CC-PVTZ
  Basis Set:
  @DF-RHF Final Energy:  -321.85607057262382
    Total Energy =                       -321.8560705726235938
  Basis Set: CC-PVTZ
  Basis Set:
  Basis Set: CC-PVTZ
  Basis Set:
  @DF-RHF Final Energy:  -321.85607215746779
    Total Energy =                       -321.8560721574674517
  Basis Set: CC-PVTZ
  Basis Set:
  Charge       = 0
  Multiplicity = 1
  Basis Set: CC-PVTZ
  Basis Set:

    Orbital Energies (a.u.)
    -----------------------

    Doubly Occupied:

       1A    -20.591880     2A    -20.589129     3A    -15.837018
       4A    -11.297410     5A    -11.255220     6A    -11.233062
       7A     -1.636143     8A     -1.420390     9A     -1.131136
      10A     -1.026495    11A     -0.884899    12A     -0.834021
      13A     -0.763005    14A     -0.737671    15A     -0.727229
      16A     -0.659373    17A     -0.615953    18A     -0.591273
      19A     -0.538908    20A     -0.520043    21A     -0.515067
      22A     -0.484235    23A     -0.474561    24A     -0.454169

  @DF-RHF Final Energy:  -321.85607241206037

   => Energetics <=

    Nuclear Repulsion Energy =            249.0923129799540163
    One-Electron Energy =                -932.2601888660435634
    Two-Electron Energy =                 361.3118034740292615
    DFT Exchange-Correlation Energy =       0.0000000000000000
    Empirical Dispersion Energy =           0.0000000000000000
    PCM Polarization Energy =               0.0000000000000000
    EFP Energy =                            0.0000000000000000
    Total Energy =                       -321.8560724120602572
    Molecular point group: c1
  Basis Set: CC-PVTZ
  Basis Set:

  -Total Gradient:
     Atom            X                  Y                   Z
    ------   -----------------  -----------------  -----------------
       1       -0.000006152173     0.000002525394     0.000007982307
       2        0.000001230336    -0.000003196025     0.000011841798
       3       -0.000002080274    -0.000482705007    -0.000132679690
       4        0.000002777275    -0.000001315741    -0.000007947358
       5        0.000001570700    -0.000006491125     0.000001830052
       6       -0.000031397564     0.000391783840     0.000083101429
       7        0.000000009849     0.000326846796     0.000074643994
       8        0.000001448644     0.000013010594     0.000003963094
       9       -0.000039037173    -0.000196813459    -0.000066730178
      10       -0.000004980274     0.000001522880    -0.000005123524
      11        0.000000033501     0.000003521218    -0.000002109902
      12        0.000027821903    -0.000058162067    -0.000001110378
      13        0.000048755250     0.000009472703     0.000032338358

  **** Optimization is complete! (in 10 steps) ****
    Final optimized geometry and variables:
    Molecular point group: c1

    Geometry (in Angstrom), charge = 0, multiplicity = 1:

    H            3.054810532893    -0.747738780261    -1.371535388924
    C            2.335698865389    -0.949139278255    -0.587525436774
    C            1.419234497005     0.251323974737    -0.380564518826
    H            1.765473925648    -1.825787080305    -0.870136671662
    H            2.887595216253    -1.182504663730     0.316537992388
    C            0.392393316907     0.028390835704     0.746365802282
    H            0.896546719651     0.472123717890    -1.301892754589
    H            2.005882561853     1.129039786045    -0.143641313189
    N           -0.988019369810     0.185735153033     0.217286864279
    H            0.436434104852    -0.974986254550     1.135646558951
    H            0.487332245691     0.746436564874     1.541218999165
    O           -1.449983569358    -0.739492449499    -0.363794250271
    O           -1.523270289457     1.229291721900     0.383627891893

  Mulliken Charges: (a.u.)
   Center  Symbol    Alpha    Beta     Spin     Total
       1     H     0.44501  0.44501  0.00000  0.10999
       2     C     3.14943  3.14943  0.00000 -0.29887
       3     C     3.08905  3.08905  0.00000 -0.17810
       4     H     0.44551  0.44551  0.00000  0.10897
       5     H     0.45359  0.45359  0.00000  0.09281
       6     C     3.04296  3.04296  0.00000 -0.08591
       7     H     0.44017  0.44017  0.00000  0.11965
       8     H     0.44284  0.44284  0.00000  0.11431
       9     N     3.27889  3.27889  0.00000  0.44223
      10     H     0.43640  0.43640  0.00000  0.12720
      11     H     0.43041  0.43041  0.00000  0.13918
      12     O     4.17539  4.17539  0.00000 -0.35077
      13     O     4.17034  4.17034  0.00000 -0.34068

   Total alpha = 24.00000, Total beta = 24.00000, Total charge = -0.00000
