  ==> Input File <==

--------------------------------------------------------------------------
set {
	reference rhf
	basis 6-31G*
}

set_num_threads( 1 )
memory 2 gb

molecule MOL {
0 1

H	 3.463771	 0.168298	 -0.756243
C	 2.752674	 -0.045734	 0.033351
C	 1.322923	 0.120767	 -0.479465
H	 2.934561	 -1.059086	 0.377456
H	 2.958358	 0.631174	 0.856809
C	 0.306652	 -0.176050	 0.621399
H	 1.144658	 -0.551717	 -1.312180
H	 1.166477	 1.131798	 -0.836680
N	 -1.068537	 -0.011044	 0.085269
H	 0.372515	 -1.192590	 0.973735
H	 0.391664	 0.520566	 1.441230
O	 -1.313501	 0.997042	 -0.502207
O	 -1.845225	 -0.889047	 0.308630

	symmetry c1
}
set optking {
	frozen_dihedral = ("
		7 3 6 9
	")
}

ee = energy('scf')
oeprop('DIPOLE', 'QUADRUPOLE', 'MULLIKEN_CHARGES')
f=open( 'psi4out.xyz', 'w' )
f.write( "13  " )
f.write( str(ee) + "\n" )
f.write( MOL.save_string_xyz() )
f.close()
--------------------------------------------------------------------------

    Molecular point group: c1

    Geometry (in Angstrom), charge = 0, multiplicity = 1:

       Center              X                  Y                   Z               Mass
    ------------   -----------------  -----------------  -----------------  -----------------
           H          3.467927004298     0.168228274317    -0.766924360413     1.007825032070
           C          2.756830004298    -0.045803725683     0.022669639587    12.000000000000
           C          1.327079004298     0.120697274317    -0.490146360413    12.000000000000
           H          2.938717004298    -1.059155725683     0.366774639587     1.007825032070
           H          2.962514004298     0.631104274317     0.846127639587     1.007825032070
           C          0.310808004298    -0.176119725683     0.610717639587    12.000000000000
           H          1.148814004298    -0.551786725683    -1.322861360413     1.007825032070
           H          1.170633004298     1.131728274317    -0.847361360413     1.007825032070
           N         -1.064380995702    -0.011113725683     0.074587639587    14.003074004780
           H          0.376671004298    -1.192659725683     0.963053639587     1.007825032070
           H          0.395820004298     0.520496274317     1.430548639587     1.007825032070
           O         -1.309344995702     0.996972274317    -0.512888360413    15.994914619560
           O         -1.841068995702    -0.889116725683     0.297948639587    15.994914619560

  Charge       = 0
  Multiplicity = 1
  Basis Set: 6-31G*
  Basis Set:

    Orbital Energies (a.u.)
    -----------------------

    Doubly Occupied:

       1A    -20.602463     2A    -20.600882     3A    -15.847913
       4A    -11.299607     5A    -11.252285     6A    -11.237683
       7A     -1.631524     8A     -1.417220     9A     -1.134567
      10A     -1.027123    11A     -0.883083    12A     -0.830035
      13A     -0.760732    14A     -0.740530    15A     -0.724753
      16A     -0.666181    17A     -0.604620    18A     -0.585020
      19A     -0.549768    20A     -0.521179    21A     -0.511429
      22A     -0.485053    23A     -0.472641    24A     -0.449352

  @DF-RHF Final Energy:  -321.73504271199295

   => Energetics <=

    Nuclear Repulsion Energy =            247.6618645369647140
    One-Electron Energy =                -929.1225934469425738
    Two-Electron Energy =                 359.7256861979850555
    DFT Exchange-Correlation Energy =       0.0000000000000000
    Empirical Dispersion Energy =           0.0000000000000000
    PCM Polarization Energy =               0.0000000000000000
    EFP Energy =                            0.0000000000000000
    Total Energy =                       -321.7350427119928327

  Mulliken Charges: (a.u.)
   Center  Symbol    Alpha    Beta     Spin     Total
       1     H     0.40781  0.40781  0.00000  0.18439
       2     C     3.24834  3.24834  0.00000 -0.49668
       3     C     3.17244  3.17244  0.00000 -0.34488
       4     H     0.41606  0.41606  0.00000  0.16787
       5     H     0.41587  0.41587  0.00000  0.16827
       6     C     3.08855  3.08855  0.00000 -0.17709
       7     H     0.40586  0.40586  0.00000  0.18827
       8     H     0.39316  0.39316  0.00000  0.21369
       9     N     3.22113  3.22113  0.00000  0.55773
      10     H     0.38542  0.38542  0.00000  0.22916
      11     H     0.38667  0.38667  0.00000  0.22665
      12     O     4.22988  4.22988  0.00000 -0.45976
      13     O     4.22881  4.22881  0.00000 -0.45763

   Total alpha = 24.00000, Total beta = 24.00000, Total charge = -0.00000
