                              Psi4 1.0.54 Driver

  ==> Input File <==

--------------------------------------------------------------------------
set {
	reference rhf
	basis cc-pvtz
}

set_num_threads( 4 )
memory 2 gb

molecule MOL {
0 1

H	 3.459101	 0.139266	 -0.762951
C	 2.749156	 -0.051729	 0.031265
C	 1.322304	 0.099773	 -0.484271
H	 2.929445	 -1.053887	 0.403481
H	 2.954281	 0.646699	 0.834672
C	 0.308557	 -0.162619	 0.622645
H	 1.143368	 -0.594400	 -1.295960
H	 1.169532	 1.100095	 -0.870217
N	 -1.069352	 -0.004081	 0.085342
H	 0.371632	 -1.172932	 0.991288
H	 0.400391	 0.548875	 1.426218
O	 -1.968331	 -0.178895	 0.837574
O	 -1.176277	 0.257843	 -1.065703

	symmetry c1
}
set optking {
	frozen_dihedral = ("
		12 9 6 3
	")
}

ee,wfn = optimize('scf', return_wfn=True)
oeprop( wfn, 'DIPOLE', 'QUADRUPOLE', 'MULLIKEN_CHARGES')
f=open( 'psi4out.xyz', 'w' )
f.write( "13  " )
f.write( str(ee) + "\n" )
f.write( MOL.save_string_xyz() )
f.close()
--------------------------------------------------------------------------

    Molecular point group: c1
  Charge       = 0
  Multiplicity = 1
  Basis Set: CC-PVTZ
  Basis Set:
  @DF-RHF Final Energy:  -321.85840448584128
    Total Energy =                       -321.8584044858412199
    Molecular point group: c1
  Basis Set: CC-PVTZ
  Basis Set:
  Basis Set: CC-PVTZ
  Basis Set:
  @DF-RHF Final Energy:  -321.64152988125284
    Total Energy =                       -321.6415298812524952
  Basis Set: CC-PVTZ
  Basis Set:
  Basis Set: CC-PVTZ
  Basis Set:
  @DF-RHF Final Energy:  -321.78530559573181
    Total Energy =                       -321.7853055957315860
  Basis Set: CC-PVTZ
  Basis Set:
  Basis Set: CC-PVTZ
  Basis Set:
  @DF-RHF Final Energy:  -321.85326645853104
    Total Energy =                       -321.8532664585309249
  Basis Set: CC-PVTZ
  Basis Set:
  @DF-RHF Final Energy:  -321.73301586598643
    Total Energy =                       -321.7330158659868289
  @DF-RHF Final Energy:  -321.84641311612995
    Total Energy =                       -321.8464131161297246
  @DF-RHF Final Energy:  -321.85840510106038
    Total Energy =                       -321.8584051010602138
  @DF-RHF Final Energy:  -321.73941954883628
    Total Energy =                       -321.7394195488364517
  @DF-RHF Final Energy:  -321.84448570283962
    Total Energy =                       -321.8444857028397337
  @DF-RHF Final Energy:  -321.85814294860029
    Total Energy =                       -321.8581429486001753
  @DF-RHF Final Energy:  -321.85754308606363
    Total Energy =                       -321.8575430860636288
  Basis Set: CC-PVTZ
  Basis Set:
  @DF-RHF Final Energy:  -321.86037778203922
    Total Energy =                       -321.8603777820395067
  Basis Set: CC-PVTZ
  Basis Set:
  Basis Set: CC-PVTZ
  Basis Set:
  @DF-RHF Final Energy:  -321.86050018385379
    Total Energy =                       -321.8605001838540147
  Basis Set: CC-PVTZ
  Basis Set:
  Basis Set: CC-PVTZ
  Basis Set:
  @DF-RHF Final Energy:  -321.86050518838931
    Total Energy =                       -321.8605051883893111
  Basis Set: CC-PVTZ
  Basis Set:
  Charge       = 0
  Multiplicity = 1
  Basis Set: CC-PVTZ
  Basis Set:

    Orbital Energies (a.u.)
    -----------------------

    Doubly Occupied:

       1A    -20.593913     2A    -20.587258     3A    -15.838573
       4A    -11.299160     5A    -11.246789     6A    -11.234858
       7A     -1.637278     8A     -1.421419     9A     -1.131557
      10A     -1.026593    11A     -0.884935    12A     -0.826232
      13A     -0.762618    14A     -0.754018    15A     -0.730969
      16A     -0.656588    17A     -0.607686    18A     -0.574931
      19A     -0.554940    20A     -0.522219    21A     -0.509572
      22A     -0.488782    23A     -0.474498    24A     -0.453329

  @DF-RHF Final Energy:  -321.86050552728386

   => Energetics <=

    Nuclear Repulsion Energy =            247.6329179118067714
    One-Electron Energy =                -929.3494178788649833
    Two-Electron Energy =                 359.8559944397744630
    DFT Exchange-Correlation Energy =       0.0000000000000000
    Empirical Dispersion Energy =           0.0000000000000000
    PCM Polarization Energy =               0.0000000000000000
    EFP Energy =                            0.0000000000000000
    Total Energy =                       -321.8605055272837490
    Molecular point group: c1
  Basis Set: CC-PVTZ
  Basis Set:

  -Total Gradient:
     Atom            X                  Y                   Z
    ------   -----------------  -----------------  -----------------
       1        0.000008237628    -0.000000860331     0.000014553455
       2        0.000009785942     0.000011887662     0.000020691676
       3       -0.000008570032    -0.000017020223     0.000001254881
       4       -0.000012708416     0.000005057298     0.000002829630
       5       -0.000008877984    -0.000007428815    -0.000004171277
       6        0.000000306037     0.000005683064    -0.000000790095
       7        0.000012887590     0.000009753022     0.000005230021
       8        0.000019886316    -0.000012657032    -0.000003504903
       9        0.000184380824    -0.000044453738     0.000067925105
      10       -0.000008684635     0.000008034293    -0.000008790192
      11       -0.000010668496    -0.000005079853    -0.000004625587
      12       -0.000068654539     0.000030988728    -0.000089261541
      13       -0.000117320236     0.000016095925    -0.000001341175

  **** Optimization is complete! (in 15 steps) ****
    Final optimized geometry and variables:
    Molecular point group: c1

    Geometry (in Angstrom), charge = 0, multiplicity = 1:

    H           -0.530919729738     0.610231590617    -3.497800241108
    C            0.214793824586     0.466133135088    -2.726976144355
    C           -0.456644627680     0.242982195867    -1.374380633298
    H            0.825244539954    -0.383510833876    -3.012518559091
    H            0.851186344915     1.344158805662    -2.714648691786
    C            0.584252162507     0.041467279290    -0.293294518322
    H           -1.105646775958    -0.621171762832    -1.417938751172
    H           -1.080344180410     1.090174687877    -1.123178294618
    N            0.014172385305    -0.184297408971     1.069807969763
    H            1.206991279303    -0.822596911983    -0.471111077797
    H            1.232695689920     0.896837946008    -0.175429306638
    O            0.803912393030    -0.345639588811     1.939282838907
    O           -1.161365334678    -0.189338426114     1.203276573636

  Mulliken Charges: (a.u.)
   Center  Symbol    Alpha    Beta     Spin     Total
       1     H     0.44124  0.44124  0.00000  0.11752
       2     C     3.15276  3.15276  0.00000 -0.30552
       3     C     3.09045  3.09045  0.00000 -0.18089
       4     H     0.45315  0.45315  0.00000  0.09369
       5     H     0.45316  0.45316  0.00000  0.09369
       6     C     3.04726  3.04726  0.00000 -0.09453
       7     H     0.43952  0.43952  0.00000  0.12096
       8     H     0.43951  0.43951  0.00000  0.12098
       9     N     3.27280  3.27280  0.00000  0.45440
      10     H     0.43329  0.43329  0.00000  0.13342
      11     H     0.43330  0.43330  0.00000  0.13341
      12     O     4.17461  4.17461  0.00000 -0.34921
      13     O     4.16896  4.16896  0.00000 -0.33791

   Total alpha = 24.00000, Total beta = 24.00000, Total charge = -0.00000

*** Psi4 exiting successfully. Buy a developer a beer!
