                              Psi4 1.0.54 Driver

  ==> Input File <==

--------------------------------------------------------------------------
set {
	reference rhf
	basis cc-pvtz
}

set_num_threads( 4 )
memory 2 gb

molecule MOL {
0 1

H	 2.753258	 0.103515	 -0.061337
N	 1.779071	 0.312961	 -0.062321
C	 1.158107	 -0.133481	 1.168507
C	 1.132707	 -0.262860	 -1.224426
H	 1.653033	 0.340801	 2.007229
H	 1.233016	 -1.214311	 1.301972
C	 -0.309564	 0.253778	 1.161575
H	 1.609229	 0.117671	 -2.119677
H	 1.206012	 -1.351865	 -1.242147
C	 -0.334931	 0.124568	 -1.228222
H	 -0.389540	 1.344464	 1.186021
H	 -0.789072	 -0.130511	 2.054051
N	 -0.976577	 -0.298712	 -0.000000
H	 -0.832779	 -0.353147	 -2.063719
H	 -0.416653	 1.206353	 -1.368412
C	 -2.391156	 -0.021003	 -0.000000
H	 -2.853954	 -0.458728	 -0.875714
H	 -2.853954	 -0.458728	 0.875714
H	 -2.614037	 1.049773	 -0.000000

	symmetry c1
}
set optking {
	frozen_dihedral = ("
		7 13 16 19
	")
}

ee,wfn = optimize('scf', return_wfn=True)
oeprop( wfn, 'DIPOLE', 'QUADRUPOLE', 'MULLIKEN_CHARGES')
f=open( 'psi4out.xyz', 'w' )
f.write( "19  " )
f.write( str(ee) + "\n" )
f.write( MOL.save_string_xyz() )
f.close()
--------------------------------------------------------------------------

    Molecular point group: c1
  Charge       = 0
  Multiplicity = 1
  Basis Set: CC-PVTZ
  Basis Set:
  @DF-RHF Final Energy:  -305.30905129823799
    Total Energy =                       -305.3090512982379323
    Molecular point group: c1
  Basis Set: CC-PVTZ
  Basis Set:
  Basis Set: CC-PVTZ
  Basis Set:
  @DF-RHF Final Energy:  -305.30905653159050
    Total Energy =                       -305.3090565315901586
  Basis Set: CC-PVTZ
  Basis Set:
  Charge       = 0
  Multiplicity = 1
  Basis Set: CC-PVTZ
  Basis Set:

    Orbital Energies (a.u.)
    -----------------------

    Doubly Occupied:

       1A    -15.536759     2A    -15.531264     3A    -11.237333
       4A    -11.237302     5A    -11.235872     6A    -11.235857
       7A    -11.233253     8A     -1.249542     9A     -1.187929
      10A     -1.024008    11A     -0.965836    12A     -0.861799
      13A     -0.858284    14A     -0.757662    15A     -0.692875
      16A     -0.635269    17A     -0.627621    18A     -0.609627
      19A     -0.605392    20A     -0.581517    21A     -0.543680
      22A     -0.529015    23A     -0.512508    24A     -0.490601
      25A     -0.467828    26A     -0.458368    27A     -0.366102
      28A     -0.348509

  @DF-RHF Final Energy:  -305.30905682712682

   => Energetics <=

    Nuclear Repulsion Energy =            340.3477688912513486
    One-Electron Energy =               -1088.0704321969883495
    Two-Electron Energy =                 442.4136064786102907
    DFT Exchange-Correlation Energy =       0.0000000000000000
    Empirical Dispersion Energy =           0.0000000000000000
    PCM Polarization Energy =               0.0000000000000000
    EFP Energy =                            0.0000000000000000
    Total Energy =                       -305.3090568271267102
    Molecular point group: c1
  Basis Set: CC-PVTZ
  Basis Set:

  -Total Gradient:
     Atom            X                  Y                   Z
    ------   -----------------  -----------------  -----------------
       1        0.000001652358    -0.000001518201    -0.000004524394
       2        0.000004106600     0.000022108171    -0.000004907545
       3        0.000005489698     0.000018111240     0.000029373397
       4       -0.000003020921    -0.000029055817     0.000007260203
       5        0.000012726888    -0.000000589965    -0.000001546969
       6       -0.000009648506     0.000003961766     0.000000293010
       7        0.000079615409     0.000418514876    -0.000296274352
       8       -0.000004732149     0.000003255734     0.000005535945
       9        0.000006455704    -0.000005836181    -0.000002921869
      10       -0.000024037082    -0.000023160313     0.000009459095
      11        0.000010399544    -0.000000164177     0.000005695241
      12        0.000002420244     0.000009583043     0.000021886599
      13       -0.000118128951    -0.000596882262     0.000570517729
      14        0.000006860747     0.000006101876    -0.000015129439
      15       -0.000006251131     0.000009243643     0.000008712336
      16        0.000056235015     0.000156453224    -0.001083687105
      17       -0.000019196205    -0.000002642130    -0.000001788398
      18        0.000001716238     0.000008086412     0.000003943094
      19       -0.000002663500     0.000004429060     0.000748103420

  **** Optimization is complete! (in 3 steps) ****
    Final optimized geometry and variables:
    Molecular point group: c1

    Geometry (in Angstrom), charge = 0, multiplicity = 1:

    H            2.753928147950     0.103122268302    -0.032912504617
    N            1.779747929381     0.312938041198    -0.034191770797
    C            1.157455240500    -0.134396095991     1.195481320778
    C            1.133673150113    -0.260157225878    -1.197639669035
    H            1.651097952520     0.339257535609     2.035425202120
    H            1.232194667116    -1.215371332348     1.328392019038
    C           -0.310378031587     0.252575696635     1.186611385211
    H            1.610669021701     0.121725671421    -2.092154978748
    H            1.206348966325    -1.349259298184    -1.217498770338
    C           -0.334076622982     0.127545563098    -1.201633293705
    H           -0.390457866969     1.343282568238     1.209756554517
    H           -0.790975258895    -0.130508784579     2.079257913418
    N           -0.976886242091    -0.300136667342     0.024800525827
    H           -0.830801538974    -0.347391838002    -2.039379253445
    H           -0.415179971917     1.209890304387    -1.338416931923
    C           -2.390894674951    -0.018739259513     0.026482903203
    H           -2.857868033432    -0.459382910337    -0.845284958536
    H           -2.852105644555    -0.450920672388     0.906227909699
    H           -2.610780718718     1.052654959708     0.026308028271

  Mulliken Charges: (a.u.)
   Center  Symbol    Alpha    Beta     Spin     Total
       1     H     0.43996  0.43996  0.00000  0.12008
       2     N     3.64289  3.64289  0.00000 -0.28578
       3     C     3.04063  3.04063  0.00000 -0.08126
       4     C     3.04084  3.04084  0.00000 -0.08167
       5     H     0.45242  0.45242  0.00000  0.09516
       6     H     0.46533  0.46533  0.00000  0.06935
       7     C     3.03477  3.03477  0.00000 -0.06954
       8     H     0.45243  0.45243  0.00000  0.09514
       9     H     0.46535  0.46535  0.00000  0.06930
      10     C     3.03426  3.03426  0.00000 -0.06852
      11     H     0.46814  0.46814  0.00000  0.06371
      12     H     0.45413  0.45413  0.00000  0.09175
      13     N     3.61438  3.61438  0.00000 -0.22876
      14     H     0.45401  0.45401  0.00000  0.09198
      15     H     0.46859  0.46859  0.00000  0.06282
      16     C     3.09692  3.09692  0.00000 -0.19384
      17     H     0.45250  0.45250  0.00000  0.09500
      18     H     0.45220  0.45220  0.00000  0.09560
      19     H     0.47027  0.47027  0.00000  0.05947

   Total alpha = 28.00000, Total beta = 28.00000, Total charge =  0.00000

*** Psi4 exiting successfully. Buy a developer a beer!
