  ==> Input File <==

--------------------------------------------------------------------------
set {
	reference rhf
	basis 6-31G*
}

set_num_threads( 4 )
memory 2 gb

molecule MOL {
0 1

O	 -2.042549	 -1.228399	 -0.269030
C	 -1.653912	 -0.146171	 0.050137
C	 -0.332303	 0.024011	 0.778412
C	 -2.438579	 1.106236	 -0.272369
C	 0.845713	 -0.001731	 -0.208243
H	 -0.323783	 0.953829	 1.340327
H	 -0.235459	 -0.796807	 1.480410
C	 0.665271	 0.980520	 -1.366541
H	 0.969906	 -1.007075	 -0.606919
H	 1.756742	 0.232595	 0.334213
C	 1.839416	 0.963476	 -2.344447
H	 -0.253455	 0.745977	 -1.899793
H	 0.540724	 1.984604	 -0.967954
H	 1.968422	 -0.020528	 -2.786199
H	 2.767868	 1.226314	 -1.846114
H	 1.685643	 1.671137	 -3.152900
H	 -3.277823	 0.863061	 -0.908988
H	 -1.806773	 1.843019	 -0.759671
H	 -2.802853	 1.554979	 0.648059

	symmetry c1
}
set optking {
	frozen_dihedral = ("
		9 5 3 2
	")
}

ee = optimize('scf')
oeprop('DIPOLE', 'QUADRUPOLE', 'MULLIKEN_CHARGES')
f=open( 'psi4out.xyz', 'w' )
f.write( "19  " )
f.write( str(ee) + "\n" )
f.write( MOL.save_string_xyz() )
f.close()
--------------------------------------------------------------------------

    Molecular point group: c1
  Charge       = 0
  Multiplicity = 1
  Basis Set: 6-31G*
  Basis Set:
  @DF-RHF Final Energy:  -309.06058484131142
    Total Energy =                       -309.0605848413115382
    Molecular point group: c1
  Basis Set: 6-31G*
  Basis Set:
  Basis Set: 6-31G*
  Basis Set:
  @DF-RHF Final Energy:  -309.06275629872192
    Total Energy =                       -309.0627562987218084
  Basis Set: 6-31G*
  Basis Set:
  Basis Set: 6-31G*
  Basis Set:
  @DF-RHF Final Energy:  -309.06199938964915
    Total Energy =                       -309.0619993896493156
  Basis Set: 6-31G*
  Basis Set:
  Basis Set: 6-31G*
  Basis Set:
  @DF-RHF Final Energy:  -309.06334452069558
    Total Energy =                       -309.0633445206955798
  Basis Set: 6-31G*
  Basis Set:
  @DF-RHF Final Energy:  -309.06354002180564
    Total Energy =                       -309.0635400218056930
  @DF-RHF Final Energy:  -309.06365322327991
    Total Energy =                       -309.0636532232799141
  @DF-RHF Final Energy:  -309.06367778101537
    Total Energy =                       -309.0636777810152580
  @DF-RHF Final Energy:  -309.06370073951621
    Total Energy =                       -309.0637007395160936
  @DF-RHF Final Energy:  -309.06376617244024
    Total Energy =                       -309.0637661724400687
  @DF-RHF Final Energy:  -309.06394653758554
    Total Energy =                       -309.0639465375855934
  @DF-RHF Final Energy:  -309.06446623829464
    Total Energy =                       -309.0644662382947558
  @DF-RHF Final Energy:  -309.06479047781977
    Total Energy =                       -309.0647904778197699
  @DF-RHF Final Energy:  -309.02527606958904
    Total Energy =                       -309.0252760695893244
  @DF-RHF Final Energy:  -309.05982938434738
    Total Energy =                       -309.0598293843474949
  @DF-RHF Final Energy:  -309.06471804143229
    Total Energy =                       -309.0647180414322293
  @DF-RHF Final Energy:  -309.06441599844288
    Total Energy =                       -309.0644159984429393
  @DF-RHF Final Energy:  -309.06188945632135
    Total Energy =                       -309.0618894563211256
  @DF-RHF Final Energy:  -309.06485415066533
    Total Energy =                       -309.0648541506653828
  @DF-RHF Final Energy:  -309.06495566699425
    Total Energy =                       -309.0649556669941944
  @DF-RHF Final Energy:  -309.06498514619307
    Total Energy =                       -309.0649851461934077
  @DF-RHF Final Energy:  -309.06505715547365
    Total Energy =                       -309.0650571554737098
  Basis Set: 6-31G*
  Basis Set:
  @DF-RHF Final Energy:  -309.06507951813370
    Total Energy =                       -309.0650795181338708
  Basis Set: 6-31G*
  Basis Set:
  Basis Set: 6-31G*
  Basis Set:
  @DF-RHF Final Energy:  -309.06508474167799
    Total Energy =                       -309.0650847416779925
  Basis Set: 6-31G*
  Basis Set:
  Basis Set: 6-31G*
  Basis Set:
  @DF-RHF Final Energy:  -309.06508578757240
    Total Energy =                       -309.0650857875719453
  Basis Set: 6-31G*
  Basis Set:
  Charge       = 0
  Multiplicity = 1
  Basis Set: 6-31G*
  Basis Set:

    Orbital Energies (a.u.)
    -----------------------

    Doubly Occupied:

       1A    -20.550255     2A    -11.327122     3A    -11.232956
       4A    -11.228905     5A    -11.220198     6A    -11.212062
       7A    -11.206630     8A     -1.395950     9A     -1.083143
      10A     -1.028691    11A     -0.982376    12A     -0.884910
      13A     -0.804144    14A     -0.726519    15A     -0.663755
      16A     -0.632643    17A     -0.625119    18A     -0.613124
      19A     -0.577128    20A     -0.571610    21A     -0.562142
      22A     -0.524769    23A     -0.513370    24A     -0.492515
      25A     -0.474908    26A     -0.466637    27A     -0.461060
      28A     -0.399024

  @DF-RHF Final Energy:  -309.06508593459580

   => Energetics <=

    Nuclear Repulsion Energy =            307.4750182353809578
    One-Electron Energy =               -1028.1568811250485851
    Two-Electron Energy =                 411.6167769550721118
    DFT Exchange-Correlation Energy =       0.0000000000000000
    Empirical Dispersion Energy =           0.0000000000000000
    PCM Polarization Energy =               0.0000000000000000
    EFP Energy =                            0.0000000000000000
    Total Energy =                       -309.0650859345955155
    Molecular point group: c1
  Basis Set: 6-31G*
  Basis Set:

  -Total Gradient:
     Atom            X                  Y                   Z
    ------   -----------------  -----------------  -----------------
       1        0.000015376676     0.000014498270     0.000030482250
       2       -0.000015800179     0.003425713823    -0.001008389933
       3        0.000551040800    -0.005013299519     0.002383595571
       4        0.000033802450    -0.000011162686    -0.000044124377
       5       -0.003079584563     0.002179707105    -0.005368387051
       6        0.000004357316    -0.000003100906    -0.000002516181
       7       -0.000005923289    -0.000007666512     0.000007032602
       8       -0.000032152198     0.000016950638     0.000000999984
       9        0.002523258649    -0.000570234888     0.003992146660
      10       -0.000009485415    -0.000000913041    -0.000007691851
      11        0.000015983124    -0.000003357929    -0.000003915450
      12        0.000006683482    -0.000008004780     0.000002953968
      13        0.000004587120    -0.000005197312     0.000004492441
      14        0.000004031841    -0.000006041377    -0.000001440588
      15        0.000003184102    -0.000000854521    -0.000001863841
      16       -0.000003174591     0.000002456502    -0.000000368404
      17       -0.000018000072    -0.000004315389     0.000001673485
      18        0.000000617279    -0.000000012039     0.000008318713
      19        0.000001197468    -0.000005165436     0.000007002001

  **** Optimization is complete! (in 25 steps) ****
    Final optimized geometry and variables:
    Molecular point group: c1

    Geometry (in Angstrom), charge = 0, multiplicity = 1:

    O           -1.436737427860    -0.873931745578    -0.502657230161
    C           -1.335514817434    -0.198576329199     0.475864756437
    C           -0.013743655832    -0.013393946720     1.201731478268
    C           -2.536417426336     0.496636955561     1.081110249958
    C            1.244647823336    -0.280608580341     0.371895422327
    H            0.014745307986     0.995074899370     1.609447766400
    H           -0.038405503256    -0.677089588523     2.065159766096
    C            1.362661939227     0.537911774182    -0.914743985895
    H            1.326664569955    -1.343357187946     0.166196605506
    H            2.096225354533    -0.046566683354     1.008784058542
    C            2.701253964358     0.318448873651    -1.619242257484
    H            0.554593154035     0.281584246132    -1.588212110483
    H            1.252976181006     1.595134959036    -0.676166302838
    H            2.831573625996    -0.724919233934    -1.891633369804
    H            3.535217487851     0.601111141822    -0.982598754272
    H            2.765217920072     0.907044496631    -2.529096624153
    H           -3.441673807248     0.149221074312     0.602903016001
    H           -2.445822160732     1.570135276801     0.938251855682
    H           -2.591328131394     0.317698980250     2.150698608722

  Mulliken Charges: (a.u.)
   Center  Symbol    Alpha    Beta     Spin     Total
       1     O     4.26339  4.26339  0.00000 -0.52678
       2     C     2.73391  2.73391  0.00000  0.53218
       3     C     3.21149  3.21149  0.00000 -0.42297
       4     C     3.28812  3.28812  0.00000 -0.57624
       5     C     3.14629  3.14629  0.00000 -0.29258
       6     H     0.41386  0.41386  0.00000  0.17227
       7     H     0.40323  0.40323  0.00000  0.19353
       8     C     3.15977  3.15977  0.00000 -0.31954
       9     H     0.41168  0.41168  0.00000  0.17663
      10     H     0.42203  0.42203  0.00000  0.15594
      11     C     3.24043  3.24043  0.00000 -0.48086
      12     H     0.40231  0.40231  0.00000  0.19539
      13     H     0.42846  0.42846  0.00000  0.14307
      14     H     0.41932  0.41932  0.00000  0.16136
      15     H     0.42384  0.42384  0.00000  0.15232
      16     H     0.41873  0.41873  0.00000  0.16254
      17     H     0.39678  0.39678  0.00000  0.20644
      18     H     0.40631  0.40631  0.00000  0.18737
      19     H     0.41004  0.41004  0.00000  0.17992

   Total alpha = 28.00000, Total beta = 28.00000, Total charge =  0.00000
