  ==> Input File <==

--------------------------------------------------------------------------
set {
	reference rhf
	basis 6-31G*
}

set_num_threads( 4 )
memory 2 gb

molecule MOL {
0 1

O	 -2.821601	 1.309235	 -0.001213
C	 -2.668563	 0.129746	 -0.000350
C	 -3.801572	 -0.864014	 -0.000442
O	 -1.481751	 -0.454642	 0.000584
H	 -4.417280	 -0.689587	 -0.874708
H	 -3.443784	 -1.883046	 -0.000565
H	 -4.417179	 -0.689832	 0.873954
C	 -0.334255	 0.388708	 0.000906
C	 0.891947	 -0.504646	 0.000751
H	 -0.365390	 1.025305	 -0.873475
H	 -0.365484	 1.024911	 0.875569
C	 2.191998	 0.301789	 0.000897
H	 0.855148	 -1.151283	 -0.871571
H	 0.855132	 -1.151660	 0.872805
C	 3.441114	 -0.581407	 0.000108
H	 2.215074	 0.954890	 -0.869742
H	 2.215465	 0.953923	 0.872248
C	 3.268964	 -1.856533	 0.824296
H	 4.283699	 -0.012302	 0.386430
H	 3.694294	 -0.844645	 -1.024429
H	 3.048027	 -1.625691	 1.862522
H	 4.170265	 -2.461104	 0.804662
H	 2.454443	 -2.464440	 0.440872

	symmetry c1
}
set optking {
	frozen_dihedral = ("
		19 15 12 16
	")
}

ee = optimize('scf')
oeprop('DIPOLE', 'QUADRUPOLE', 'MULLIKEN_CHARGES')
f=open( 'psi4out.xyz', 'w' )
f.write( "23  " )
f.write( str(ee) + "\n" )
f.write( MOL.save_string_xyz() )
f.close()
--------------------------------------------------------------------------

    Molecular point group: c1
  Charge       = 0
  Multiplicity = 1
  Basis Set: 6-31G*
  Basis Set:
  @DF-RHF Final Energy:  -422.97284078728080
    Total Energy =                       -422.9728407872808020
    Molecular point group: c1
  Basis Set: 6-31G*
  Basis Set:
  Basis Set: 6-31G*
  Basis Set:
  @DF-RHF Final Energy:  -422.97353917410783
    Total Energy =                       -422.9735391741079411
  Basis Set: 6-31G*
  Basis Set:
  Basis Set: 6-31G*
  Basis Set:
  @DF-RHF Final Energy:  -422.97497583170059
    Total Energy =                       -422.9749758317005899
  Basis Set: 6-31G*
  Basis Set:
  Basis Set: 6-31G*
  Basis Set:
  @DF-RHF Final Energy:  -422.97509565158617
    Total Energy =                       -422.9750956515861162
  Basis Set: 6-31G*
  Basis Set:
  Basis Set: 6-31G*
  Basis Set:
  @DF-RHF Final Energy:  -422.97487258655076
    Total Energy =                       -422.9748725865508732
  Basis Set: 6-31G*
  Basis Set:
  Basis Set: 6-31G*
  Basis Set:
  @DF-RHF Final Energy:  -422.97508659646070
    Total Energy =                       -422.9750865964606419
  Basis Set: 6-31G*
  Basis Set:
  Basis Set: 6-31G*
  Basis Set:
  @DF-RHF Final Energy:  -422.97511596032200
    Total Energy =                       -422.9751159603220003
  Basis Set: 6-31G*
  Basis Set:
  Charge       = 0
  Multiplicity = 1
  Basis Set: 6-31G*
  Basis Set:

    Orbital Energies (a.u.)
    -----------------------

    Doubly Occupied:

       1A    -20.602850     2A    -20.540428     3A    -11.373986
       4A    -11.281271     5A    -11.232323     6A    -11.224692
       7A    -11.223325     8A    -11.222322     9A    -11.212660
      10A     -1.467818    11A     -1.360614    12A     -1.093483
      13A     -1.040281    14A     -1.001333    15A     -0.930838
      16A     -0.856746    17A     -0.789928    18A     -0.769484
      19A     -0.691745    20A     -0.684565    21A     -0.669881
      22A     -0.642176    23A     -0.611416    24A     -0.601633
      25A     -0.574233    26A     -0.569668    27A     -0.547922
      28A     -0.537334    29A     -0.527381    30A     -0.506640
      31A     -0.498376    32A     -0.468115    33A     -0.467207
      34A     -0.465820    35A     -0.451181    36A     -0.435091

  @DF-RHF Final Energy:  -422.97511595712103

   => Energetics <=

    Nuclear Repulsion Energy =            455.1460959192260134
    One-Electron Energy =               -1477.8928951422640239
    Two-Electron Energy =                 599.7716832659175452
    DFT Exchange-Correlation Energy =       0.0000000000000000
    Empirical Dispersion Energy =           0.0000000000000000
    PCM Polarization Energy =               0.0000000000000000
    EFP Energy =                            0.0000000000000000
    Total Energy =                       -422.9751159571204653
    Molecular point group: c1
  Basis Set: 6-31G*
  Basis Set:

  -Total Gradient:
     Atom            X                  Y                   Z
    ------   -----------------  -----------------  -----------------
       1       -0.000002188633    -0.000003349484     0.000005571448
       2       -0.000012657790    -0.000000194424     0.000004172680
       3       -0.000001105887     0.000002602034    -0.000001190207
       4       -0.000002039846    -0.000000286792     0.000019467549
       5       -0.000000389557    -0.000001513605    -0.000001318192
       6        0.000001439788     0.000000695108    -0.000000344279
       7        0.000000229458     0.000001395649    -0.000001055007
       8       -0.000001190510     0.000003658155    -0.000052612828
       9        0.000013268045     0.000025334808    -0.000023063618
      10        0.000011133270     0.000000965469     0.000013370720
      11       -0.000006881335     0.000004146850     0.000006751860
      12        0.003189217362     0.004306829218     0.004768635224
      13       -0.000012002757     0.000005274066    -0.000002386166
      14        0.000019020325    -0.000001103896    -0.000000759880
      15        0.000468045375     0.001423375788    -0.006989596850
      16       -0.002798268350    -0.003887886982    -0.002941475556
      17       -0.000014563912     0.000011335407     0.000001947926
      18        0.000018274575     0.000021737102    -0.000010424076
      19       -0.000885902991    -0.001909914968     0.005211857362
      20        0.000003119448    -0.000017082983     0.000000438792
      21       -0.000006118087     0.000004171465    -0.000003173652
      22        0.000009685782     0.000005144066     0.000001574192
      23        0.000009876240     0.000004667950    -0.000006387442

  **** Optimization is complete! (in 8 steps) ****
    Final optimized geometry and variables:
    Molecular point group: c1

    Geometry (in Angstrom), charge = 0, multiplicity = 1:

    O           -2.652322835550     1.579320436734    -0.164188322763
    C           -2.520745150684     0.397901045784    -0.124048685794
    C           -3.671660571205    -0.575014544749    -0.111877007956
    O           -1.345068244203    -0.207229343736    -0.084977155097
    H           -4.270375822035    -0.416881745911    -1.000914265157
    H           -3.332661784779    -1.599785920603    -0.074806749257
    H           -4.297532693987    -0.362789089721     0.746686374402
    C           -0.182197492005     0.614983681815    -0.092162842958
    C            1.027226339060    -0.299861365825    -0.038329687176
    H           -0.186682907611     1.222204748193    -0.987657516815
    H           -0.217352084702     1.281126647917     0.759983561607
    C            2.334880632342     0.500685095047    -0.019989421382
    H            1.004413067043    -0.960900523731    -0.900924139041
    H            0.944901891836    -0.927740328750     0.842110359112
    C            3.614011756895    -0.351059998128    -0.112279395644
    H            2.311329369181     1.168651512779    -0.878148475872
    H            2.365673901144     1.117622632047     0.874404192813
    C            3.600991024481    -1.635708321212     0.722180498620
    H            4.444682786121     0.249326563658     0.248440162858
    H            3.816487776470    -0.600131837653    -1.149880565446
    H            3.383404886172    -1.425799170141     1.766036782927
    H            4.571323882019    -2.120687296989     0.681154143482
    H            2.865359603436    -2.349006518742     0.366854770095

  Mulliken Charges: (a.u.)
   Center  Symbol    Alpha    Beta     Spin     Total
       1     O     4.28396  4.28396  0.00000 -0.56792
       2     C     2.61535  2.61535  0.00000  0.76931
       3     C     3.28773  3.28773  0.00000 -0.57546
       4     O     4.31280  4.31280  0.00000 -0.62559
       5     H     0.39752  0.39752  0.00000  0.20496
       6     H     0.39991  0.39991  0.00000  0.20019
       7     H     0.39752  0.39752  0.00000  0.20496
       8     C     2.99508  2.99508  0.00000  0.00985
       9     C     3.16855  3.16855  0.00000 -0.33709
      10     H     0.41087  0.41087  0.00000  0.17827
      11     H     0.41084  0.41084  0.00000  0.17831
      12     C     3.16184  3.16184  0.00000 -0.32368
      13     H     0.41503  0.41503  0.00000  0.16994
      14     H     0.41146  0.41146  0.00000  0.17709
      15     C     3.15182  3.15182  0.00000 -0.30364
      16     H     0.41936  0.41936  0.00000  0.16128
      17     H     0.41931  0.41931  0.00000  0.16137
      18     C     3.24428  3.24428  0.00000 -0.48857
      19     H     0.41891  0.41891  0.00000  0.16217
      20     H     0.41998  0.41998  0.00000  0.16004
      21     H     0.42153  0.42153  0.00000  0.15694
      22     H     0.41787  0.41787  0.00000  0.16425
      23     H     0.41850  0.41850  0.00000  0.16301

   Total alpha = 36.00000, Total beta = 36.00000, Total charge = -0.00000
