  ==> Input File <==

--------------------------------------------------------------------------
set {
	reference rhf
	basis cc-pvtz
}

set_num_threads( 4 )
memory 2 gb

molecule MOL {
0 1

H	 2.338396	 -0.108057	 0.071993
O	 1.582640	 -0.675746	 0.077381
C	 0.489979	 0.078084	 0.002623
C	 -0.763662	 -0.754014	 0.000816
O	 0.540320	 1.257617	 -0.061252
C	 -2.038001	 0.074705	 -0.000833
H	 -0.712945	 -1.405886	 -0.864342
H	 -0.715137	 -1.405770	 0.866182
H	 -2.087267	 0.710831	 -0.874232
H	 -2.903419	 -0.576199	 -0.001922
H	 -2.089467	 0.710909	 0.872389

	symmetry c1
}
set optking {
	frozen_dihedral = ("
		2 3 4 7
	")
}

ee = optimize('scf')
oeprop('DIPOLE', 'QUADRUPOLE', 'MULLIKEN_CHARGES')
f=open( 'psi4out.xyz', 'w' )
f.write( "11  " )
f.write( str(ee) + "\n" )
f.write( MOL.save_string_xyz() )
f.close()
--------------------------------------------------------------------------

    Molecular point group: c1
  Charge       = 0
  Multiplicity = 1
  Basis Set: CC-PVTZ
  Basis Set:
  @DF-RHF Final Energy:  -266.95330122116241
    Total Energy =                       -266.9533012211624055
    Molecular point group: c1
  Basis Set: CC-PVTZ
  Basis Set:
  Basis Set: CC-PVTZ
  Basis Set:
  @DF-RHF Final Energy:  -266.95325209987163
    Total Energy =                       -266.9532520998716905
  Basis Set: CC-PVTZ
  Basis Set:
  Basis Set: CC-PVTZ
  Basis Set:
  @DF-RHF Final Energy:  -266.95330765909591
    Total Energy =                       -266.9533076590959695
  Basis Set: CC-PVTZ
  Basis Set:
  Charge       = 0
  Multiplicity = 1
  Basis Set: CC-PVTZ
  Basis Set:

    Orbital Energies (a.u.)
    -----------------------

    Doubly Occupied:

       1A    -20.605134     2A    -20.541669     3A    -11.374401
       4A    -11.242871     5A    -11.218771     6A     -1.478706
       7A     -1.370336     8A     -1.066490     9A     -0.918814
      10A     -0.803691    11A     -0.705817    12A     -0.693619
      13A     -0.665660    14A     -0.597698    15A     -0.596707
      16A     -0.533994    17A     -0.527065    18A     -0.505912
      19A     -0.485408    20A     -0.448976

  @DF-RHF Final Energy:  -266.95330871290560

   => Energetics <=

    Nuclear Repulsion Energy =            180.1714961759774667
    One-Electron Energy =                -721.4861327333220515
    Two-Electron Energy =                 274.3613278444390176
    DFT Exchange-Correlation Energy =       0.0000000000000000
    Empirical Dispersion Energy =           0.0000000000000000
    PCM Polarization Energy =               0.0000000000000000
    EFP Energy =                            0.0000000000000000
    Total Energy =                       -266.9533087129055389
    Molecular point group: c1
  Basis Set: CC-PVTZ
  Basis Set:

  -Total Gradient:
     Atom            X                  Y                   Z
    ------   -----------------  -----------------  -----------------
       1       -0.000013439852     0.000007104621     0.000007339705
       2       -0.000017314898    -0.000020799786     0.000173653372
       3        0.000019638990     0.000005360716    -0.000292436798
       4        0.000127916883    -0.000178417640     0.000212491650
       5       -0.000024343488     0.000028691601     0.000006074501
       6        0.000003657306     0.000005557301     0.000012949845
       7       -0.000078824599     0.000143922248    -0.000123432048
       8       -0.000012525019     0.000003315129    -0.000003972764
       9        0.000006800137    -0.000007495260     0.000003184611
      10        0.000001423264    -0.000000172522    -0.000001141902
      11       -0.000012988722     0.000012933596     0.000005289830

  **** Optimization is complete! (in 4 steps) ****
    Final optimized geometry and variables:
    Molecular point group: c1

    Geometry (in Angstrom), charge = 0, multiplicity = 1:

    H            2.339117744234    -0.108004996115     0.058196704218
    O            1.583139854058    -0.675582514849     0.068595011538
    C            0.489966623355     0.078024321920    -0.002650811853
    C           -0.763759577883    -0.754362714452    -0.000910523645
    O            0.540093629382     1.257734015913    -0.061706912330
    C           -2.038048705956     0.074554363062    -0.007810138641
    H           -0.711925640692    -1.404602151913    -0.867725129745
    H           -0.717196756795    -1.406716445687     0.863611400664
    H           -2.083448475884     0.710562019296    -0.881357871061
    H           -2.903732166194    -0.576103099372    -0.011906993948
    H           -2.093368284233     0.711037238460     0.865260951333

  Mulliken Charges: (a.u.)
   Center  Symbol    Alpha    Beta     Spin     Total
       1     H     0.38182  0.38182  0.00000  0.23635
       2     O     4.16042  4.16042  0.00000 -0.32083
       3     C     2.80308  2.80308  0.00000  0.39384
       4     C     3.10123  3.10123  0.00000 -0.20247
       5     O     4.19056  4.19056  0.00000 -0.38112
       6     C     3.13894  3.13894  0.00000 -0.27788
       7     H     0.43978  0.43978  0.00000  0.12044
       8     H     0.43883  0.43883  0.00000  0.12233
       9     H     0.44724  0.44724  0.00000  0.10552
      10     H     0.44967  0.44967  0.00000  0.10066
      11     H     0.44842  0.44842  0.00000  0.10315

   Total alpha = 20.00000, Total beta = 20.00000, Total charge = -0.00000
