  ==> Input File <==

--------------------------------------------------------------------------
set {
	reference rhf
	basis 6-31G*
}

set_num_threads( 4 )
memory 2 gb

molecule MOL {
0 1

O	 2.865896	 1.351407	 0.117912
C	 2.843464	 0.164689	 -0.000222
C	 1.546494	 -0.624492	 -0.000609
C	 4.119323	 -0.636708	 -0.158656
C	 0.291004	 0.242674	 0.000989
H	 1.557904	 -1.283758	 -0.867573
H	 1.558622	 -1.285963	 0.864672
C	 -0.994322	 -0.586602	 0.000262
H	 0.309117	 0.896430	 -0.865270
H	 0.309661	 0.894078	 0.869017
C	 -2.259874	 0.272531	 0.000494
H	 -1.004862	 -1.240012	 -0.870939
H	 -1.005220	 -1.241071	 0.870675
C	 -3.549786	 -0.549746	 -0.000374
H	 -2.250389	 0.926680	 -0.869574
H	 -2.250838	 0.925513	 0.871430
C	 -4.809590	 0.315458	 -0.000369
H	 -3.560515	 -1.202009	 -0.871156
H	 -3.561123	 -1.202955	 0.869711
H	 -4.844746	 0.956611	 -0.876632
H	 -5.706986	 -0.295590	 -0.001609
H	 -4.845960	 0.954827	 0.877144
H	 4.105610	 -1.190302	 -1.092982
H	 4.971752	 0.028142	 -0.145497
H	 4.213014	 -1.362105	 0.644248

	symmetry c1
}
set optking {
	frozen_dihedral = ("
		1 2 3 6
	")
}

ee = optimize('scf')
oeprop('DIPOLE', 'QUADRUPOLE', 'MULLIKEN_CHARGES')
f=open( 'psi4out.xyz', 'w' )
f.write( "25  " )
f.write( str(ee) + "\n" )
f.write( MOL.save_string_xyz() )
f.close()
--------------------------------------------------------------------------

    Molecular point group: c1
  Charge       = 0
  Multiplicity = 1
  Basis Set: 6-31G*
  Basis Set:
  @DF-RHF Final Energy:  -387.13647325802475
    Total Energy =                       -387.1364732580243526
    Molecular point group: c1
  Basis Set: 6-31G*
  Basis Set:
  Basis Set: 6-31G*
  Basis Set:
  @DF-RHF Final Energy:  -387.13606067420034
    Total Energy =                       -387.1360606742003938
  Basis Set: 6-31G*
  Basis Set:
  Basis Set: 6-31G*
  Basis Set:
  @DF-RHF Final Energy:  -387.13650355976444
    Total Energy =                       -387.1365035597636961
  Basis Set: 6-31G*
  Basis Set:
  Basis Set: 6-31G*
  Basis Set:
  @DF-RHF Final Energy:  -387.13651336669813
    Total Energy =                       -387.1365133666977272
  Basis Set: 6-31G*
  Basis Set:
  Basis Set: 6-31G*
  Basis Set:
  @DF-RHF Final Energy:  -387.13652000198874
    Total Energy =                       -387.1365200019882877
  Basis Set: 6-31G*
  Basis Set:
  Basis Set: 6-31G*
  Basis Set:
  @DF-RHF Final Energy:  -387.13652278610186
    Total Energy =                       -387.1365227861014091
  Basis Set: 6-31G*
  Basis Set:
  Basis Set: 6-31G*
  Basis Set:
  @DF-RHF Final Energy:  -387.13652589930251
    Total Energy =                       -387.1365258993030238
  Basis Set: 6-31G*
  Basis Set:
  Charge       = 0
  Multiplicity = 1
  Basis Set: 6-31G*
  Basis Set:

    Orbital Energies (a.u.)
    -----------------------

    Doubly Occupied:

       1A    -20.550297     2A    -11.326311     3A    -11.231913
       4A    -11.228389     5A    -11.217201     6A    -11.216608
       7A    -11.215413     8A    -11.213572     9A    -11.208346
      10A     -1.395680    11A     -1.093684    12A     -1.056384
      13A     -1.014557    14A     -0.969289    15A     -0.890782
      16A     -0.814159    17A     -0.790866    18A     -0.729908
      19A     -0.661613    20A     -0.651769    21A     -0.631921
      22A     -0.623961    23A     -0.596042    24A     -0.584303
      25A     -0.566451    26A     -0.560059    27A     -0.540311
      28A     -0.526344    29A     -0.512760    30A     -0.489873
      31A     -0.487661    32A     -0.473228    33A     -0.463807
      34A     -0.462395    35A     -0.450830    36A     -0.399280

  @DF-RHF Final Energy:  -387.13652595334690

   => Energetics <=

    Nuclear Repulsion Energy =            438.3277137212556909
    One-Electron Energy =               -1393.2365439020259146
    Two-Electron Energy =                 567.7723042274230920
    DFT Exchange-Correlation Energy =       0.0000000000000000
    Empirical Dispersion Energy =           0.0000000000000000
    PCM Polarization Energy =               0.0000000000000000
    EFP Energy =                            0.0000000000000000
    Total Energy =                       -387.1365259533471317
    Molecular point group: c1
  Basis Set: 6-31G*
  Basis Set:

  -Total Gradient:
     Atom            X                  Y                   Z
    ------   -----------------  -----------------  -----------------
       1        0.000004536574    -0.000024850393     0.000178336813
       2        0.000006797253     0.000002721945    -0.000233447141
       3       -0.000088306481     0.000137671524    -0.000043280559
       4       -0.000000392544     0.000002559199     0.000006523597
       5        0.000000775853     0.000002221139    -0.000016315332
       6        0.000079089615    -0.000120760690     0.000095580035
       7       -0.000002224466     0.000000766917    -0.000000216185
       8        0.000001358068    -0.000000379769     0.000008959074
       9        0.000003919148    -0.000003119389     0.000001773553
      10       -0.000005532366     0.000004668948     0.000001809826
      11        0.000000204391     0.000000816746     0.000014854167
      12       -0.000000262941     0.000002090054    -0.000000156750
      13        0.000001113290    -0.000002006677     0.000000034589
      14        0.000000112252    -0.000000140174    -0.000016567284
      15       -0.000000264795    -0.000003556649     0.000002452796
      16       -0.000000139042     0.000003496260     0.000002261544
      17       -0.000000117628     0.000000171653     0.000006654834
      18        0.000001490187    -0.000001467435    -0.000002527863
      19       -0.000001490378     0.000001529106    -0.000002579099
      20       -0.000001694437    -0.000003945644    -0.000002348278
      21       -0.000000087186     0.000000056326     0.000004449112
      22        0.000001704109     0.000003812526    -0.000002610172
      23       -0.000001389003     0.000000983751    -0.000001456265
      24        0.000000894671    -0.000002418033    -0.000001761064
      25       -0.000000094143    -0.000000921242    -0.000000423951

  **** Optimization is complete! (in 8 steps) ****
    Final optimized geometry and variables:
    Molecular point group: c1

    Geometry (in Angstrom), charge = 0, multiplicity = 1:

    O            2.865287791342     1.353215971074     0.102230241679
    C            2.843606657163     0.165071332627    -0.000717369588
    C            1.546793241326    -0.624098224765    -0.000482331572
    C            4.120391377509    -0.638386671727    -0.138616887059
    C            0.290973164185     0.242558437219    -0.004724832718
    H            1.557454069884    -1.297034928225    -0.856449174320
    H            1.561159180917    -1.272319291476     0.875289421946
    C           -0.994132450035    -0.586947090078     0.008342412607
    H            0.305249990808     0.886029437673    -0.879278837530
    H            0.313181450156     0.904055190478     0.855011896884
    C           -2.259899564352     0.271880145405     0.004590420467
    H           -1.008203564239    -1.249917986030    -0.855556118720
    H           -1.001081005272    -1.231752535274     0.885971576701
    C           -3.549593933368    -0.550635983931     0.017809560982
    H           -2.254238039535     0.916635767817    -0.872507759367
    H           -2.247368068068     0.934176909291     0.868396765052
    C           -4.809600601163     0.314262755972     0.013841930652
    H           -3.563785188222    -1.212228032587    -0.845877300923
    H           -3.557141928233    -1.194453315548     0.894886851918
    H           -4.849458206256     0.944735176424    -0.869936572825
    H           -5.706815796571    -0.296937209722     0.024643638904
    H           -4.841595644043     0.964205830456     0.883713309538
    H            4.164632602100    -1.094637785406    -1.123714096209
    H            4.975938681547     0.009484195595    -0.007540686113
    H            4.153472607728    -1.442043681861     0.590650983463

  Mulliken Charges: (a.u.)
   Center  Symbol    Alpha    Beta     Spin     Total
       1     O     4.26138  4.26138  0.00000 -0.52275
       2     C     2.73538  2.73538  0.00000  0.52924
       3     C     3.21113  3.21113  0.00000 -0.42225
       4     C     3.28673  3.28673  0.00000 -0.57345
       5     C     3.14823  3.14823  0.00000 -0.29645
       6     H     0.41108  0.41108  0.00000  0.17784
       7     H     0.40874  0.40874  0.00000  0.18252
       8     C     3.15389  3.15389  0.00000 -0.30779
       9     H     0.41378  0.41378  0.00000  0.17243
      10     H     0.41042  0.41042  0.00000  0.17916
      11     C     3.15074  3.15074  0.00000 -0.30149
      12     H     0.42497  0.42497  0.00000  0.15006
      13     H     0.42471  0.42471  0.00000  0.15058
      14     C     3.15151  3.15151  0.00000 -0.30302
      15     H     0.42260  0.42260  0.00000  0.15481
      16     H     0.42228  0.42228  0.00000  0.15544
      17     C     3.23933  3.23933  0.00000 -0.47867
      18     H     0.42358  0.42358  0.00000  0.15284
      19     H     0.42348  0.42348  0.00000  0.15304
      20     H     0.42141  0.42141  0.00000  0.15717
      21     H     0.41952  0.41952  0.00000  0.16095
      22     H     0.42132  0.42132  0.00000  0.15737
      23     H     0.40728  0.40728  0.00000  0.18544
      24     H     0.39654  0.39654  0.00000  0.20692
      25     H     0.40997  0.40997  0.00000  0.18005

   Total alpha = 36.00000, Total beta = 36.00000, Total charge = -0.00000
