  ==> Input File <==

--------------------------------------------------------------------------
set {
	reference rhf
	basis cc-pvtz
}

set_num_threads( 4 )
memory 2 gb

molecule MOL {
0 1

H	 -0.060893	 -3.688811	 -0.506645
O	 0.265757	 -2.825195	 -0.303660
C	 -0.756674	 -1.974831	 -0.315385
C	 -0.318151	 -0.570512	 0.000144
O	 -1.861974	 -2.322766	 -0.550379
C	 -1.454884	 0.441630	 -0.000560
H	 0.182428	 -0.600133	 0.962658
H	 0.446897	 -0.304253	 -0.722149
C	 -2.822577	 -0.232186	 0.000063
H	 -1.359760	 1.084704	 -0.867077
H	 -1.359641	 1.085996	 0.864983
H	 -2.954352	 -0.858985	 -0.875745
H	 -3.615886	 0.505352	 0.000019
H	 -2.953878	 -0.858359	 0.876394

	symmetry c1
}
set optking {
	frozen_dihedral = ("
		7 4 6 10
	")
}

ee = optimize('scf')
oeprop('DIPOLE', 'QUADRUPOLE', 'MULLIKEN_CHARGES')
f=open( 'psi4out.xyz', 'w' )
f.write( "14  " )
f.write( str(ee) + "\n" )
f.write( MOL.save_string_xyz() )
f.close()
--------------------------------------------------------------------------

    Molecular point group: c1
  Charge       = 0
  Multiplicity = 1
  Basis Set: CC-PVTZ
  Basis Set:
  @DF-RHF Final Energy:  -305.96604314183088
    Total Energy =                       -305.9660431418310509
    Molecular point group: c1
  Basis Set: CC-PVTZ
  Basis Set:
  Basis Set: CC-PVTZ
  Basis Set:
  @DF-RHF Final Energy:  -305.98420786049223
    Total Energy =                       -305.9842078604920630
  Basis Set: CC-PVTZ
  Basis Set:
  Basis Set: CC-PVTZ
  Basis Set:
  @DF-RHF Final Energy:  -305.98788229055793
    Total Energy =                       -305.9878822905577636
  Basis Set: CC-PVTZ
  Basis Set:
  Basis Set: CC-PVTZ
  Basis Set:
  @DF-RHF Final Energy:  -305.98712737216715
    Total Energy =                       -305.9871273721668672
  Basis Set: CC-PVTZ
  Basis Set:
  @DF-RHF Final Energy:  -305.98998779129408
    Total Energy =                       -305.9899877912942543
  @DF-RHF Final Energy:  -305.99034407692943
    Total Energy =                       -305.9903440769294320
  @DF-RHF Final Energy:  -305.99048984578224
    Total Energy =                       -305.9904898457820082
  @DF-RHF Final Energy:  -305.99085654339098
    Total Energy =                       -305.9908565433910326
  @DF-RHF Final Energy:  -305.99127096517930
    Total Energy =                       -305.9912709651791829
  @DF-RHF Final Energy:  -305.99148824045494
    Total Energy =                       -305.9914882404551690
  @DF-RHF Final Energy:  -305.99163301863109
    Total Energy =                       -305.9916330186306368
  @DF-RHF Final Energy:  -305.99169849358998
    Total Energy =                       -305.9916984935900359
  @DF-RHF Final Energy:  -305.99172466068001
    Total Energy =                       -305.9917246606802337
  @DF-RHF Final Energy:  -305.99178150056099
    Total Energy =                       -305.9917815005610464
  @DF-RHF Final Energy:  -305.99184522836708
    Total Energy =                       -305.9918452283668557
  @DF-RHF Final Energy:  -305.99189954747339
    Total Energy =                       -305.9918995474733947
  @DF-RHF Final Energy:  -305.99196670668437
    Total Energy =                       -305.9919667066845932
  @DF-RHF Final Energy:  -305.99017612133122
    Total Energy =                       -305.9901761213312739
  @DF-RHF Final Energy:  -305.99201569195861
    Total Energy =                       -305.9920156919588408
  @DF-RHF Final Energy:  -305.99208636498571
    Total Energy =                       -305.9920863649859371
  @DF-RHF Final Energy:  -305.99215219824862
    Total Energy =                       -305.9921521982487320
  Basis Set: CC-PVTZ
  Basis Set:
  @DF-RHF Final Energy:  -305.99218420224338
    Total Energy =                       -305.9921842022431520
  Basis Set: CC-PVTZ
  Basis Set:
  Basis Set: CC-PVTZ
  Basis Set:
  @DF-RHF Final Energy:  -305.99219298665196
    Total Energy =                       -305.9921929866520713
  Basis Set: CC-PVTZ
  Basis Set:
  Basis Set: CC-PVTZ
  Basis Set:
  @DF-RHF Final Energy:  -305.99219483061097
    Total Energy =                       -305.9921948306110835
  Basis Set: CC-PVTZ
  Basis Set:
  Charge       = 0
  Multiplicity = 1
  Basis Set: CC-PVTZ
  Basis Set:

    Orbital Energies (a.u.)
    -----------------------

    Doubly Occupied:

       1A    -20.605748     2A    -20.538267     3A    -11.373386
       4A    -11.237857     5A    -11.234648     6A    -11.215031
       7A     -1.477862     8A     -1.368051     9A     -1.081374
      10A     -0.978153    11A     -0.866750    12A     -0.797756
      13A     -0.706054    14A     -0.682459    15A     -0.653747
      16A     -0.631990    17A     -0.590070    18A     -0.574019
      19A     -0.559700    20A     -0.509425    21A     -0.498854
      22A     -0.481898    23A     -0.474995    24A     -0.441784

  @DF-RHF Final Energy:  -305.99219575491111

   => Energetics <=

    Nuclear Repulsion Energy =            247.0220315297917466
    One-Electron Energy =                -906.8686955225552992
    Two-Electron Energy =                 353.8544682378523589
    DFT Exchange-Correlation Energy =       0.0000000000000000
    Empirical Dispersion Energy =           0.0000000000000000
    PCM Polarization Energy =               0.0000000000000000
    EFP Energy =                            0.0000000000000000
    Total Energy =                       -305.9921957549111653
    Molecular point group: c1
  Basis Set: CC-PVTZ
  Basis Set:

  -Total Gradient:
     Atom            X                  Y                   Z
    ------   -----------------  -----------------  -----------------
       1       -0.000017264140     0.000036083587     0.000012702124
       2       -0.000017681585    -0.000116302252     0.000060457108
       3        0.000113608530    -0.000004270039    -0.000130858412
       4       -0.001878123082    -0.003196975802     0.002062375123
       5       -0.000032666779    -0.000020736745     0.000020345453
       6       -0.002254403881    -0.002539725866    -0.002786114387
       7        0.001975088944     0.003081311479    -0.001307588208
       8       -0.000037983919    -0.000013245753     0.000021855146
       9        0.000004089401     0.000116366502     0.000097903548
      10        0.002194705520     0.002660856232     0.001986696858
      11       -0.000024455755     0.000059437500    -0.000007126364
      12       -0.000012394175    -0.000035776493    -0.000016847105
      13       -0.000034344202    -0.000013214625     0.000002438180
      14        0.000021825123    -0.000013807733    -0.000016239065

  **** Optimization is complete! (in 25 steps) ****
    Final optimized geometry and variables:
    Molecular point group: c1

    Geometry (in Angstrom), charge = 0, multiplicity = 1:

    H            0.300057856637    -2.344991549869     0.405173033054
    O            0.514915788947    -1.484314933743     0.733134982373
    C            0.533344279255    -0.638810491041    -0.292188525934
    C            0.838803998250     0.776661968115     0.116965072749
    O            0.318796075122    -0.992357258141    -1.400914090734
    C           -0.418626173440     1.669435839870     0.306041794114
    H            1.436842025230     0.774367274838     1.016490972388
    H            1.449965019863     1.190243347972    -0.672616262766
    C           -1.745424417825     0.942549203627     0.502992341319
    H           -0.489761426813     2.350871931018    -0.531835559182
    H           -0.238252758360     2.298324790858     1.170056102441
    H           -2.007322042203     0.347824068123    -0.363544836914
    H           -2.540278951653     1.661037906186     0.662248730859
    H           -1.713816831105     0.287074834178     1.365491653763

  Mulliken Charges: (a.u.)
   Center  Symbol    Alpha    Beta     Spin     Total
       1     H     0.38024  0.38024  0.00000  0.23951
       2     O     4.16519  4.16519  0.00000 -0.33039
       3     C     2.79290  2.79290  0.00000  0.41420
       4     C     3.10016  3.10016  0.00000 -0.20033
       5     O     4.20116  4.20116  0.00000 -0.40232
       6     C     3.08529  3.08529  0.00000 -0.17059
       7     H     0.44021  0.44021  0.00000  0.11957
       8     H     0.43733  0.43733  0.00000  0.12533
       9     C     3.15905  3.15905  0.00000 -0.31810
      10     H     0.44707  0.44707  0.00000  0.10586
      11     H     0.45005  0.45005  0.00000  0.09990
      12     H     0.44643  0.44643  0.00000  0.10713
      13     H     0.44617  0.44617  0.00000  0.10766
      14     H     0.44873  0.44873  0.00000  0.10254

   Total alpha = 24.00000, Total beta = 24.00000, Total charge =  0.00000
