                              Psi4 1.0.54 Driver

  ==> Input File <==

--------------------------------------------------------------------------
set {
	reference rhf
	basis cc-pvtz
}

set_num_threads( 4 )
memory 2 gb

molecule MOL {
0 1

H	 1.097439	 2.844206	 -2.318902
O	 0.464060	 2.493891	 -1.720433
C	 1.074195	 1.569096	 -0.857586
C	 0.027642	 1.012027	 0.090274
H	 1.856693	 2.052063	 -0.277753
H	 1.539265	 0.769028	 -1.426852
C	 -1.138737	 0.285728	 -0.581921
H	 -0.362565	 1.835448	 0.679531
H	 0.528300	 0.339511	 0.782573
C	 -1.933983	 -0.631436	 0.343653
H	 -0.763151	 -0.285569	 -1.422081
H	 -1.808359	 1.035291	 -0.992333
H	 -2.789188	 -1.049673	 -0.174718
H	 -1.335629	 -1.461368	 0.700418
H	 -2.305435	 -0.092167	 1.209725

	symmetry c1
}
set optking {
	frozen_dihedral = ("
		8 4 7 11
	")
}

ee,wfn = optimize('scf', return_wfn=True)
oeprop( wfn, 'DIPOLE', 'QUADRUPOLE', 'MULLIKEN_CHARGES')
f=open( 'psi4out.xyz', 'w' )
f.write( "15  " )
f.write( str(ee) + "\n" )
f.write( MOL.save_string_xyz() )
f.close()
--------------------------------------------------------------------------

    Molecular point group: c1
  Charge       = 0
  Multiplicity = 1
  Basis Set: CC-PVTZ
  Basis Set:
  @DF-RHF Final Energy:  -232.23743277284828
    Total Energy =                       -232.2374327728481376
    Molecular point group: c1
  Basis Set: CC-PVTZ
  Basis Set:
  Basis Set: CC-PVTZ
  Basis Set:
  @DF-RHF Final Energy:  -232.23785305472475
    Total Energy =                       -232.2378530547247237
  Basis Set: CC-PVTZ
  Basis Set:
  Basis Set: CC-PVTZ
  Basis Set:
  @DF-RHF Final Energy:  -232.23789319636859
    Total Energy =                       -232.2378931963686455
  Basis Set: CC-PVTZ
  Basis Set:
  Basis Set: CC-PVTZ
  Basis Set:
  @DF-RHF Final Energy:  -232.23789442209488
    Total Energy =                       -232.2378944220947687
  Basis Set: CC-PVTZ
  Basis Set:
  Charge       = 0
  Multiplicity = 1
  Basis Set: CC-PVTZ
  Basis Set:

    Orbital Energies (a.u.)
    -----------------------

    Doubly Occupied:

       1A    -20.546210     2A    -11.265808     3A    -11.210614
       4A    -11.207496     5A    -11.203645     6A     -1.364194
       7A     -1.065820     8A     -0.975304     9A     -0.857416
      10A     -0.787368    11A     -0.707360    12A     -0.644066
      13A     -0.607077    14A     -0.591845    15A     -0.548858
      16A     -0.535533    17A     -0.510920    18A     -0.476664
      19A     -0.467014    20A     -0.456166    21A     -0.433116

  @DF-RHF Final Energy:  -232.23789451538366

   => Energetics <=

    Nuclear Repulsion Energy =            188.8484825229392357
    One-Electron Energy =                -689.2477702599046552
    Two-Electron Energy =                 268.1613932215816476
    DFT Exchange-Correlation Energy =       0.0000000000000000
    Empirical Dispersion Energy =           0.0000000000000000
    PCM Polarization Energy =               0.0000000000000000
    EFP Energy =                            0.0000000000000000
    Total Energy =                       -232.2378945153838004
    Molecular point group: c1
  Basis Set: CC-PVTZ
  Basis Set:

  -Total Gradient:
     Atom            X                  Y                   Z
    ------   -----------------  -----------------  -----------------
       1       -0.000000075366     0.000002805695     0.000001301641
       2       -0.000004146896     0.000006232982    -0.000006226720
       3        0.000022710908    -0.000012613480    -0.000004072556
       4       -0.000517951731    -0.001817470627     0.002692422690
       5       -0.000006487653    -0.000004485506    -0.000004496063
       6        0.000002932008     0.000003745026     0.000000463343
       7        0.000579372117    -0.002675718962     0.001796980055
       8        0.000325726816     0.001951568040    -0.002536964192
       9       -0.000003826539     0.000003819774    -0.000001914747
      10        0.000000765199    -0.000013093950    -0.000005112381
      11       -0.000403942640     0.002537473944    -0.001933933997
      12       -0.000001391745     0.000006048981     0.000001565155
      13        0.000012581668     0.000003920258     0.000004327351
      14       -0.000004078478     0.000003805913    -0.000002237878
      15       -0.000002187666     0.000003961914    -0.000002101701

  **** Optimization is complete! (in 5 steps) ****
    Final optimized geometry and variables:
    Molecular point group: c1

    Geometry (in Angstrom), charge = 0, multiplicity = 1:

    H            1.349934881492     1.877072703827    -1.720574335092
    O            0.729958133131     1.534304629167    -1.104097685053
    C            1.343051315952     0.573280501563    -0.284442424608
    C            0.309280933917     0.011593938808     0.672846101069
    H            2.157234489210     1.021625884553     0.279624376575
    H            1.762618831739    -0.228860843516    -0.888427193629
    C           -0.847223465967    -0.703672041084    -0.026972372518
    H           -0.075283051316     0.839696096796     1.260208279815
    H            0.815532978502    -0.667826142069     1.352887746835
    C           -1.649964547835    -1.599902700139     0.908438542684
    H           -0.463754868623    -1.279674116438    -0.864866703420
    H           -1.501479451537     0.039402035103    -0.467322516672
    H           -2.482441457033    -2.062301747937     0.390650945737
    H           -1.033816610910    -2.392839874054     1.319780309684
    H           -2.053958188293    -1.032551837727     1.740747861531

  Mulliken Charges: (a.u.)
   Center  Symbol    Alpha    Beta     Spin     Total
       1     H     0.39588  0.39588  0.00000  0.20823
       2     O     4.19931  4.19931  0.00000 -0.39862
       3     C     2.97255  2.97255  0.00000  0.05490
       4     C     3.08871  3.08871  0.00000 -0.17742
       5     H     0.46643  0.46643  0.00000  0.06713
       6     H     0.47441  0.47441  0.00000  0.05119
       7     C     3.08106  3.08106  0.00000 -0.16212
       8     H     0.45165  0.45165  0.00000  0.09670
       9     H     0.45559  0.45559  0.00000  0.08883
      10     C     3.14921  3.14921  0.00000 -0.29842
      11     H     0.45824  0.45824  0.00000  0.08352
      12     H     0.44572  0.44572  0.00000  0.10856
      13     H     0.44896  0.44896  0.00000  0.10208
      14     H     0.45736  0.45736  0.00000  0.08529
      15     H     0.45492  0.45492  0.00000  0.09015

   Total alpha = 21.00000, Total beta = 21.00000, Total charge =  0.00000

*** Psi4 exiting successfully. Buy a developer a beer!
