  ==> Input File <==

--------------------------------------------------------------------------
set {
	reference rhf
	basis 6-31G*
}

set_num_threads( 1 )
memory 2 gb

molecule MOL {
0 1

O	 3.855471	 -0.274617	 -0.453666
C	 2.843464	 0.164689	 -0.000222
C	 1.546494	 -0.624492	 -0.000609
C	 2.788372	 1.550251	 0.609974
C	 0.291004	 0.242674	 0.000989
H	 1.557904	 -1.283758	 -0.867573
H	 1.558622	 -1.285963	 0.864672
C	 -0.994322	 -0.586602	 0.000262
H	 0.309117	 0.896430	 -0.865270
H	 0.309661	 0.894078	 0.869017
C	 -2.259874	 0.272531	 0.000494
H	 -1.004862	 -1.240012	 -0.870939
H	 -1.005220	 -1.241071	 0.870675
C	 -3.549786	 -0.549746	 -0.000374
H	 -2.250389	 0.926680	 -0.869574
H	 -2.250838	 0.925513	 0.871430
C	 -4.809590	 0.315458	 -0.000369
H	 -3.560515	 -1.202009	 -0.871156
H	 -3.561123	 -1.202955	 0.869711
H	 -4.844746	 0.956611	 -0.876632
H	 -5.706986	 -0.295590	 -0.001609
H	 -4.845960	 0.954827	 0.877144
H	 2.470676	 1.495269	 1.647116
H	 3.764423	 2.011969	 0.555433
H	 2.065667	 2.167202	 0.083948

	symmetry c1
}
set optking {
	frozen_dihedral = ("
		9 5 8 12,
		15 11 8 12,
		15 11 14 18,
		9 5 3 6
	")
}

ee = energy('scf')
oeprop('DIPOLE', 'QUADRUPOLE', 'MULLIKEN_CHARGES')
f=open( 'psi4out.xyz', 'w' )
f.write( "25  " )
f.write( str(ee) + "\n" )
f.write( MOL.save_string_xyz() )
f.close()
--------------------------------------------------------------------------

    Molecular point group: c1

    Geometry (in Angstrom), charge = 0, multiplicity = 1:

       Center              X                  Y                   Z               Mass
    ------------   -----------------  -----------------  -----------------  -----------------
           O          3.895983596940    -0.341188208502    -0.472161730825    15.994914619560
           C          2.883976596940     0.098117791498    -0.018717730825    12.000000000000
           C          1.587006596940    -0.691063208502    -0.019104730825    12.000000000000
           C          2.828884596940     1.483679791498     0.591478269175    12.000000000000
           C          0.331516596940     0.176102791498    -0.017506730825    12.000000000000
           H          1.598416596940    -1.350329208502    -0.886068730825     1.007825032070
           H          1.599134596940    -1.352534208502     0.846176269175     1.007825032070
           C         -0.953809403060    -0.653173208502    -0.018233730825    12.000000000000
           H          0.349629596940     0.829858791498    -0.883765730825     1.007825032070
           H          0.350173596940     0.827506791498     0.850521269175     1.007825032070
           C         -2.219361403060     0.205959791498    -0.018001730825    12.000000000000
           H         -0.964349403060    -1.306583208502    -0.889434730825     1.007825032070
           H         -0.964707403060    -1.307642208502     0.852179269175     1.007825032070
           C         -3.509273403060    -0.616317208502    -0.018869730825    12.000000000000
           H         -2.209876403060     0.860108791498    -0.888069730825     1.007825032070
           H         -2.210325403060     0.858941791498     0.852934269175     1.007825032070
           C         -4.769077403060     0.248886791498    -0.018864730825    12.000000000000
           H         -3.520002403060    -1.268580208502    -0.889651730825     1.007825032070
           H         -3.520610403060    -1.269526208502     0.851215269175     1.007825032070
           H         -4.804233403060     0.890039791498    -0.895127730825     1.007825032070
           H         -5.666473403060    -0.362161208502    -0.020104730825     1.007825032070
           H         -4.805447403060     0.888255791498     0.858648269175     1.007825032070
           H          2.511188596940     1.428697791498     1.628620269175     1.007825032070
           H          3.804935596940     1.945397791498     0.536937269175     1.007825032070
           H          2.106179596940     2.100630791498     0.065452269175     1.007825032070

  Charge       = 0
  Multiplicity = 1
  Basis Set: 6-31G*
  Basis Set:

    Orbital Energies (a.u.)
    -----------------------

    Doubly Occupied:

       1A    -20.547313     2A    -11.325252     3A    -11.231006
       4A    -11.230363     5A    -11.226044     6A    -11.224809
       7A    -11.220934     8A    -11.220292     9A    -11.212878
      10A     -1.392773    11A     -1.104026    12A     -1.064046
      13A     -1.010167    14A     -0.970107    15A     -0.898415
      16A     -0.823336    17A     -0.798146    18A     -0.731724
      19A     -0.668945    20A     -0.650314    21A     -0.636412
      22A     -0.623890    23A     -0.598369    24A     -0.590143
      25A     -0.563768    26A     -0.558564    27A     -0.546808
      28A     -0.533156    29A     -0.521109    30A     -0.499752
      31A     -0.490072    32A     -0.473172    33A     -0.470015
      34A     -0.469092    35A     -0.459258    36A     -0.395600

  @DF-RHF Final Energy:  -387.13108542997520

   => Energetics <=

    Nuclear Repulsion Energy =            440.5619317892118261
    One-Electron Energy =               -1397.4259201653187574
    Two-Electron Energy =                 569.7329029461318441
    DFT Exchange-Correlation Energy =       0.0000000000000000
    Empirical Dispersion Energy =           0.0000000000000000
    PCM Polarization Energy =               0.0000000000000000
    EFP Energy =                            0.0000000000000000
    Total Energy =                       -387.1310854299750872

  Mulliken Charges: (a.u.)
   Center  Symbol    Alpha    Beta     Spin     Total
       1     O     4.26312  4.26312  0.00000 -0.52624
       2     C     2.72955  2.72955  0.00000  0.54090
       3     C     3.20730  3.20730  0.00000 -0.41460
       4     C     3.29607  3.29607  0.00000 -0.59215
       5     C     3.16662  3.16662  0.00000 -0.33323
       6     H     0.39974  0.39974  0.00000  0.20053
       7     H     0.40397  0.40397  0.00000  0.19206
       8     C     3.15178  3.15178  0.00000 -0.30356
       9     H     0.41725  0.41725  0.00000  0.16550
      10     H     0.41760  0.41760  0.00000  0.16479
      11     C     3.15114  3.15114  0.00000 -0.30227
      12     H     0.42010  0.42010  0.00000  0.15980
      13     H     0.42174  0.42174  0.00000  0.15653
      14     C     3.15201  3.15201  0.00000 -0.30402
      15     H     0.42303  0.42303  0.00000  0.15394
      16     H     0.42369  0.42369  0.00000  0.15261
      17     C     3.23957  3.23957  0.00000 -0.47914
      18     H     0.42205  0.42205  0.00000  0.15591
      19     H     0.42252  0.42252  0.00000  0.15496
      20     H     0.42131  0.42131  0.00000  0.15738
      21     H     0.41829  0.41829  0.00000  0.16342
      22     H     0.42159  0.42159  0.00000  0.15681
      23     H     0.40842  0.40842  0.00000  0.18316
      24     H     0.39600  0.39600  0.00000  0.20799
      25     H     0.40554  0.40554  0.00000  0.18893

   Total alpha = 36.00000, Total beta = 36.00000, Total charge =  0.00000
