  ==> Input File <==

--------------------------------------------------------------------------
set {
	reference rhf
	basis 6-31G*
}

set_num_threads( 4 )
memory 2 gb

molecule MOL {
0 1

H	 3.302195	 -0.416198	 -0.013499
C	 2.241793	 -0.237422	 -0.010597
C	 1.409818	 -1.034133	 0.766531
C	 1.713983	 0.785123	 -0.781179
H	 1.827067	 -1.825889	 1.361974
C	 0.047555	 -0.807272	 0.772580
H	 2.360658	 1.399319	 -1.381030
C	 0.347169	 1.011700	 -0.774247
H	 -0.612457	 -1.411590	 1.366159
C	 -0.488460	 0.219100	 0.000000
H	 -0.069089	 1.805042	 -1.371143
C	 -1.949954	 0.470334	 0.000000
O	 -2.781584	 -0.381627	 0.000000
H	 -2.238022	 1.526388	 0.000000

	symmetry c1
}
set optking {
	frozen_dihedral = ("
		8 10 12 14
	")
}

ee = optimize('scf')
oeprop('DIPOLE', 'QUADRUPOLE', 'MULLIKEN_CHARGES')
f=open( 'psi4out.xyz', 'w' )
f.write( "14  " )
f.write( str(ee) + "\n" )
f.write( MOL.save_string_xyz() )
f.close()
--------------------------------------------------------------------------

    Molecular point group: c1
  Charge       = 0
  Multiplicity = 1
  Basis Set: 6-31G*
  Basis Set:
  @DF-RHF Final Energy:  -343.42732524983529
    Total Energy =                       -343.4273252498356328
    Molecular point group: c1
  Basis Set: 6-31G*
  Basis Set:
  Basis Set: 6-31G*
  Basis Set:
  @DF-RHF Final Energy:  -343.42512165896716
    Total Energy =                       -343.4251216589671571
  Basis Set: 6-31G*
  Basis Set:
  Basis Set: 6-31G*
  Basis Set:
  @DF-RHF Final Energy:  -343.42802010119232
    Total Energy =                       -343.4280201011923168
  Basis Set: 6-31G*
  Basis Set:
  Basis Set: 6-31G*
  Basis Set:
  @DF-RHF Final Energy:  -343.42809145794138
    Total Energy =                       -343.4280914579412638
  Basis Set: 6-31G*
  Basis Set:
  Basis Set: 6-31G*
  Basis Set:
  @DF-RHF Final Energy:  -343.42809245794166
    Total Energy =                       -343.4280924579417160
  Basis Set: 6-31G*
  Basis Set:
  Charge       = 0
  Multiplicity = 1
  Basis Set: 6-31G*
  Basis Set:

    Orbital Energies (a.u.)
    -----------------------

    Doubly Occupied:

       1A    -20.565367     2A    -11.332575     3A    -11.252448
       4A    -11.248671     5A    -11.247774     6A    -11.246515
       7A    -11.244500     8A    -11.242756     9A     -1.405399
      10A     -1.170217    11A     -1.046113    12A     -1.030508
      13A     -0.888374    14A     -0.842630    15A     -0.792000
      16A     -0.720710    17A     -0.676938    18A     -0.651748
      19A     -0.624459    20A     -0.617425    21A     -0.601966
      22A     -0.546393    23A     -0.526307    24A     -0.506259
      25A     -0.502404    26A     -0.422071    27A     -0.348577
      28A     -0.346243

  @DF-RHF Final Energy:  -343.42809268911276

   => Energetics <=

    Nuclear Repulsion Energy =            323.1495815448446365
    One-Electron Energy =               -1105.8606551095444956
    Two-Electron Energy =                 439.2829808755872136
    DFT Exchange-Correlation Energy =       0.0000000000000000
    Empirical Dispersion Energy =           0.0000000000000000
    PCM Polarization Energy =               0.0000000000000000
    EFP Energy =                            0.0000000000000000
    Total Energy =                       -343.4280926891126455
    Molecular point group: c1
  Basis Set: 6-31G*
  Basis Set:

  -Total Gradient:
     Atom            X                  Y                   Z
    ------   -----------------  -----------------  -----------------
       1        0.000001083158    -0.000000755118     0.000000362559
       2       -0.000001380877    -0.000002245787    -0.000005025076
       3        0.000003356627     0.000009239340     0.000004695516
       4        0.000005986897    -0.000006738502     0.000000924903
       5        0.000002134296     0.000001950489    -0.000001578258
       6        0.000008856424     0.000014590909     0.000012179952
       7        0.000002028279    -0.000000963485     0.000002385172
       8       -0.000407620619    -0.003737211350    -0.004154587215
       9       -0.000000008874     0.000005005396     0.000004823767
      10        0.000541503461     0.005533540741     0.008245288879
      11       -0.000001155793     0.000002439128     0.000003424270
      12        0.000062740917    -0.002113437923    -0.010985891883
      13       -0.000018084667     0.000018468916     0.000001949040
      14       -0.000199439229     0.000276117245     0.006871048372

  **** Optimization is complete! (in 6 steps) ****
    Final optimized geometry and variables:
    Molecular point group: c1

    Geometry (in Angstrom), charge = 0, multiplicity = 1:

    H            3.296566226659    -0.433080677553    -0.030856542364
    C            2.238106309546    -0.243626227724    -0.021147641328
    C            1.401924510274    -1.032579579501     0.757156652212
    C            1.714130714703     0.783212595892    -0.789082053457
    H            1.812484340620    -1.832046476643     1.346973655705
    C            0.039499176746    -0.798720331971     0.762602428176
    H            2.361176843600     1.384895365604    -1.401224350917
    C            0.351615556274     1.032568125612    -0.764783285015
    H           -0.622577162083    -1.417817693356     1.338887148070
    C           -0.486868437082     0.252064956127     0.019181136483
    H           -0.057796003833     1.835067891922    -1.354475087840
    C           -1.958618889797     0.465497983344    -0.029019857646
    O           -2.759540147814    -0.409834332527     0.060256228335
    H           -2.283971159041     1.509050959258    -0.080568211441

  Mulliken Charges: (a.u.)
   Center  Symbol    Alpha    Beta     Spin     Total
       1     H     0.39472  0.39472  0.00000  0.21056
       2     C     3.09311  3.09311  0.00000 -0.18623
       3     C     3.10327  3.10327  0.00000 -0.20654
       4     C     3.10246  3.10246  0.00000 -0.20492
       5     H     0.39435  0.39435  0.00000  0.21131
       6     C     3.08993  3.08993  0.00000 -0.17986
       7     H     0.39502  0.39502  0.00000  0.20995
       8     C     3.10251  3.10251  0.00000 -0.20502
       9     H     0.38158  0.38158  0.00000  0.23683
      10     C     3.04623  3.04623  0.00000 -0.09246
      11     H     0.39362  0.39362  0.00000  0.21275
      12     C     2.84091  2.84091  0.00000  0.31819
      13     O     4.23854  4.23854  0.00000 -0.47708
      14     H     0.42374  0.42374  0.00000  0.15251

   Total alpha = 28.00000, Total beta = 28.00000, Total charge =  0.00000
