  ==> Input File <==

--------------------------------------------------------------------------
set {
	reference rhf
	basis 6-31G*
}

set_num_threads( 4 )
memory 2 gb

molecule MOL {
0 1

H	 -1.044885	 6.053676	 4.186817
C	 -1.863692	 5.342285	 4.142098
C	 -1.711215	 4.398832	 2.949695
H	 -1.873206	 4.789755	 5.076957
H	 -2.789929	 5.907288	 4.081648
C	 -2.854226	 3.385925	 2.852963
H	 -0.766151	 3.871370	 3.028683
H	 -1.669887	 4.983272	 2.031864
C	 -2.738377	 2.439231	 1.658134
H	 -2.898648	 2.799585	 3.763938
H	 -3.797718	 3.921377	 2.774512
C	 -1.624063	 1.410241	 1.779483
H	 -3.665312	 1.879835	 1.541352
H	 -2.612434	 2.995774	 0.732080
C	 -1.181045	 0.701995	 0.511084
O	 -1.124233	 1.150470	 2.832619
C	 -2.285934	 -0.139295	 -0.145128
H	 -0.339612	 0.073377	 0.776686
H	 -0.828726	 1.449419	 -0.197374
C	 -3.651768	 0.085446	 0.506485
H	 -2.346596	 0.110469	 -1.202272
H	 -2.034737	 -1.195320	 -0.088721
C	 -4.759797	 -0.746382	 -0.137905
H	 -3.908762	 1.140117	 0.445781
H	 -3.588286	 -0.154158	 1.565709
H	 -4.868882	 -0.505166	 -1.191300
H	 -4.548009	 -1.809175	 -0.062213
H	 -5.715422	 -0.564821	 0.343442

	symmetry c1
}
set optking {
	frozen_dihedral = ("
		12 15 17 21
	")
}

ee = optimize('scf')
oeprop('DIPOLE', 'QUADRUPOLE', 'MULLIKEN_CHARGES')
f=open( 'psi4out.xyz', 'w' )
f.write( "28  " )
f.write( str(ee) + "\n" )
f.write( MOL.save_string_xyz() )
f.close()
--------------------------------------------------------------------------

    Molecular point group: c1
  Charge       = 0
  Multiplicity = 1
  Basis Set: 6-31G*
  Basis Set:
  @DF-RHF Final Energy:  -426.12661043606715
    Total Energy =                       -426.1266104360677218
    Molecular point group: c1
  Basis Set: 6-31G*
  Basis Set:
  Basis Set: 6-31G*
  Basis Set:
  @DF-RHF Final Energy:  -426.14982242849646
    Total Energy =                       -426.1498224284966909
  Basis Set: 6-31G*
  Basis Set:
  Basis Set: 6-31G*
  Basis Set:
  @DF-RHF Final Energy:  -426.15490766330890
    Total Energy =                       -426.1549076633087907
  Basis Set: 6-31G*
  Basis Set:
  Basis Set: 6-31G*
  Basis Set:
  @DF-RHF Final Energy:  -426.15550160021519
    Total Energy =                       -426.1555016002157572
  Basis Set: 6-31G*
  Basis Set:
  @DF-RHF Final Energy:  -426.15747484557232
    Total Energy =                       -426.1574748455725512
  @DF-RHF Final Energy:  -426.15828137356084
    Total Energy =                       -426.1582813735610671
  @DF-RHF Final Energy:  -426.15874323482819
    Total Energy =                       -426.1587432348279663
  @DF-RHF Final Energy:  -426.15904414478325
    Total Energy =                       -426.1590441447829107
  @DF-RHF Final Energy:  -426.15932359501437
    Total Energy =                       -426.1593235950142571
  @DF-RHF Final Energy:  -426.15964237321089
    Total Energy =                       -426.1596423732105450
  @DF-RHF Final Energy:  -426.16028374658811
    Total Energy =                       -426.1602837465881066
  @DF-RHF Final Energy:  -426.16055271148139
    Total Energy =                       -426.1605527114813867
  @DF-RHF Final Energy:  -426.16079930721844
    Total Energy =                       -426.1607993072179852
  @DF-RHF Final Energy:  -426.16083093573639
    Total Energy =                       -426.1608309357363851
  @DF-RHF Final Energy:  -426.16085138914605
    Total Energy =                       -426.1608513891460461
  @DF-RHF Final Energy:  -426.16086033465024
    Total Energy =                       -426.1608603346498967
  Basis Set: 6-31G*
  Basis Set:
  @DF-RHF Final Energy:  -426.16086788756297
    Total Energy =                       -426.1608678875637679
  Basis Set: 6-31G*
  Basis Set:
  Basis Set: 6-31G*
  Basis Set:
  @DF-RHF Final Energy:  -426.16087217794723
    Total Energy =                       -426.1608721779468851
  Basis Set: 6-31G*
  Basis Set:
  Basis Set: 6-31G*
  Basis Set:
  @DF-RHF Final Energy:  -426.16087430185496
    Total Energy =                       -426.1608743018548466
  Basis Set: 6-31G*
  Basis Set:
  Charge       = 0
  Multiplicity = 1
  Basis Set: 6-31G*
  Basis Set:

    Orbital Energies (a.u.)
    -----------------------

    Doubly Occupied:

       1A    -20.547596     2A    -11.323497     3A    -11.231010
       4A    -11.229541     5A    -11.228721     6A    -11.218272
       7A    -11.216196     8A    -11.211361     9A    -11.210249
      10A    -11.204621    11A     -1.393756    12A     -1.087435
      13A     -1.075291    14A     -1.020190    15A     -0.989366
      16A     -0.908655    17A     -0.870263    18A     -0.810988
      19A     -0.792609    20A     -0.719635    21A     -0.667631
      22A     -0.644565    23A     -0.629525    24A     -0.616139
      25A     -0.606773    26A     -0.583378    27A     -0.574173
      28A     -0.573876    29A     -0.554757    30A     -0.528603
      31A     -0.516303    32A     -0.508967    33A     -0.493325
      34A     -0.483932    35A     -0.474620    36A     -0.466882
      37A     -0.464485    38A     -0.461403    39A     -0.454642
      40A     -0.391825

  @DF-RHF Final Energy:  -426.16087457417905

   => Energetics <=

    Nuclear Repulsion Energy =            542.5510797284916862
    One-Electron Energy =               -1653.4537947972471557
    Two-Electron Energy =                 684.7418404945765360
    DFT Exchange-Correlation Energy =       0.0000000000000000
    Empirical Dispersion Energy =           0.0000000000000000
    PCM Polarization Energy =               0.0000000000000000
    EFP Energy =                            0.0000000000000000
    Total Energy =                       -426.1608745741789335
    Molecular point group: c1
  Basis Set: 6-31G*
  Basis Set:

  -Total Gradient:
     Atom            X                  Y                   Z
    ------   -----------------  -----------------  -----------------
       1       -0.000000448295    -0.000002018200    -0.000002138627
       2       -0.000001926395    -0.000000891643     0.000000291483
       3       -0.000000516611     0.000001207540     0.000003252863
       4       -0.000000712345    -0.000000283784     0.000000821889
       5       -0.000000087944     0.000001421135     0.000000303428
       6        0.000001636249     0.000004129152     0.000000115438
       7        0.000004065311    -0.000002232138    -0.000002836261
       8       -0.000001829643    -0.000000437054     0.000000756849
       9        0.000002581498     0.000002189369     0.000003089909
      10        0.000002336494     0.000002525783    -0.000000320691
      11       -0.000001459033     0.000001966981    -0.000001156151
      12       -0.000864755987     0.000844203668    -0.000643519865
      13       -0.000004615599    -0.000003168195    -0.000003844514
      14       -0.000005829422    -0.000001021848     0.000003419229
      15        0.000929925401    -0.001008045910     0.001054976304
      16       -0.000007098863    -0.000001020661    -0.000007235147
      17        0.001387826212    -0.000759213926    -0.001062599584
      18        0.000002161586    -0.000002498480     0.000000135093
      19       -0.000000128884    -0.000002148584     0.000003026912
      20        0.000004339651    -0.000005254616     0.000002502200
      21       -0.001445834721     0.000918393397     0.000645868264
      22       -0.000000385353     0.000002686173    -0.000000060636
      23       -0.000000436444     0.000007399796     0.000002415901
      24        0.000000678272     0.000000434829     0.000000474864
      25       -0.000000609545     0.000001205106     0.000004388928
      26       -0.000001072825    -0.000000107901    -0.000002599954
      27        0.000000986182    -0.000000108242     0.000000663377
      28        0.000001211055     0.000000688257    -0.000000191502

  **** Optimization is complete! (in 20 steps) ****
    Final optimized geometry and variables:
    Molecular point group: c1

    Geometry (in Angstrom), charge = 0, multiplicity = 1:

    H            1.610653834266     3.554344122699     3.472971315585
    C            0.694514536457     3.191093482157     3.017685747798
    C            0.975502088919     2.512817210393     1.677518477309
    H            0.230990561007     2.499249216299     3.714834395205
    H            0.025568822253     4.039237497566     2.898429557581
    C           -0.298446908999     1.999142082319     1.002379966941
    H            1.662288071385     1.687504272994     1.827837992569
    H            1.471340460122     3.220022535637     1.014345895764
    C           -0.053733763612     1.323073170349    -0.345746283763
    H           -0.803238460921     1.301393043415     1.662420664586
    H           -0.978024578220     2.834301005655     0.847841819533
    C            0.561199847339    -0.062722967433    -0.266347224467
    H           -0.987178917356     1.219680649236    -0.898192269763
    H            0.584529866722     1.938753351054    -0.977825406081
    C            0.860343020863    -0.762032941943    -1.585667720665
    O            0.803918863267    -0.594215620818     0.775460245582
    C           -0.060370451346    -1.972074997137    -1.928758216311
    H            1.888480483899    -1.099744045235    -1.519900128265
    H            0.816621508519    -0.036738041980    -2.390805289591
    C           -1.272368583640    -2.202472711449    -1.018227955804
    H           -0.426761564204    -1.835954522245    -2.941799540045
    H            0.537446614080    -2.877004611833    -1.936890175090
    C           -2.123431060690    -3.378536745339    -1.496413619174
    H           -1.890755254770    -1.307074852416    -0.989505011349
    H           -0.941670773163    -2.382529514407    -0.002355369551
    H           -2.503611735824    -3.210637379400    -2.500272008237
    H           -1.545836120384    -4.298456866097    -1.511482842173
    H           -2.974907657084    -3.534738108886    -0.841762793201

  Mulliken Charges: (a.u.)
   Center  Symbol    Alpha    Beta     Spin     Total
       1     H     0.41942  0.41942  0.00000  0.16115
       2     C     3.24028  3.24028  0.00000 -0.48057
       3     C     3.15607  3.15607  0.00000 -0.31214
       4     H     0.41884  0.41884  0.00000  0.16232
       5     H     0.42414  0.42414  0.00000  0.15171
       6     C     3.14914  3.14914  0.00000 -0.29827
       7     H     0.40663  0.40663  0.00000  0.18675
       8     H     0.42817  0.42817  0.00000  0.14366
       9     C     3.21431  3.21431  0.00000 -0.42861
      10     H     0.40951  0.40951  0.00000  0.18098
      11     H     0.42206  0.42206  0.00000  0.15589
      12     C     2.73293  2.73293  0.00000  0.53414
      13     H     0.40627  0.40627  0.00000  0.18746
      14     H     0.40875  0.40875  0.00000  0.18249
      15     C     3.20371  3.20371  0.00000 -0.40743
      16     O     4.26892  4.26892  0.00000 -0.53785
      17     C     3.15081  3.15081  0.00000 -0.30162
      18     H     0.39951  0.39951  0.00000  0.20098
      19     H     0.41422  0.41422  0.00000  0.17157
      20     C     3.16621  3.16621  0.00000 -0.33241
      21     H     0.41859  0.41859  0.00000  0.16281
      22     H     0.41330  0.41330  0.00000  0.17340
      23     C     3.24026  3.24026  0.00000 -0.48051
      24     H     0.42623  0.42623  0.00000  0.14753
      25     H     0.40189  0.40189  0.00000  0.19621
      26     H     0.42281  0.42281  0.00000  0.15437
      27     H     0.42004  0.42004  0.00000  0.15992
      28     H     0.41697  0.41697  0.00000  0.16606

   Total alpha = 40.00000, Total beta = 40.00000, Total charge = -0.00000
