                              Psi4 1.0.54 Driver

  ==> Input File <==

--------------------------------------------------------------------------
set {
	reference rhf
	basis cc-pvtz
}

set_num_threads( 4 )
memory 2 gb

molecule MOL {
0 1

O	 2.868453	 1.353349	 -0.000734
C	 2.841259	 0.166180	 -0.000295
C	 1.542794	 -0.614730	 -0.000853
C	 4.113372	 -0.651103	 0.000743
C	 0.288398	 0.247429	 0.000314
H	 1.557171	 -1.273139	 -0.866508
H	 1.557484	 -1.274998	 0.863344
C	 -0.991087	 -0.578589	 0.098922
H	 0.269874	 0.849281	 -0.901098
H	 0.339292	 0.947928	 0.826052
C	 -2.256471	 0.274129	 0.100795
H	 -1.034165	 -1.280500	 -0.730982
H	 -0.964620	 -1.181075	 1.004224
C	 -3.540450	 -0.544733	 0.198774
H	 -2.283950	 0.876560	 -0.803879
H	 -2.214711	 0.975556	 0.930484
C	 -4.800566	 0.314275	 0.199994
H	 -3.583619	 -1.245325	 -0.630832
H	 -3.514425	 -1.146267	 1.103428
H	 -4.873683	 0.902829	 -0.708466
H	 -5.692997	 -0.296980	 0.270373
H	 -4.804105	 1.002422	 1.038734
H	 4.145311	 -1.294584	 -0.871587
H	 4.970080	 0.004978	 -0.000091
H	 4.145223	 -1.291980	 0.874988

	symmetry c1
}
set optking {
	frozen_dihedral = ("
		9 5 3 6
	")
}

ee,wfn = optimize('scf', return_wfn=True)
oeprop( wfn, 'DIPOLE', 'QUADRUPOLE', 'MULLIKEN_CHARGES')
f=open( 'psi4out.xyz', 'w' )
f.write( "25  " )
f.write( str(ee) + "\n" )
f.write( MOL.save_string_xyz() )
f.close()
--------------------------------------------------------------------------

    Molecular point group: c1
  Charge       = 0
  Multiplicity = 1
  Basis Set: CC-PVTZ
  Basis Set:
  @DF-RHF Final Energy:  -387.27461645943191
    Total Energy =                       -387.2746164594315132
    Molecular point group: c1
  Basis Set: CC-PVTZ
  Basis Set:
  Basis Set: CC-PVTZ
  Basis Set:
  @DF-RHF Final Energy:  -387.27462316733681
    Total Energy =                       -387.2746231673363582
  Basis Set: CC-PVTZ
  Basis Set:
  Basis Set: CC-PVTZ
  Basis Set:
  @DF-RHF Final Energy:  -387.27461225808605
    Total Energy =                       -387.2746122580854262
  Basis Set: CC-PVTZ
  Basis Set:
  Basis Set: CC-PVTZ
  Basis Set:
  @DF-RHF Final Energy:  -387.27462513400280
    Total Energy =                       -387.2746251340028039
  Basis Set: CC-PVTZ
  Basis Set:
  Charge       = 0
  Multiplicity = 1
  Basis Set: CC-PVTZ
  Basis Set:

    Orbital Energies (a.u.)
    -----------------------

    Doubly Occupied:

       1A    -20.538854     2A    -11.320471     3A    -11.230202
       4A    -11.226575     5A    -11.215225     6A    -11.214609
       7A    -11.213531     8A    -11.211499     9A    -11.206450
      10A     -1.398895    11A     -1.095193    12A     -1.057674
      13A     -1.015566    14A     -0.970166    15A     -0.891548
      16A     -0.814695    17A     -0.791377    18A     -0.730871
      19A     -0.663139    20A     -0.654098    21A     -0.633344
      22A     -0.626858    23A     -0.596884    24A     -0.585307
      25A     -0.567685    26A     -0.559922    27A     -0.541350
      28A     -0.527217    29A     -0.513327    30A     -0.492030
      31A     -0.489964    32A     -0.473879    33A     -0.463948
      34A     -0.462991    35A     -0.452743    36A     -0.401297

  @DF-RHF Final Energy:  -387.27462529212943

   => Energetics <=

    Nuclear Repulsion Energy =            439.1313228341161334
    One-Electron Energy =               -1395.1131252441932702
    Two-Electron Energy =                 568.7071771179479356
    DFT Exchange-Correlation Energy =       0.0000000000000000
    Empirical Dispersion Energy =           0.0000000000000000
    PCM Polarization Energy =               0.0000000000000000
    EFP Energy =                            0.0000000000000000
    Total Energy =                       -387.2746252921291443
    Molecular point group: c1
  Basis Set: CC-PVTZ
  Basis Set:

  -Total Gradient:
     Atom            X                  Y                   Z
    ------   -----------------  -----------------  -----------------
       1        0.000003423964     0.000019787295    -0.000007396243
       2       -0.000008115591    -0.000011287104     0.000046457289
       3       -0.000490646750    -0.000709017316     0.000328460811
       4        0.000002090439    -0.000002852447    -0.000019318548
       5        0.000504477108     0.000723874691     0.000296201631
       6        0.000320202005     0.000474680438    -0.000352116612
       7        0.000003426028     0.000006696334     0.000006214487
       8        0.000006721238     0.000002383130     0.000034576124
       9       -0.000330008551    -0.000482422669    -0.000332543031
      10       -0.000003736182    -0.000015073116    -0.000008414468
      11       -0.000002680618    -0.000000282530     0.000002991258
      12        0.000004832789     0.000008649338     0.000004938678
      13       -0.000009921012    -0.000010544993     0.000005153182
      14        0.000000259858    -0.000000885894    -0.000008071785
      15       -0.000000419763     0.000002545365    -0.000000180837
      16        0.000000214575    -0.000002675220    -0.000000375284
      17        0.000000041490     0.000000599695    -0.000000039710
      18       -0.000001392218    -0.000002538450    -0.000000820607
      19        0.000001172742     0.000002949006    -0.000001942769
      20       -0.000000022560    -0.000000858058     0.000000314370
      21        0.000000212984    -0.000000226561     0.000000636959
      22        0.000000512654     0.000000320092    -0.000000563928
      23        0.000004719922    -0.000001172779     0.000001603412
      24       -0.000005156446     0.000000472223     0.000002364587
      25       -0.000000208106    -0.000003120472     0.000001871036

  **** Optimization is complete! (in 5 steps) ****
    Final optimized geometry and variables:
    Molecular point group: c1

    Geometry (in Angstrom), charge = 0, multiplicity = 1:

    O            2.867941243621     1.351304198347    -0.074518571671
    C            2.840016975777     0.164216685679    -0.070632913247
    C            1.541092368146    -0.616603555293    -0.059859864024
    C            4.111704964626    -0.653902875824    -0.077738130492
    C            0.287619422994     0.246995380684    -0.050862748797
    H            1.550958477233    -1.271515448388    -0.928166624456
    H            1.562540177575    -1.277107661114     0.803846761917
    C           -0.992293395243    -0.579772081911     0.040247653110
    H            0.267046175050     0.852080840455    -0.950347838010
    H            0.338373360289     0.941543253121     0.779375837956
    C           -2.257956489892     0.272480170917     0.036733898039
    H           -1.031186897020    -1.281005097772    -0.790492517052
    H           -0.969967879452    -1.183049270532     0.945122388131
    C           -3.542037768598    -0.546817300127     0.129281947129
    H           -2.281936019001     0.874947291094    -0.868054680634
    H           -2.219876105053     0.973936688328     0.866588275325
    C           -4.802466863369     0.311700904845     0.124893937052
    H           -3.581366070881    -1.247602041506    -0.700371804182
    H           -3.519723371287    -1.148161663436     1.034168870463
    H           -4.872068910930     0.899823597734    -0.784139073987
    H           -5.694949743387    -0.299884918548     0.191871732204
    H           -4.809728189795     1.000239364501     0.963297821526
    H            4.136490275697    -1.299012063058    -0.949085317362
    H            4.968898249424     0.001538529761    -0.086483127306
    H            4.149823176201    -1.293116076256     0.797482036551

  Mulliken Charges: (a.u.)
   Center  Symbol    Alpha    Beta     Spin     Total
       1     O     4.17073  4.17073  0.00000 -0.34147
       2     C     2.86230  2.86230  0.00000  0.27540
       3     C     3.11394  3.11394  0.00000 -0.22789
       4     C     3.15130  3.15130  0.00000 -0.30259
       5     C     3.08298  3.08298  0.00000 -0.16595
       6     H     0.44534  0.44534  0.00000  0.10933
       7     H     0.44577  0.44577  0.00000  0.10846
       8     C     3.09021  3.09021  0.00000 -0.18041
       9     H     0.44706  0.44706  0.00000  0.10587
      10     H     0.44502  0.44502  0.00000  0.10997
      11     C     3.08615  3.08615  0.00000 -0.17229
      12     H     0.45617  0.45617  0.00000  0.08767
      13     H     0.45595  0.45595  0.00000  0.08811
      14     C     3.08428  3.08428  0.00000 -0.16855
      15     H     0.45393  0.45393  0.00000  0.09214
      16     H     0.45372  0.45372  0.00000  0.09257
      17     C     3.15037  3.15037  0.00000 -0.30074
      18     H     0.45522  0.45522  0.00000  0.08957
      19     H     0.45516  0.45516  0.00000  0.08967
      20     H     0.45482  0.45482  0.00000  0.09035
      21     H     0.44868  0.44868  0.00000  0.10263
      22     H     0.45475  0.45475  0.00000  0.09050
      23     H     0.45039  0.45039  0.00000  0.09923
      24     H     0.43535  0.43535  0.00000  0.12930
      25     H     0.45044  0.45044  0.00000  0.09913

   Total alpha = 36.00000, Total beta = 36.00000, Total charge =  0.00000

*** Psi4 exiting successfully. Buy a developer a beer!
