                              Psi4 1.0.54 Driver

  ==> Input File <==

--------------------------------------------------------------------------
set {
	reference rhf
	basis cc-pvtz
}

set_num_threads( 4 )
memory 2 gb

molecule MOL {
0 1

H	 -3.301241	 0.051255	 1.427082
C	 -3.329501	 -0.071229	 0.335714
C	 -2.612235	 0.999473	 -0.440828
O	 -3.903355	 -0.987678	 -0.141907
C	 -1.176210	 1.221487	 0.043133
H	 -2.643976	 0.742594	 -1.491704
H	 -3.181335	 1.916292	 -0.303459
C	 -0.247837	 0.040196	 -0.230469
H	 -0.783905	 2.108244	 -0.442766
H	 -1.185162	 1.440102	 1.108178
C	 1.181757	 0.280428	 0.247371
H	 -0.242572	 -0.167128	 -1.297284
H	 -0.639679	 -0.854199	 0.246968
C	 2.151032	 -0.811012	 -0.202643
H	 1.515939	 1.247397	 -0.115449
H	 1.191514	 0.341223	 1.333422
C	 3.580021	 -0.656538	 0.320835
H	 2.170545	 -0.847575	 -1.289412
H	 1.766632	 -1.772905	 0.124928
C	 4.327657	 0.562694	 -0.213579
H	 4.138806	 -1.549270	 0.057813
H	 3.561991	 -0.620783	 1.406976
H	 4.355973	 0.557257	 -1.298551
H	 3.867136	 1.491650	 0.100501
H	 5.351524	 0.571613	 0.142204

	symmetry c1
}
set optking {
	frozen_dihedral = ("
		12 8 11 14
	")
}

ee,wfn = optimize('scf', return_wfn=True)
oeprop( wfn, 'DIPOLE', 'QUADRUPOLE', 'MULLIKEN_CHARGES')
f=open( 'psi4out.xyz', 'w' )
f.write( "25  " )
f.write( str(ee) + "\n" )
f.write( MOL.save_string_xyz() )
f.close()
--------------------------------------------------------------------------

    Molecular point group: c1
  Charge       = 0
  Multiplicity = 1
  Basis Set: CC-PVTZ
  Basis Set:
  @DF-RHF Final Energy:  -387.26018616445566
    Total Energy =                       -387.2601861644554901
    Molecular point group: c1
  Basis Set: CC-PVTZ
  Basis Set:
  Basis Set: CC-PVTZ
  Basis Set:
  @DF-RHF Final Energy:  -387.26019846581102
    Total Energy =                       -387.2601984658106176
  Basis Set: CC-PVTZ
  Basis Set:
  Basis Set: CC-PVTZ
  Basis Set:
  @DF-RHF Final Energy:  -387.26021327816159
    Total Energy =                       -387.2602132781618138
  Basis Set: CC-PVTZ
  Basis Set:
  Basis Set: CC-PVTZ
  Basis Set:
  @DF-RHF Final Energy:  -387.26014998582315
    Total Energy =                       -387.2601499858226362
  Basis Set: CC-PVTZ
  Basis Set:
  Basis Set: CC-PVTZ
  Basis Set:
  @DF-RHF Final Energy:  -387.26021873718014
    Total Energy =                       -387.2602187371799118
  Basis Set: CC-PVTZ
  Basis Set:
  Charge       = 0
  Multiplicity = 1
  Basis Set: CC-PVTZ
  Basis Set:

    Orbital Energies (a.u.)
    -----------------------

    Doubly Occupied:

       1A    -20.551399     2A    -11.321013     3A    -11.233837
       4A    -11.232931     5A    -11.221668     6A    -11.217692
       7A    -11.216265     8A    -11.215102     9A    -11.208892
      10A     -1.406401    11A     -1.105325    12A     -1.071056
      13A     -1.014599    14A     -0.943563    15A     -0.876131
      16A     -0.821146    17A     -0.788955    18A     -0.781750
      19A     -0.668362    20A     -0.662439    21A     -0.635637
      22A     -0.627194    23A     -0.603872    24A     -0.596037
      25A     -0.575760    26A     -0.552100    27A     -0.534975
      28A     -0.528407    29A     -0.509973    30A     -0.497707
      31A     -0.491642    32A     -0.479588    33A     -0.465356
      34A     -0.459086    35A     -0.442784    36A     -0.411952

  @DF-RHF Final Energy:  -387.26021954326353

   => Energetics <=

    Nuclear Repulsion Energy =            439.6851889700834022
    One-Electron Energy =               -1395.9496179057287009
    Two-Electron Energy =                 569.0042093923821085
    DFT Exchange-Correlation Energy =       0.0000000000000000
    Empirical Dispersion Energy =           0.0000000000000000
    PCM Polarization Energy =               0.0000000000000000
    EFP Energy =                            0.0000000000000000
    Total Energy =                       -387.2602195432632470
    Molecular point group: c1
  Basis Set: CC-PVTZ
  Basis Set:

  -Total Gradient:
     Atom            X                  Y                   Z
    ------   -----------------  -----------------  -----------------
       1        0.000040881251    -0.000030658042     0.000001590965
       2       -0.000112729426     0.000137781089     0.000018725491
       3        0.000011360756    -0.000036642878    -0.000004755315
       4        0.000017094868    -0.000075355135    -0.000015562625
       5        0.000014935704     0.000000127982     0.000003471144
       6        0.000003888830    -0.000004209558     0.000004554560
       7        0.000008024431    -0.000001763594    -0.000000848685
       8       -0.000060578468     0.001938143456    -0.000697645069
       9       -0.000004192774    -0.000002767934    -0.000001614710
      10        0.000011775743    -0.000008699488    -0.000012217789
      11       -0.000265207489    -0.001076288143     0.001236977848
      12        0.000150402949    -0.001377956677     0.000254128039
      13       -0.000011325554     0.000020687780     0.000034509390
      14        0.000193451788     0.000497690512    -0.000871067764
      15       -0.000030432469     0.000004574836     0.000015013426
      16        0.000016062523    -0.000030543288     0.000017869756
      17       -0.000009416789     0.000003849095     0.000009772361
      18       -0.000018136468    -0.000000570590     0.000010396080
      19       -0.000001473600     0.000022143311    -0.000006535791
      20        0.000037969469     0.000013773898     0.000013185349
      21       -0.000012733331     0.000004412654    -0.000001032657
      22        0.000014103097    -0.000004893255     0.000006595678
      23        0.000005193899    -0.000001651569    -0.000007450745
      24        0.000013471778    -0.000009252344    -0.000001896044
      25       -0.000012390717     0.000018067884    -0.000006162895

  **** Optimization is complete! (in 6 steps) ****
    Final optimized geometry and variables:
    Molecular point group: c1

    Geometry (in Angstrom), charge = 0, multiplicity = 1:

    H           -3.271654878603     0.003662926553     1.490175818953
    C           -3.320657362053    -0.131239351431     0.401004325022
    C           -2.623151914002     0.933440219536    -0.401443038624
    O           -3.899211510915    -1.055717574658    -0.055029927811
    C           -1.180173240346     1.169776240464     0.053959570083
    H           -2.671918749616     0.663247847344    -1.448343675066
    H           -3.195141741994     1.848675792192    -0.265564847399
    C           -0.248593780760    -0.006364434339    -0.227463642705
    H           -0.803227957472     2.055336569776    -0.445864556998
    H           -1.170821437672     1.396683833374     1.117370836794
    C            1.182534429437     0.232196099689     0.248232551106
    H           -0.246623546600    -0.219411783908    -1.293165047526
    H           -0.635426129872    -0.903649177762     0.249323203371
    C            2.147138008533    -0.865130614054    -0.197517969055
    H            1.522077848849     1.193064908069    -0.126272911027
    H            1.193688423745     0.305995038078     1.333209619346
    C            3.570221485143    -0.729750847486     0.346752880854
    H            2.180487263394    -0.890456970004    -1.284097680637
    H            1.749472170751    -1.826872459473     0.114908677067
    C            4.333109274962     0.492969731722    -0.157451708408
    H            4.126010260171    -1.622055850849     0.076052323926
    H            3.538349877659    -0.711913100778     1.432983473181
    H            4.374385893278     0.506230399330    -1.241973818974
    H            3.875556636086     1.419689852966     0.167389171737
    H            5.352660579091     0.488117841199     0.210514787991

  Mulliken Charges: (a.u.)
   Center  Symbol    Alpha    Beta     Spin     Total
       1     H     0.46422  0.46422  0.00000  0.07155
       2     C     2.90488  2.90488  0.00000  0.19024
       3     C     3.08900  3.08900  0.00000 -0.17800
       4     O     4.16621  4.16621  0.00000 -0.33242
       5     C     3.11612  3.11612  0.00000 -0.23223
       6     H     0.44289  0.44289  0.00000  0.11422
       7     H     0.44052  0.44052  0.00000  0.11897
       8     C     3.09007  3.09007  0.00000 -0.18014
       9     H     0.44299  0.44299  0.00000  0.11402
      10     H     0.44971  0.44971  0.00000  0.10058
      11     C     3.09293  3.09293  0.00000 -0.18586
      12     H     0.44992  0.44992  0.00000  0.10017
      13     H     0.44765  0.44765  0.00000  0.10470
      14     C     3.09554  3.09554  0.00000 -0.19107
      15     H     0.45252  0.45252  0.00000  0.09497
      16     H     0.45346  0.45346  0.00000  0.09308
      17     C     3.09071  3.09071  0.00000 -0.18141
      18     H     0.45304  0.45304  0.00000  0.09392
      19     H     0.44786  0.44786  0.00000  0.10429
      20     C     3.15289  3.15289  0.00000 -0.30578
      21     H     0.44769  0.44769  0.00000  0.10463
      22     H     0.45454  0.45454  0.00000  0.09092
      23     H     0.45460  0.45460  0.00000  0.09080
      24     H     0.45427  0.45427  0.00000  0.09147
      25     H     0.44580  0.44580  0.00000  0.10840

   Total alpha = 36.00000, Total beta = 36.00000, Total charge =  0.00000

*** Psi4 exiting successfully. Buy a developer a beer!
