  ==> Input File <==

--------------------------------------------------------------------------
set {
	reference rhf
	basis 6-31G*
}

set_num_threads( 4 )
memory 2 gb

molecule MOL {
0 1

O	 0.074228	 1.262779	 -0.000085
C	 0.028650	 0.075053	 -0.000277
C	 -1.233602	 -0.752807	 0.000328
O	 1.109162	 -0.694619	 -0.000298
C	 -2.501530	 0.091881	 0.000126
H	 -1.193807	 -1.406641	 -0.865785
H	 -1.193516	 -1.405779	 0.867015
H	 -2.545121	 0.729328	 -0.874513
H	 -3.377167	 -0.548497	 0.000561
H	 -2.544818	 0.730135	 0.874258
C	 0.911438	 -2.079789	 -0.218925
H	 0.279198	 -2.499191	 0.550352
H	 1.892400	 -2.527243	 -0.182038
H	 0.457590	 -2.251041	 -1.184413

	symmetry c1
}
set optking {
	frozen_dihedral = ("
		11 4 2 3
	")
}

ee = optimize('scf')
oeprop('DIPOLE', 'QUADRUPOLE', 'MULLIKEN_CHARGES')
f=open( 'psi4out.xyz', 'w' )
f.write( "14  " )
f.write( str(ee) + "\n" )
f.write( MOL.save_string_xyz() )
f.close()
--------------------------------------------------------------------------

    Molecular point group: c1
  Charge       = 0
  Multiplicity = 1
  Basis Set: 6-31G*
  Basis Set:
  @DF-RHF Final Energy:  -305.84468297355164
    Total Energy =                       -305.8446829735515848
    Molecular point group: c1
  Basis Set: 6-31G*
  Basis Set:
  Basis Set: 6-31G*
  Basis Set:
  @DF-RHF Final Energy:  -305.84251572765788
    Total Energy =                       -305.8425157276579398
  Basis Set: 6-31G*
  Basis Set:
  Basis Set: 6-31G*
  Basis Set:
  @DF-RHF Final Energy:  -305.85306580051764
    Total Energy =                       -305.8530658005176974
  Basis Set: 6-31G*
  Basis Set:
  Basis Set: 6-31G*
  Basis Set:
  @DF-RHF Final Energy:  -305.85575732087364
    Total Energy =                       -305.8557573208735789
  Basis Set: 6-31G*
  Basis Set:
  @DF-RHF Final Energy:  -305.85426323144333
    Total Energy =                       -305.8542632314434968
  @DF-RHF Final Energy:  -305.85646089126624
    Total Energy =                       -305.8564608912661242
  Basis Set: 6-31G*
  Basis Set:
  @DF-RHF Final Energy:  -305.85681972151167
    Total Energy =                       -305.8568197215115561
  Basis Set: 6-31G*
  Basis Set:
  Basis Set: 6-31G*
  Basis Set:
  @DF-RHF Final Energy:  -305.85682438456854
    Total Energy =                       -305.8568243845685970
  Basis Set: 6-31G*
  Basis Set:
  Basis Set: 6-31G*
  Basis Set:
  @DF-RHF Final Energy:  -305.85682774805969
    Total Energy =                       -305.8568277480597430
  Basis Set: 6-31G*
  Basis Set:
  Charge       = 0
  Multiplicity = 1
  Basis Set: 6-31G*
  Basis Set:

    Orbital Energies (a.u.)
    -----------------------

    Doubly Occupied:

       1A    -20.603077     2A    -20.540125     3A    -11.374591
       4A    -11.297414     5A    -11.249247     6A    -11.221053
       7A     -1.464027     8A     -1.365754     9A     -1.063740
      10A     -0.987807    11A     -0.899886    12A     -0.768897
      13A     -0.706084    14A     -0.688829    15A     -0.672765
      16A     -0.626194    17A     -0.604198    18A     -0.557733
      19A     -0.555129    20A     -0.526712    21A     -0.509424
      22A     -0.504405    23A     -0.447532    24A     -0.432799

  @DF-RHF Final Energy:  -305.85682814098095

   => Energetics <=

    Nuclear Repulsion Energy =            247.5556812097386228
    One-Electron Energy =                -907.4901752773005228
    Two-Electron Energy =                 354.0776659265807211
    DFT Exchange-Correlation Energy =       0.0000000000000000
    Empirical Dispersion Energy =           0.0000000000000000
    PCM Polarization Energy =               0.0000000000000000
    EFP Energy =                            0.0000000000000000
    Total Energy =                       -305.8568281409811789
    Molecular point group: c1
  Basis Set: 6-31G*
  Basis Set:

  -Total Gradient:
     Atom            X                  Y                   Z
    ------   -----------------  -----------------  -----------------
       1       -0.000045831549     0.000020644447    -0.000009775668
       2        0.000046570245     0.000075953996    -0.001339850806
       3        0.000006712989     0.000006629059     0.000620776528
       4       -0.000117879461    -0.000197061537     0.001447004517
       5        0.000006934758    -0.000001556017    -0.000003089929
       6        0.000002265193     0.000010065236     0.000005108820
       7        0.000000519069     0.000003104885    -0.000000247651
       8        0.000000268391     0.000000504029    -0.000002768311
       9        0.000003188081     0.000001884805     0.000000100583
      10       -0.000000487019     0.000001920398     0.000004199165
      11        0.000093052422     0.000108482819    -0.000718652109
      12        0.000004234009     0.000008733649    -0.000005465509
      13       -0.000000655313    -0.000021746277     0.000000068787
      14        0.000001108185    -0.000017559494     0.000002591583

  **** Optimization is complete! (in 10 steps) ****
    Final optimized geometry and variables:
    Molecular point group: c1

    Geometry (in Angstrom), charge = 0, multiplicity = 1:

    O            0.322395317674     1.560069801889     0.049513299294
    C            0.238894461784     0.379426182394     0.025570817813
    C           -1.087015249663    -0.357321800648     0.036820603041
    O            1.358589051883    -0.348779999436     0.020988802117
    C           -2.276989925610     0.595136511404     0.058030139977
    H           -1.138994873521    -1.009023447313    -0.830489016548
    H           -1.106181672510    -1.009976005338     0.905435245990
    H           -2.275578239256     1.236746408752    -0.813936083712
    H           -3.203439133882     0.030937326939     0.069652523437
    H           -2.249264095882     1.230711625611     0.933705861706
    C            1.369493371910    -1.742176673015    -0.178696885745
    H            0.824578215635    -2.265875213378     0.596397146295
    H            2.406881094222    -2.035342654154    -0.137274728721
    H            0.967391820328    -2.007808606393    -1.148536149703

  Mulliken Charges: (a.u.)
   Center  Symbol    Alpha    Beta     Spin     Total
       1     O     4.26688  4.26688  0.00000 -0.53377
       2     C     2.60142  2.60142  0.00000  0.79716
       3     C     3.23058  3.23058  0.00000 -0.46116
       4     O     4.30176  4.30176  0.00000 -0.60352
       5     C     3.23445  3.23445  0.00000 -0.46890
       6     H     0.40470  0.40470  0.00000  0.19060
       7     H     0.40264  0.40264  0.00000  0.19471
       8     H     0.40740  0.40740  0.00000  0.18519
       9     H     0.41907  0.41907  0.00000  0.16186
      10     H     0.40643  0.40643  0.00000  0.18715
      11     C     3.09378  3.09378  0.00000 -0.18756
      12     H     0.41716  0.41716  0.00000  0.16568
      13     H     0.39759  0.39759  0.00000  0.20482
      14     H     0.41613  0.41613  0.00000  0.16773

   Total alpha = 24.00000, Total beta = 24.00000, Total charge =  0.00000
