                              Psi4 1.0.54 Driver

  ==> Input File <==

--------------------------------------------------------------------------
set {
	reference rhf
	basis cc-pvtz
}

set_num_threads( 4 )
memory 2 gb

molecule MOL {
0 1

H	 1.305289	 -1.348759	 1.850891
O	 0.988662	 -0.932094	 1.071025
C	 0.542500	 0.366778	 1.364091
C	 0.027642	 1.012027	 0.090274
H	 1.357974	 0.966269	 1.760804
H	 -0.236913	 0.338322	 2.120508
C	 -1.138737	 0.285728	 -0.581921
H	 0.853837	 1.075779	 -0.610330
H	 -0.263374	 2.032574	 0.326935
C	 -1.933983	 -0.631436	 0.343653
H	 -0.763151	 -0.285569	 -1.422081
H	 -1.808359	 1.035291	 -0.992333
H	 -2.789188	 -1.049673	 -0.174718
H	 -1.335629	 -1.461368	 0.700418
H	 -2.305435	 -0.092167	 1.209725

	symmetry c1
}
set optking {
	frozen_dihedral = ("
		8 4 7 11
	")
}

ee,wfn = optimize('scf', return_wfn=True)
oeprop( wfn, 'DIPOLE', 'QUADRUPOLE', 'MULLIKEN_CHARGES')
f=open( 'psi4out.xyz', 'w' )
f.write( "15  " )
f.write( str(ee) + "\n" )
f.write( MOL.save_string_xyz() )
f.close()
--------------------------------------------------------------------------

    Molecular point group: c1
  Charge       = 0
  Multiplicity = 1
  Basis Set: CC-PVTZ
  Basis Set:
  @DF-RHF Final Energy:  -232.23052458261506
    Total Energy =                       -232.2305245826149189
    Molecular point group: c1
  Basis Set: CC-PVTZ
  Basis Set:
  Basis Set: CC-PVTZ
  Basis Set:
  @DF-RHF Final Energy:  -232.23191632146026
    Total Energy =                       -232.2319163214602895
  Basis Set: CC-PVTZ
  Basis Set:
  Basis Set: CC-PVTZ
  Basis Set:
  @DF-RHF Final Energy:  -232.23226641703778
    Total Energy =                       -232.2322664170378061
  Basis Set: CC-PVTZ
  Basis Set:
  Basis Set: CC-PVTZ
  Basis Set:
  @DF-RHF Final Energy:  -232.23239091867586
    Total Energy =                       -232.2323909186758328
  Basis Set: CC-PVTZ
  Basis Set:
  Basis Set: CC-PVTZ
  Basis Set:
  @DF-RHF Final Energy:  -232.23241142443115
    Total Energy =                       -232.2324114244308362
  Basis Set: CC-PVTZ
  Basis Set:
  Basis Set: CC-PVTZ
  Basis Set:
  @DF-RHF Final Energy:  -232.23241335650110
    Total Energy =                       -232.2324133565009561
  Basis Set: CC-PVTZ
  Basis Set:
  Basis Set: CC-PVTZ
  Basis Set:
  @DF-RHF Final Energy:  -232.23241578267837
    Total Energy =                       -232.2324157826783448
  Basis Set: CC-PVTZ
  Basis Set:
  Charge       = 0
  Multiplicity = 1
  Basis Set: CC-PVTZ
  Basis Set:

    Orbital Energies (a.u.)
    -----------------------

    Doubly Occupied:

       1A    -20.546829     2A    -11.264980     3A    -11.211304
       4A    -11.209139     5A    -11.200608     6A     -1.364329
       7A     -1.062297     8A     -0.971362     9A     -0.871499
      10A     -0.771050    11A     -0.708612    12A     -0.650492
      13A     -0.609720    14A     -0.572618    15A     -0.561635
      16A     -0.531620    17A     -0.516984    18A     -0.476060
      19A     -0.459674    20A     -0.452911    21A     -0.433263

  @DF-RHF Final Energy:  -232.23241583838163

   => Energetics <=

    Nuclear Repulsion Energy =            193.2156440591458306
    One-Electron Energy =                -698.0021476548372448
    Two-Electron Energy =                 272.5540877573096168
    DFT Exchange-Correlation Energy =       0.0000000000000000
    Empirical Dispersion Energy =           0.0000000000000000
    PCM Polarization Energy =               0.0000000000000000
    EFP Energy =                            0.0000000000000000
    Total Energy =                       -232.2324158383818258
    Molecular point group: c1
  Basis Set: CC-PVTZ
  Basis Set:

  -Total Gradient:
     Atom            X                  Y                   Z
    ------   -----------------  -----------------  -----------------
       1        0.000003909885    -0.000002277968    -0.000000646326
       2       -0.000011965228    -0.000004979233     0.000018189692
       3        0.000025537207     0.000009676153    -0.000026393741
       4       -0.002581771051     0.007667021306    -0.003312551700
       5        0.000002252926     0.000003751058     0.000007141276
       6       -0.000003005351    -0.000013068023    -0.000005039382
       7        0.001345068530    -0.007106684837     0.004936341632
       8        0.001961519128    -0.005347341439     0.002028066845
       9       -0.000002672706     0.000006811580    -0.000000567546
      10        0.000007158919    -0.000000142665     0.000000612424
      11       -0.000747313019     0.004789001039    -0.003638837181
      12       -0.000000135630    -0.000003902874    -0.000001939770
      13        0.000000867488     0.000002867410    -0.000001379878
      14       -0.000001326986     0.000003943276     0.000003624187
      15        0.000001875889    -0.000004674785    -0.000006620530

  **** Optimization is complete! (in 8 steps) ****
    Final optimized geometry and variables:
    Molecular point group: c1

    Geometry (in Angstrom), charge = 0, multiplicity = 1:

    H            1.720883527907    -1.370967693545     1.257393982230
    O            1.370171295101    -0.931667869409     0.504892460583
    C            0.865733526630     0.327870696053     0.870340013806
    C            0.303705336928     1.007737977261    -0.366234240308
    H            1.660756713007     0.946416382743     1.279432175847
    H            0.105996359133     0.224999444802     1.639456614367
    C           -0.901344230490     0.312504170045    -1.035243179544
    H            1.124855589426     1.041211646651    -1.073454016577
    H            0.048423333082     2.026536770006    -0.095110240500
    C           -1.799199423057    -0.528671266775    -0.134393159451
    H           -0.553891757807    -0.274142704487    -1.877224630805
    H           -1.512036138737     1.090035840076    -1.486458734529
    H           -2.636990350357    -0.916298460175    -0.702621241137
    H           -1.266517876943    -1.370005048216     0.287965881022
    H           -2.206489729596     0.059459930578     0.681968896338

  Mulliken Charges: (a.u.)
   Center  Symbol    Alpha    Beta     Spin     Total
       1     H     0.39462  0.39462  0.00000  0.21076
       2     O     4.20258  4.20258  0.00000 -0.40517
       3     C     2.98223  2.98223  0.00000  0.03554
       4     C     3.09724  3.09724  0.00000 -0.19448
       5     H     0.45804  0.45804  0.00000  0.08391
       6     H     0.46751  0.46751  0.00000  0.06498
       7     C     3.08007  3.08007  0.00000 -0.16014
       8     H     0.45066  0.45066  0.00000  0.09868
       9     H     0.45133  0.45133  0.00000  0.09734
      10     C     3.15993  3.15993  0.00000 -0.31985
      11     H     0.45025  0.45025  0.00000  0.09951
      12     H     0.45444  0.45444  0.00000  0.09112
      13     H     0.44629  0.44629  0.00000  0.10741
      14     H     0.44793  0.44793  0.00000  0.10414
      15     H     0.45688  0.45688  0.00000  0.08623

   Total alpha = 21.00000, Total beta = 21.00000, Total charge =  0.00000

*** Psi4 exiting successfully. Buy a developer a beer!
