  ==> Input File <==

--------------------------------------------------------------------------
set {
	reference rhf
	basis 6-31G*
}

set_num_threads( 1 )
memory 2 gb

molecule MOL {
0 1

H	 -2.040725	 -2.854641	 -0.902414
C	 -2.589970	 -1.906468	 -0.956444
C	 -2.513548	 -1.054115	 0.284629
O	 -3.186931	 -1.617423	 -1.942264
C	 -1.069241	 -0.813666	 0.745518
H	 -3.030796	 -0.121454	 0.091479
H	 -3.056528	 -1.580947	 1.068387
C	 -0.252658	 0.041456	 -0.226725
H	 -1.094439	 -0.330185	 1.717575
H	 -0.574109	 -1.771631	 0.896863
C	 1.180775	 0.282413	 0.250794
H	 -0.753927	 0.996792	 -0.367825
H	 -0.229291	 -0.433337	 -1.205789
C	 2.148627	 -0.814315	 -0.201312
H	 1.516199	 1.249228	 -0.115937
H	 1.192670	 0.346017	 1.338083
C	 3.580890	 -0.659131	 0.322722
H	 2.166869	 -0.852443	 -1.289387
H	 1.762857	 -1.776509	 0.128956
C	 4.324889	 0.564933	 -0.213704
H	 4.142010	 -1.551473	 0.056605
H	 3.564836	 -0.624694	 1.410140
H	 4.342616	 0.565491	 -1.300421
H	 3.866655	 1.493402	 0.110242
H	 5.353900	 0.572371	 0.132816

	symmetry c1
}
set optking {
	frozen_dihedral = ("
		6 3 5 8,
		6 3 2 4,
		3 5 8 12,
		8 11 14 18,
		20 17 14 18
	")
}

ee = energy('scf')
oeprop('DIPOLE', 'QUADRUPOLE', 'MULLIKEN_CHARGES')
f=open( 'psi4out.xyz', 'w' )
f.write( "25  " )
f.write( str(ee) + "\n" )
f.write( MOL.save_string_xyz() )
f.close()
--------------------------------------------------------------------------

    Molecular point group: c1

    Geometry (in Angstrom), charge = 0, multiplicity = 1:

       Center              X                  Y                   Z               Mass
    ------------   -----------------  -----------------  -----------------  -----------------
           H         -2.228090653844    -2.191954301143    -0.674367120570     1.007825032070
           C         -2.777335653844    -1.243781301143    -0.728397120570    12.000000000000
           C         -2.700913653844    -0.391428301143     0.512675879430    12.000000000000
           O         -3.374296653844    -0.954736301143    -1.714217120570    15.994914619560
           C         -1.256606653844    -0.150979301143     0.973564879430    12.000000000000
           H         -3.218161653844     0.541232698857     0.319525879430     1.007825032070
           H         -3.243893653844    -0.918260301143     1.296433879430     1.007825032070
           C         -0.440023653844     0.704142698857     0.001321879430    12.000000000000
           H         -1.281804653844     0.332501698857     1.945621879430     1.007825032070
           H         -0.761474653844    -1.108944301143     1.124909879430     1.007825032070
           C          0.993409346156     0.945099698857     0.478840879430    12.000000000000
           H         -0.941292653844     1.659478698857    -0.139778120570     1.007825032070
           H         -0.416656653844     0.229349698857    -0.977742120570     1.007825032070
           C          1.961261346156    -0.151628301143     0.026734879430    12.000000000000
           H          1.328833346156     1.911914698857     0.112109879430     1.007825032070
           H          1.005304346156     1.008703698857     1.566129879430     1.007825032070
           C          3.393524346156     0.003555698857     0.550768879430    12.000000000000
           H          1.979503346156    -0.189756301143    -1.061340120570     1.007825032070
           H          1.575491346156    -1.113822301143     0.357002879430     1.007825032070
           C          4.137523346156     1.227619698857     0.014342879430    12.000000000000
           H          3.954644346156    -0.888786301143     0.284651879430     1.007825032070
           H          3.377470346156     0.037992698857     1.638186879430     1.007825032070
           H          4.155250346156     1.228177698857    -1.072374120570     1.007825032070
           H          3.679289346156     2.156088698857     0.338288879430     1.007825032070
           H          5.166534346156     1.235057698857     0.360862879430     1.007825032070

  Charge       = 0
  Multiplicity = 1
  Basis Set: 6-31G*
  Basis Set:

    Orbital Energies (a.u.)
    -----------------------

    Doubly Occupied:

       1A    -20.561889     2A    -11.326084     3A    -11.235229
       4A    -11.234445     5A    -11.223206     6A    -11.219287
       7A    -11.218863     8A    -11.218280     9A    -11.210886
      10A     -1.401884    11A     -1.105203    12A     -1.069163
      13A     -1.013449    14A     -0.940982    15A     -0.879343
      16A     -0.820907    17A     -0.790259    18A     -0.779339
      19A     -0.665754    20A     -0.651961    21A     -0.633194
      22A     -0.625546    23A     -0.611095    24A     -0.592433
      25A     -0.572992    26A     -0.561639    27A     -0.529694
      28A     -0.521524    29A     -0.515792    30A     -0.496829
      31A     -0.489975    32A     -0.480043    33A     -0.465149
      34A     -0.450224    35A     -0.444973    36A     -0.409451

  @DF-RHF Final Energy:  -387.11892470732170

   => Energetics <=

    Nuclear Repulsion Energy =            443.6514160885494107
    One-Electron Energy =               -1403.6070810298178912
    Two-Electron Energy =                 572.8367402339443970
    DFT Exchange-Correlation Energy =       0.0000000000000000
    Empirical Dispersion Energy =           0.0000000000000000
    PCM Polarization Energy =               0.0000000000000000
    EFP Energy =                            0.0000000000000000
    Total Energy =                       -387.1189247073240267

  Mulliken Charges: (a.u.)
   Center  Symbol    Alpha    Beta     Spin     Total
       1     H     0.43268  0.43268  0.00000  0.13463
       2     C     2.83075  2.83075  0.00000  0.33850
       3     C     3.20802  3.20802  0.00000 -0.41604
       4     O     4.23786  4.23786  0.00000 -0.47572
       5     C     3.16796  3.16796  0.00000 -0.33592
       6     H     0.39968  0.39968  0.00000  0.20063
       7     H     0.40684  0.40684  0.00000  0.18632
       8     C     3.15747  3.15747  0.00000 -0.31495
       9     H     0.41243  0.41243  0.00000  0.17515
      10     H     0.41893  0.41893  0.00000  0.16214
      11     C     3.15722  3.15722  0.00000 -0.31445
      12     H     0.41583  0.41583  0.00000  0.16833
      13     H     0.41720  0.41720  0.00000  0.16561
      14     C     3.15459  3.15459  0.00000 -0.30919
      15     H     0.41623  0.41623  0.00000  0.16753
      16     H     0.42304  0.42304  0.00000  0.15392
      17     C     3.15251  3.15251  0.00000 -0.30502
      18     H     0.42178  0.42178  0.00000  0.15645
      19     H     0.42359  0.42359  0.00000  0.15283
      20     C     3.24141  3.24141  0.00000 -0.48282
      21     H     0.42048  0.42048  0.00000  0.15905
      22     H     0.42339  0.42339  0.00000  0.15323
      23     H     0.42146  0.42146  0.00000  0.15709
      24     H     0.42004  0.42004  0.00000  0.15993
      25     H     0.41861  0.41861  0.00000  0.16278

   Total alpha = 36.00000, Total beta = 36.00000, Total charge = -0.00000
