  ==> Input File <==

--------------------------------------------------------------------------
set {
	reference rhf
	basis 6-31G*
}

set_num_threads( 4 )
memory 2 gb

molecule MOL {
0 1

O	 1.846825	 1.296220	 0.000415
C	 1.705091	 0.115954	 0.001797
C	 0.381791	 -0.609817	 0.001258
O	 2.721346	 -0.737485	 -0.000216
C	 -0.823008	 0.326187	 0.001381
H	 0.371250	 -1.265087	 -0.865474
H	 0.370908	 -1.265746	 0.867490
C	 -2.149452	 -0.435131	 -0.000098
H	 -0.770201	 0.977095	 -0.865636
H	 -0.771220	 0.975655	 0.869608
C	 -3.368779	 0.488503	 -0.000883
H	 -2.193746	 -1.087250	 -0.871175
H	 -2.195311	 -1.087803	 0.870418
C	 -3.156053	 1.758019	 0.822724
H	 -4.229664	 -0.052740	 0.385219
H	 -3.613587	 0.759253	 -1.025530
H	 -2.943225	 1.520885	 1.861322
H	 -4.037159	 2.391811	 0.802462
H	 -2.321889	 2.339135	 0.439596
C	 4.024888	 -0.184556	 -0.001949
H	 4.179030	 0.422472	 -0.882452
H	 4.701782	 -1.024608	 -0.003642
H	 4.181981	 0.421185	 0.878906

	symmetry c1
}
set optking {
	frozen_dihedral = ("
		15 11 8 12
	")
}

ee = optimize('scf')
oeprop('DIPOLE', 'QUADRUPOLE', 'MULLIKEN_CHARGES')
f=open( 'psi4out.xyz', 'w' )
f.write( "23  " )
f.write( str(ee) + "\n" )
f.write( MOL.save_string_xyz() )
f.close()
--------------------------------------------------------------------------

    Molecular point group: c1
  Charge       = 0
  Multiplicity = 1
  Basis Set: 6-31G*
  Basis Set:
  @DF-RHF Final Energy:  -422.96963163606262
    Total Energy =                       -422.9696316360625588
    Molecular point group: c1
  Basis Set: 6-31G*
  Basis Set:
  Basis Set: 6-31G*
  Basis Set:
  @DF-RHF Final Energy:  -422.97030939821798
    Total Energy =                       -422.9703093982177506
  Basis Set: 6-31G*
  Basis Set:
  Basis Set: 6-31G*
  Basis Set:
  @DF-RHF Final Energy:  -422.97164793848157
    Total Energy =                       -422.9716479384819650
  Basis Set: 6-31G*
  Basis Set:
  Basis Set: 6-31G*
  Basis Set:
  @DF-RHF Final Energy:  -422.97055974728988
    Total Energy =                       -422.9705597472900536
  Basis Set: 6-31G*
  Basis Set:
  @DF-RHF Final Energy:  -422.97183419078431
    Total Energy =                       -422.9718341907844206
  Basis Set: 6-31G*
  Basis Set:
  @DF-RHF Final Energy:  -422.97184320803012
    Total Energy =                       -422.9718432080302364
  Basis Set: 6-31G*
  Basis Set:
  Basis Set: 6-31G*
  Basis Set:
  @DF-RHF Final Energy:  -422.97186557008467
    Total Energy =                       -422.9718655700844465
  Basis Set: 6-31G*
  Basis Set:
  Basis Set: 6-31G*
  Basis Set:
  @DF-RHF Final Energy:  -422.97186684312845
    Total Energy =                       -422.9718668431286233
  Basis Set: 6-31G*
  Basis Set:
  Charge       = 0
  Multiplicity = 1
  Basis Set: 6-31G*
  Basis Set:

    Orbital Energies (a.u.)
    -----------------------

    Doubly Occupied:

       1A    -20.603536     2A    -20.545335     3A    -11.372135
       4A    -11.280789     5A    -11.235314     6A    -11.218689
       7A    -11.218112     8A    -11.216974     9A    -11.207115
      10A     -1.469213    11A     -1.362648    12A     -1.092449
      13A     -1.040907    14A     -0.984563    15A     -0.930631
      16A     -0.858136    17A     -0.779875    18A     -0.765876
      19A     -0.696481    20A     -0.683533    21A     -0.672089
      22A     -0.648053    23A     -0.611402    24A     -0.597626
      25A     -0.590269    26A     -0.559487    27A     -0.534228
      28A     -0.525295    29A     -0.518343    30A     -0.516214
      31A     -0.492304    32A     -0.463359    33A     -0.461423
      34A     -0.458210    35A     -0.454609    36A     -0.435344

  @DF-RHF Final Energy:  -422.97186722106613

   => Energetics <=

    Nuclear Repulsion Energy =            458.2794670393258798
    One-Electron Energy =               -1484.3015369181825918
    Two-Electron Energy =                 603.0502026577904644
    DFT Exchange-Correlation Energy =       0.0000000000000000
    Empirical Dispersion Energy =           0.0000000000000000
    PCM Polarization Energy =               0.0000000000000000
    EFP Energy =                            0.0000000000000000
    Total Energy =                       -422.9718672210661907
    Molecular point group: c1
  Basis Set: 6-31G*
  Basis Set:

  -Total Gradient:
     Atom            X                  Y                   Z
    ------   -----------------  -----------------  -----------------
       1        0.000011558378     0.000008463402     0.000011256803
       2       -0.000014773528    -0.000006586761    -0.000029127456
       3       -0.000016878400    -0.000010038232     0.000006699773
       4        0.000017896135     0.000005886304     0.000014717672
       5       -0.000010987667    -0.000025759375    -0.000060343742
       6       -0.000000722990    -0.000000207545    -0.000004459437
       7       -0.000001400050     0.000000316376    -0.000007720441
       8       -0.003340699314    -0.004209904016     0.004795307682
       9       -0.000002765983     0.000010626120     0.000011835636
      10       -0.000002060099    -0.000025156663     0.000000336260
      11       -0.000497467515    -0.001389356841    -0.007068872073
      12        0.002962802773     0.003808661288    -0.002935874563
      13       -0.000002191944    -0.000012349759     0.000025418343
      14       -0.000037822809    -0.000029738559     0.000023549395
      15        0.000955581208     0.001870050823     0.005245241967
      16       -0.000018499776     0.000012134250    -0.000017583632
      17       -0.000010748785     0.000014017279     0.000003405892
      18       -0.000000893337    -0.000000798236    -0.000003067889
      19        0.000006494790    -0.000018309192    -0.000009391201
      20        0.000003481821    -0.000001405193    -0.000001981333
      21        0.000000282781    -0.000000323441     0.000000044686
      22        0.000000078063     0.000000006096     0.000000194831
      23       -0.000000263750    -0.000000228124     0.000000412829

  **** Optimization is complete! (in 9 steps) ****
    Final optimized geometry and variables:
    Molecular point group: c1

    Geometry (in Angstrom), charge = 0, multiplicity = 1:

    O            1.718248372196     1.046384947541    -0.058099273335
    C            1.554907400880    -0.130568738222    -0.093806076011
    C            0.218731238941    -0.832598221096    -0.094443619398
    O            2.555375735541    -1.001375172035    -0.138829348716
    C           -0.968632081381     0.124783564038    -0.047426140166
    H            0.183915425279    -1.463123808005    -0.978636950019
    H            0.209259248581    -1.512606896299     0.753252426553
    C           -2.303110516180    -0.629410992230    -0.033667911671
    H           -0.925605421197     0.787784246877    -0.906553135422
    H           -0.874955972777     0.756496400725     0.827790393821
    C           -3.552903819062     0.264870847698    -0.126167059039
    H           -2.300223530805    -1.296187201549    -0.893397884960
    H           -2.356874334736    -1.248230869622     0.858929461210
    C           -3.498274884096     1.547062484949     0.710777691194
    H           -4.404696346783    -0.307461481398     0.231751356447
    H           -3.745108127412     0.523045950588    -1.163659187024
    H           -3.293079154307     1.327674551932     1.755252324838
    H           -4.450852662757     2.066047376271     0.666457721055
    H           -2.735915062205     2.234002726680     0.360637857320
    C            3.868611351759    -0.471880977376    -0.143249310366
    H            4.020763610308     0.159951906659    -1.006475106211
    H            4.530006132885    -1.323374072820    -0.181884099393
    H            4.049801716144     0.102645863470     0.753751170629

  Mulliken Charges: (a.u.)
   Center  Symbol    Alpha    Beta     Spin     Total
       1     O     4.28623  4.28623  0.00000 -0.57245
       2     C     2.60506  2.60506  0.00000  0.78988
       3     C     3.20773  3.20773  0.00000 -0.41546
       4     O     4.30723  4.30723  0.00000 -0.61447
       5     C     3.15603  3.15603  0.00000 -0.31207
       6     H     0.40094  0.40094  0.00000  0.19813
       7     H     0.40084  0.40084  0.00000  0.19833
       8     C     3.15521  3.15521  0.00000 -0.31043
       9     H     0.41272  0.41272  0.00000  0.17455
      10     H     0.40868  0.40868  0.00000  0.18265
      11     C     3.15172  3.15172  0.00000 -0.30343
      12     H     0.42265  0.42265  0.00000  0.15469
      13     H     0.42258  0.42258  0.00000  0.15485
      14     C     3.24450  3.24450  0.00000 -0.48900
      15     H     0.42064  0.42064  0.00000  0.15872
      16     H     0.42085  0.42085  0.00000  0.15830
      17     H     0.42233  0.42233  0.00000  0.15533
      18     H     0.41916  0.41916  0.00000  0.16168
      19     H     0.41585  0.41585  0.00000  0.16830
      20     C     3.09242  3.09242  0.00000 -0.18483
      21     H     0.40910  0.40910  0.00000  0.18179
      22     H     0.40844  0.40844  0.00000  0.18312
      23     H     0.40910  0.40910  0.00000  0.18181

   Total alpha = 36.00000, Total beta = 36.00000, Total charge = -0.00000
