  ==> Input File <==

--------------------------------------------------------------------------
set {
	reference rhf
	basis cc-pvtz
}

set_num_threads( 4 )
memory 2 gb

molecule MOL {
0 1

H	 -2.645676	 0.019911	 -0.181993
C	 -1.660488	 -0.427671	 -0.188611
C	 -0.600949	 0.658697	 -0.000002
H	 -1.523530	 -0.941573	 -1.130541
H	 -1.610424	 -1.158533	 0.607267
C	 0.763408	 0.112229	 -0.000006
H	 -0.660362	 1.395064	 -0.790676
H	 -0.746767	 1.179328	 0.937343
N	 1.806008	 -0.317179	 0.000007

	symmetry c1
}
set optking {
	frozen_dihedral = ("
		7 3 6 9
	")
}

ee = optimize('scf')
oeprop('DIPOLE', 'QUADRUPOLE', 'MULLIKEN_CHARGES')
f=open( 'psi4out.xyz', 'w' )
f.write( "9  " )
f.write( str(ee) + "\n" )
f.write( MOL.save_string_xyz() )
f.close()
--------------------------------------------------------------------------

    Molecular point group: c1
  Charge       = 0
  Multiplicity = 1
  Basis Set: CC-PVTZ
  Basis Set:
  @DF-RHF Final Energy:  -171.02346169606790
    Total Energy =                       -171.0234616960680114
    Molecular point group: c1
  Basis Set: CC-PVTZ
  Basis Set:
  Basis Set: CC-PVTZ
  Basis Set:
  @DF-RHF Final Energy:  -171.01331679087343
    Total Energy =                       -171.0133167908734322
  Basis Set: CC-PVTZ
  Basis Set:
  Basis Set: CC-PVTZ
  Basis Set:
  @DF-RHF Final Energy:  -171.02063838666265
    Total Energy =                       -171.0206383866625686
  Basis Set: CC-PVTZ
  Basis Set:
  Basis Set: CC-PVTZ
  Basis Set:
  @DF-RHF Final Energy:  -171.02317308145078
    Total Energy =                       -171.0231730814507216
  Basis Set: CC-PVTZ
  Basis Set:
  @DF-RHF Final Energy:  -171.02340087721808
    Total Energy =                       -171.0234008772181085
  @DF-RHF Final Energy:  -171.01598090948576
    Total Energy =                       -171.0159809094858474
  @DF-RHF Final Energy:  -171.02083879663832
    Total Energy =                       -171.0208387966382872
  @DF-RHF Final Energy:  -171.01929829287050
    Total Energy =                       -171.0192982928705874
  @DF-RHF Final Energy:  -171.01996152569558
    Total Energy =                       -171.0199615256956918
  @DF-RHF Final Energy:  -171.02256733197453
    Total Energy =                       -171.0225673319744999
  @DF-RHF Final Energy:  -171.02330999357230
    Total Energy =                       -171.0233099935722123
  @DF-RHF Final Energy:  -171.02342321116572
    Total Energy =                       -171.0234232111658343
  @DF-RHF Final Energy:  -171.02333893044602
    Total Energy =                       -171.0233389304461298
  @DF-RHF Final Energy:  -171.02322007622007
    Total Energy =                       -171.0232200762200421
  @DF-RHF Final Energy:  -171.02337952854532
    Total Energy =                       -171.0233795285453766
  @DF-RHF Final Energy:  -171.02283812607823
    Total Energy =                       -171.0228381260783124
  @DF-RHF Final Energy:  -171.02315210637744
    Total Energy =                       -171.0231521063772959
  @DF-RHF Final Energy:  -171.02330074945382
    Total Energy =                       -171.0233007494538811
  @DF-RHF Final Energy:  -171.02286421520773
    Total Energy =                       -171.0228642152076759
  @DF-RHF Final Energy:  -171.02313809397771
    Total Energy =                       -171.0231380939778205
  @DF-RHF Final Energy:  -171.02336477674910
    Total Energy =                       -171.0233647767492187
  @DF-RHF Final Energy:  -170.75345078767458
    Total Energy =                       -170.7534507876745238
  @DF-RHF Final Energy:  -170.80026699929994
    Total Energy =                       -170.8002669992999358
  @DF-RHF Final Energy:  -170.96919434679401
    Total Energy =                       -170.9691943467939836
  @DF-RHF Final Energy:  -170.83417962159027
    Total Energy =                       -170.8341796215902377
  @DF-RHF Final Energy:  -170.86683173869574
    Total Energy =                       -170.8668317386956801
  @DF-RHF Final Energy:  -170.86968397077595
    Total Energy =                       -170.8696839707759239
  @DF-RHF Final Energy:  -170.93349081920658
    Total Energy =                       -170.9334908192065825
  @DF-RHF Final Energy:  -170.97636335645723
    Total Energy =                       -170.9763633564571137
  @DF-RHF Final Energy:  -170.91664402700687
    Total Energy =                       -170.9166440270068108
  @DF-RHF Final Energy:  -170.90303493822563
    Total Energy =                       -170.9030349382256304
  @DF-RHF Final Energy:  -170.89015889763158
    Total Energy =                       -170.8901588976316361
  @DF-RHF Final Energy:  -170.98226601594058
    Total Energy =                       -170.9822660159406382
  @DF-RHF Final Energy:  -170.82978568769789
    Total Energy =                       -170.8297856876978926
  @DF-RHF Final Energy:  -170.91021778878860
    Total Energy =                       -170.9102177887885716
  @DF-RHF Final Energy:  -170.91821292598888
    Total Energy =                       -170.9182129259888256
  Basis Set: CC-PVTZ
  Basis Set:
  @DF-RHF Final Energy:  -170.97893816819095
    Total Energy =                       -170.9789381681909219
  Basis Set: CC-PVTZ
  Basis Set:
  Basis Set: CC-PVTZ
  Basis Set:
  @DF-RHF Final Energy:  -170.90437650904880
    Total Energy =                       -170.9043765090487170
  Basis Set: CC-PVTZ
  Basis Set:
  Basis Set: CC-PVTZ
  Basis Set:
  @DF-RHF Final Energy:  -170.96624289951433
    Total Energy =                       -170.9662428995144126
  Basis Set: CC-PVTZ
  Basis Set:
  Charge       = 0
  Multiplicity = 1
  Basis Set: CC-PVTZ
  Basis Set:

    Orbital Energies (a.u.)
    -----------------------

    Doubly Occupied:

       1A    -15.625191     2A    -11.313286     3A    -11.281991
       4A    -11.245240     5A     -1.165887     6A     -1.064432
       7A     -0.903724     8A     -0.705327     9A     -0.656229
      10A     -0.592211    11A     -0.561204    12A     -0.541835
      13A     -0.528864    14A     -0.433708    15A     -0.420834

  @DF-RHF Final Energy:  -170.92959707437538

   => Energetics <=

    Nuclear Repulsion Energy =             99.8670339537907523
    One-Electron Energy =                -427.5133322307315211
    Two-Electron Energy =                 156.7167012025655026
    DFT Exchange-Correlation Energy =       0.0000000000000000
    Empirical Dispersion Energy =           0.0000000000000000
    PCM Polarization Energy =               0.0000000000000000
    EFP Energy =                            0.0000000000000000
    Total Energy =                       -170.9295970743752946
    Molecular point group: c1
  Basis Set: CC-PVTZ
  Basis Set:

  -Total Gradient:
     Atom            X                  Y                   Z
    ------   -----------------  -----------------  -----------------
       1       -0.003031315863     0.002299002268    -0.000543678071
       2       -0.006086962840    -0.004026007765    -0.008932270147
       3       -0.011287474172     0.032266528239     0.028605679385
       4       -0.000954612731     0.001397654114     0.003410412634
       5        0.000278564007    -0.003768658858     0.003532391953
       6       -0.188284625518    -0.000334188817     0.202293388808
       7       -0.003337561601     0.007684756980    -0.002857050388
       8        0.013600764602    -0.026791176492    -0.046259751660
       9        0.199103224114    -0.008727909670    -0.179249122513

    Molecular point group: c1

    Geometry (in Angstrom), charge = 0, multiplicity = 1:

    H           -2.697675009848     0.122615332737    -0.141148595225
    C           -1.777226321346    -0.459711283333    -0.116114481916
    C           -0.596325235701     0.502379482108     0.117107847921
    H           -1.675823439195    -0.993123975081    -1.050607465770
    H           -1.837838232732    -1.188178933378     0.691889834869
    C            0.743120650458    -0.224508811074     0.161808945393
    H           -0.529615601566     1.224576527653    -0.692256421544
    H           -0.739011457667     1.039389088692     0.971537616831
    N            1.935551120203     0.141054956865    -0.123638325442

  Mulliken Charges: (a.u.)
   Center  Symbol    Alpha    Beta     Spin     Total
       1     H     0.44828  0.44828  0.00000  0.10345
       2     C     3.13552  3.13552  0.00000 -0.27103
       3     C     3.07101  3.07101  0.00000 -0.14202
       4     H     0.44149  0.44149  0.00000  0.11702
       5     H     0.44787  0.44787  0.00000  0.10425
       6     C     3.02090  3.02090  0.00000 -0.04180
       7     H     0.43078  0.43078  0.00000  0.13844
       8     H     0.42246  0.42246  0.00000  0.15508
       9     N     3.58169  3.58169  0.00000 -0.16339

   Total alpha = 15.00000, Total beta = 15.00000, Total charge = -0.00000
