  ==> Input File <==

--------------------------------------------------------------------------
set {
	reference rhf
	basis 6-31G*
}

set_num_threads( 1 )
memory 2 gb

molecule MOL {
0 1

H	 -4.236494	 0.538104	 0.039757
O	 -3.517110	 -0.026191	 -0.205115
C	 -2.306886	 0.532354	 0.237577
C	 -1.177863	 -0.397191	 -0.171080
H	 -2.156308	 1.517575	 -0.201710
H	 -2.315015	 0.655684	 1.319734
C	 0.198102	 0.111031	 0.262842
H	 -1.208843	 -0.518759	 -1.250427
H	 -1.368741	 -1.376554	 0.258909
C	 1.331804	 -0.827780	 -0.158768
H	 0.361943	 1.100838	 -0.156218
H	 0.217265	 0.229072	 1.345532
C	 2.723619	 -0.410569	 0.329459
H	 1.342964	 -0.912588	 -1.244120
H	 1.116806	 -1.824343	 0.220779
C	 2.845328	 -0.254772	 1.846446
H	 2.982865	 0.535399	 -0.139609
H	 3.458696	 -1.132963	 -0.019787
H	 2.113186	 0.453063	 2.225890
H	 2.695466	 -1.195784	 2.365305
H	 3.830201	 0.112564	 2.118185

	symmetry c1
}
set optking {
	frozen_dihedral = ("
		2 3 4 8,
		8 4 7 10,
		4 7 10 14,
		1 2 3 5
	")
}

ee = energy('scf')
oeprop('DIPOLE', 'QUADRUPOLE', 'MULLIKEN_CHARGES')
f=open( 'psi4out.xyz', 'w' )
f.write( "21  " )
f.write( str(ee) + "\n" )
f.write( MOL.save_string_xyz() )
f.close()
--------------------------------------------------------------------------

    Molecular point group: c1

    Geometry (in Angstrom), charge = 0, multiplicity = 1:

       Center              X                  Y                   Z               Mass
    ------------   -----------------  -----------------  -----------------  -----------------
           H         -4.177738891153     0.706705540789    -0.271815943051     1.007825032070
           O         -3.458354891153     0.142410540789    -0.516687943051    15.994914619560
           C         -2.248130891153     0.700955540789    -0.073995943051    12.000000000000
           C         -1.119107891153    -0.228589459211    -0.482652943051    12.000000000000
           H         -2.097552891153     1.686176540789    -0.513282943051     1.007825032070
           H         -2.256259891153     0.824285540789     1.008161056949     1.007825032070
           C          0.256857108847     0.279632540789    -0.048730943051    12.000000000000
           H         -1.150087891153    -0.350157459211    -1.561999943051     1.007825032070
           H         -1.309985891153    -1.207952459211    -0.052663943051     1.007825032070
           C          1.390559108847    -0.659178459211    -0.470340943051    12.000000000000
           H          0.420698108847     1.269439540789    -0.467790943051     1.007825032070
           H          0.276020108847     0.397673540789     1.033959056949     1.007825032070
           C          2.782374108847    -0.241967459211     0.017886056949    12.000000000000
           H          1.401719108847    -0.743986459211    -1.555692943051     1.007825032070
           H          1.175561108847    -1.655741459211    -0.090793943051     1.007825032070
           C          2.904083108847    -0.086170459211     1.534873056949    12.000000000000
           H          3.041620108847     0.704000540789    -0.451181943051     1.007825032070
           H          3.517451108847    -0.964361459211    -0.331359943051     1.007825032070
           H          2.171941108847     0.621664540789     1.914317056949     1.007825032070
           H          2.754221108847    -1.027182459211     2.053732056949     1.007825032070
           H          3.888956108847     0.281165540789     1.806612056949     1.007825032070

  Charge       = 0
  Multiplicity = 1
  Basis Set: 6-31G*
  Basis Set:

    Orbital Energies (a.u.)
    -----------------------

    Doubly Occupied:

       1A    -20.551852     2A    -11.267070     3A    -11.215554
       4A    -11.215226     5A    -11.213633     6A    -11.210673
       7A    -11.208120     8A     -1.358675     9A     -1.086759
      10A     -1.032980    11A     -0.953826    12A     -0.877140
      13A     -0.807919    14A     -0.777344    15A     -0.692519
      16A     -0.661798    17A     -0.622091    18A     -0.609269
      19A     -0.586594    20A     -0.568633    21A     -0.537916
      22A     -0.520482    23A     -0.508307    24A     -0.487737
      25A     -0.479986    26A     -0.459245    27A     -0.455119
      28A     -0.443911    29A     -0.433987

  @DF-RHF Final Energy:  -310.21153101738253

   => Energetics <=

    Nuclear Repulsion Energy =            313.2426178850392944
    One-Electron Energy =               -1041.2200808035663613
    Two-Electron Energy =                 417.7659319011440857
    DFT Exchange-Correlation Energy =       0.0000000000000000
    Empirical Dispersion Energy =           0.0000000000000000
    PCM Polarization Energy =               0.0000000000000000
    EFP Energy =                            0.0000000000000000
    Total Energy =                       -310.2115310173829812

  Mulliken Charges: (a.u.)
   Center  Symbol    Alpha    Beta     Spin     Total
       1     H     0.28118  0.28118  0.00000  0.43765
       2     O     4.37178  4.37178  0.00000 -0.74356
       3     C     2.98972  2.98972  0.00000  0.02056
       4     C     3.15850  3.15850  0.00000 -0.31700
       5     H     0.43294  0.43294  0.00000  0.13412
       6     H     0.43291  0.43291  0.00000  0.13418
       7     C     3.16323  3.16323  0.00000 -0.32647
       8     H     0.41497  0.41497  0.00000  0.17005
       9     H     0.41465  0.41465  0.00000  0.17069
      10     C     3.15144  3.15144  0.00000 -0.30288
      11     H     0.42374  0.42374  0.00000  0.15252
      12     H     0.42132  0.42132  0.00000  0.15736
      13     C     3.15213  3.15213  0.00000 -0.30426
      14     H     0.42056  0.42056  0.00000  0.15888
      15     H     0.42350  0.42350  0.00000  0.15301
      16     C     3.24239  3.24239  0.00000 -0.48478
      17     H     0.42404  0.42404  0.00000  0.15193
      18     H     0.42020  0.42020  0.00000  0.15960
      19     H     0.42040  0.42040  0.00000  0.15919
      20     H     0.42143  0.42143  0.00000  0.15714
      21     H     0.41897  0.41897  0.00000  0.16207

   Total alpha = 29.00000, Total beta = 29.00000, Total charge =  0.00000
