  ==> Input File <==

--------------------------------------------------------------------------
set {
	reference rhf
	basis cc-pvtz
}

set_num_threads( 4 )
memory 2 gb

molecule MOL {
0 1

O	 0.395927	 1.296676	 -0.000076
C	 0.503051	 0.114301	 -0.000074
C	 -0.701422	 -0.805636	 -0.000109
C	 1.858118	 -0.556123	 0.000212
C	 -1.806122	 -0.380643	 0.954406
H	 -1.071041	 -0.861511	 -1.020744
H	 -0.349270	 -1.806624	 0.235376
H	 -2.174459	 0.605887	 0.706788
H	 -2.634103	 -1.077728	 0.905664
H	 -1.446306	 -0.347603	 1.974049
H	 1.961106	 -1.191101	 -0.872843
H	 2.636688	 0.191085	 -0.000109
H	 1.961070	 -1.190284	 0.873873

	symmetry c1
}
set optking {
	frozen_dihedral = ("
		6 3 2 1
	")
}

ee = optimize('scf')
oeprop('DIPOLE', 'QUADRUPOLE', 'MULLIKEN_CHARGES')
f=open( 'psi4out.xyz', 'w' )
f.write( "13  " )
f.write( str(ee) + "\n" )
f.write( MOL.save_string_xyz() )
f.close()
--------------------------------------------------------------------------

    Molecular point group: c1
  Charge       = 0
  Multiplicity = 1
  Basis Set: CC-PVTZ
  Basis Set:
  @DF-RHF Final Energy:  -231.08144914283847
    Total Energy =                       -231.0814491428386361
    Molecular point group: c1
  Basis Set: CC-PVTZ
  Basis Set:
  Basis Set: CC-PVTZ
  Basis Set:
  @DF-RHF Final Energy:  -231.08146434264498
    Total Energy =                       -231.0814643426450630
  Basis Set: CC-PVTZ
  Basis Set:
  Basis Set: CC-PVTZ
  Basis Set:
  @DF-RHF Final Energy:  -231.08193627054911
    Total Energy =                       -231.0819362705490221
  Basis Set: CC-PVTZ
  Basis Set:
  Basis Set: CC-PVTZ
  Basis Set:
  @DF-RHF Final Energy:  -231.08210308173904
    Total Energy =                       -231.0821030817390636
  Basis Set: CC-PVTZ
  Basis Set:
  Basis Set: CC-PVTZ
  Basis Set:
  @DF-RHF Final Energy:  -231.08210924633565
    Total Energy =                       -231.0821092463357331
  Basis Set: CC-PVTZ
  Basis Set:
  Charge       = 0
  Multiplicity = 1
  Basis Set: CC-PVTZ
  Basis Set:

    Orbital Energies (a.u.)
    -----------------------

    Doubly Occupied:

       1A    -20.538490     2A    -11.321519     3A    -11.232830
       4A    -11.228218     5A    -11.216224     6A     -1.399279
       7A     -1.062506     8A     -1.001668     9A     -0.879519
      10A     -0.732165    11A     -0.659923    12A     -0.644558
      13A     -0.617500    14A     -0.587857    15A     -0.572351
      16A     -0.529215    17A     -0.520689    18A     -0.505358
      19A     -0.484045    20A     -0.403251

  @DF-RHF Final Energy:  -231.08211159643048

   => Energetics <=

    Nuclear Repulsion Energy =            177.2008355345701034
    One-Electron Energy =                -664.2915702601919747
    Two-Electron Energy =                 256.0086231291912213
    DFT Exchange-Correlation Energy =       0.0000000000000000
    Empirical Dispersion Energy =           0.0000000000000000
    PCM Polarization Energy =               0.0000000000000000
    EFP Energy =                            0.0000000000000000
    Total Energy =                       -231.0821115964306500
    Molecular point group: c1
  Basis Set: CC-PVTZ
  Basis Set:

  -Total Gradient:
     Atom            X                  Y                   Z
    ------   -----------------  -----------------  -----------------
       1        0.000027388984     0.000100929921    -0.001579235887
       2       -0.000169173454     0.000149278297     0.002282523130
       3        0.001080348071    -0.001457008784    -0.001008312974
       4       -0.000028971765     0.000050999800     0.000042379824
       5       -0.000010513370     0.000039460861     0.000008709659
       6       -0.000924315776     0.001185932857     0.000317374182
       7        0.000008209715    -0.000032470697    -0.000010265220
       8        0.000012361848    -0.000007582356    -0.000010467007
       9        0.000010673482    -0.000001000051     0.000000709263
      10        0.000006332021    -0.000011786200    -0.000007287895
      11        0.000000918594    -0.000006831709    -0.000009547651
      12        0.000005533572    -0.000007579016    -0.000014702809
      13       -0.000018791919    -0.000002342923    -0.000011876616

  **** Optimization is complete! (in 6 steps) ****
    Final optimized geometry and variables:
    Molecular point group: c1

    Geometry (in Angstrom), charge = 0, multiplicity = 1:

    O            0.327461637257     1.347246853843    -0.142328181554
    C            0.462769097737     0.167939885167    -0.173970862469
    C           -0.735875180788    -0.765084491686    -0.193834793608
    C            1.827992901170    -0.471453003620    -0.240558783267
    C           -1.866067329066    -0.303492705251     0.720653042018
    H           -1.086321443295    -0.777512124607    -1.222892047707
    H           -0.427291314885    -1.775389356048     0.047116949222
    H           -2.173397107262     0.700997610869     0.468340549109
    H           -2.721069414850    -0.961767415527     0.627002156241
    H           -1.553470800453    -0.306152720538     1.758537051273
    H            1.881942735223    -1.151099537411    -1.084430596826
    H            2.591104598218     0.286577840445    -0.327168111141
    H            1.996621964521    -1.060195216718     0.655344420931

  Mulliken Charges: (a.u.)
   Center  Symbol    Alpha    Beta     Spin     Total
       1     O     4.17367  4.17367  0.00000 -0.34734
       2     C     2.85795  2.85795  0.00000  0.28409
       3     C     3.09985  3.09985  0.00000 -0.19969
       4     C     3.15156  3.15156  0.00000 -0.30312
       5     C     3.14399  3.14399  0.00000 -0.28798
       6     H     0.44510  0.44510  0.00000  0.10979
       7     H     0.44679  0.44679  0.00000  0.10641
       8     H     0.44037  0.44037  0.00000  0.11926
       9     H     0.44965  0.44965  0.00000  0.10070
      10     H     0.45454  0.45454  0.00000  0.09093
      11     H     0.45027  0.45027  0.00000  0.09945
      12     H     0.43642  0.43642  0.00000  0.12715
      13     H     0.44983  0.44983  0.00000  0.10035

   Total alpha = 20.00000, Total beta = 20.00000, Total charge = -0.00000
