  ==> Input File <==

--------------------------------------------------------------------------
set {
	reference rhf
	basis 6-31G*
}

set_num_threads( 4 )
memory 2 gb

molecule MOL {
0 1

H	 3.768385	 0.554601	 -0.713047
N	 2.986175	 -0.070774	 -0.688578
C	 1.865559	 0.531981	 0.018834
H	 3.293562	 -0.900365	 -0.217279
C	 0.645745	 -0.382037	 -0.029944
H	 1.630539	 1.470153	 -0.474582
H	 2.095362	 0.774557	 1.059385
C	 -0.679275	 0.379305	 0.025956
H	 0.698998	 -0.976915	 -0.937203
H	 0.693479	 -1.083846	 0.802235
C	 -1.903357	 -0.536963	 -0.023547
H	 -0.726309	 1.082987	 -0.803784
H	 -0.717680	 0.977832	 0.934877
C	 -3.225172	 0.228290	 0.028445
H	 -1.867824	 -1.134999	 -0.931459
H	 -1.860449	 -1.239604	 0.805977
H	 -3.313397	 0.915643	 -0.808262
H	 -4.073500	 -0.448134	 -0.008893
H	 -3.306061	 0.809945	 0.942516

	symmetry c1
}
set optking {
	frozen_dihedral = ("
		6 3 5 9
	")
}

ee = optimize('scf')
oeprop('DIPOLE', 'QUADRUPOLE', 'MULLIKEN_CHARGES')
f=open( 'psi4out.xyz', 'w' )
f.write( "19  " )
f.write( str(ee) + "\n" )
f.write( MOL.save_string_xyz() )
f.close()
--------------------------------------------------------------------------

    Molecular point group: c1
  Charge       = 0
  Multiplicity = 1
  Basis Set: 6-31G*
  Basis Set:
  @DF-RHF Final Energy:  -251.34900997853492
    Total Energy =                       -251.3490099785346956
    Molecular point group: c1
  Basis Set: 6-31G*
  Basis Set:
  Basis Set: 6-31G*
  Basis Set:
  @DF-RHF Final Energy:  -251.34925538386409
    Total Energy =                       -251.3492553838640902
  Basis Set: 6-31G*
  Basis Set:
  Basis Set: 6-31G*
  Basis Set:
  @DF-RHF Final Energy:  -251.34931700643787
    Total Energy =                       -251.3493170064377864
  Basis Set: 6-31G*
  Basis Set:
  Basis Set: 6-31G*
  Basis Set:
  @DF-RHF Final Energy:  -251.34931587999540
    Total Energy =                       -251.3493158799955154
  Basis Set: 6-31G*
  Basis Set:
  Basis Set: 6-31G*
  Basis Set:
  @DF-RHF Final Energy:  -251.34932255211973
    Total Energy =                       -251.3493225521199292
  Basis Set: 6-31G*
  Basis Set:
  Charge       = 0
  Multiplicity = 1
  Basis Set: 6-31G*
  Basis Set:

    Orbital Energies (a.u.)
    -----------------------

    Doubly Occupied:

       1A    -15.533106     2A    -11.239589     3A    -11.213791
       4A    -11.212950     5A    -11.209336     6A    -11.207322
       7A     -1.176644     8A     -1.072738     9A     -0.997805
      10A     -0.899994    11A     -0.813545    12A     -0.790033
      13A     -0.656818    14A     -0.648906    15A     -0.614389
      16A     -0.592229    17A     -0.558806    18A     -0.547887
      19A     -0.536186    20A     -0.494068    21A     -0.480977
      22A     -0.464747    23A     -0.459622    24A     -0.451118
      25A     -0.380196

  @DF-RHF Final Energy:  -251.34932261048857

   => Energetics <=

    Nuclear Repulsion Energy =            245.5596343641271915
    One-Electron Energy =                -825.3123082560927060
    Two-Electron Energy =                 328.4033512814770575
    DFT Exchange-Correlation Energy =       0.0000000000000000
    Empirical Dispersion Energy =           0.0000000000000000
    PCM Polarization Energy =               0.0000000000000000
    EFP Energy =                            0.0000000000000000
    Total Energy =                       -251.3493226104884570
    Molecular point group: c1
  Basis Set: 6-31G*
  Basis Set:

  -Total Gradient:
     Atom            X                  Y                   Z
    ------   -----------------  -----------------  -----------------
       1        0.000024083348    -0.000008176338    -0.000009213711
       2        0.000001690147     0.000022882060     0.000025554509
       3        0.002290533161    -0.002714301558    -0.004366713999
       4        0.000016370054    -0.000011542411    -0.000001637226
       5       -0.003044165220     0.004296567282    -0.001702147933
       6       -0.001480469243     0.001628865725     0.003878509706
       7        0.000015927452    -0.000011683584     0.000005261452
       8        0.000006741875    -0.000025998539     0.000023859651
       9        0.002193766487    -0.003176207790     0.002160196596
      10       -0.000012396221    -0.000007111422     0.000008669152
      11       -0.000015366293     0.000011158670    -0.000031171139
      12        0.000011574898    -0.000011368257     0.000001607544
      13       -0.000005968613     0.000007074537     0.000000972528
      14       -0.000004440512    -0.000006199677     0.000018890501
      15        0.000001676434     0.000004374484    -0.000006723578
      16        0.000001455368     0.000000276205    -0.000007409971
      17       -0.000001037963    -0.000008576012    -0.000004975553
      18       -0.000000847101     0.000000724312     0.000009278755
      19        0.000000871944     0.000009242313    -0.000002807282

  **** Optimization is complete! (in 6 steps) ****
    Final optimized geometry and variables:
    Molecular point group: c1

    Geometry (in Angstrom), charge = 0, multiplicity = 1:

    H            3.831505771768     0.509890575471    -0.473698813548
    N            3.034873514490    -0.094556341962    -0.537094894129
    C            1.882019009680     0.506367171318     0.116530841083
    H            3.287197458800    -0.951009330357    -0.080643677166
    C            0.654111781936    -0.403541866678     0.026809101441
    H            1.668956747794     1.458406682329    -0.360280047457
    H            2.065348037790     0.744822138143     1.167580954884
    C           -0.671869141766     0.351513639112     0.107671443717
    H            0.719733187369    -0.981219996158    -0.890792478271
    H            0.697116593708    -1.134638495508     0.833992740467
    C           -1.893186328512    -0.569156029421     0.104769096090
    H           -0.740866180835     1.042716319398    -0.730213747747
    H           -0.686705279867     0.962876822401     1.009286620731
    C           -3.216123507762     0.193116784743     0.170696711751
    H           -1.875523138991    -1.185305350173    -0.791544340958
    H           -1.829485060101    -1.254468859675     0.947314515641
    H           -3.327071505159     0.860043050039    -0.679638467167
    H           -4.062644525315    -0.486639252367     0.170048090018
    H           -3.276924911288     0.796023528915     1.072499481122

  Mulliken Charges: (a.u.)
   Center  Symbol    Alpha    Beta     Spin     Total
       1     H     0.33282  0.33282  0.00000  0.33437
       2     N     3.92063  3.92063  0.00000 -0.84127
       3     C     3.06083  3.06083  0.00000 -0.12166
       4     H     0.33533  0.33533  0.00000  0.32934
       5     C     3.15775  3.15775  0.00000 -0.31550
       6     H     0.42030  0.42030  0.00000  0.15939
       7     H     0.43459  0.43459  0.00000  0.13082
       8     C     3.15446  3.15446  0.00000 -0.30891
       9     H     0.41097  0.41097  0.00000  0.17806
      10     H     0.42665  0.42665  0.00000  0.14670
      11     C     3.15152  3.15152  0.00000 -0.30304
      12     H     0.42148  0.42148  0.00000  0.15704
      13     H     0.42493  0.42493  0.00000  0.15014
      14     C     3.23940  3.23940  0.00000 -0.47880
      15     H     0.42167  0.42167  0.00000  0.15665
      16     H     0.42348  0.42348  0.00000  0.15303
      17     H     0.42148  0.42148  0.00000  0.15705
      18     H     0.41944  0.41944  0.00000  0.16113
      19     H     0.42228  0.42228  0.00000  0.15544

   Total alpha = 25.00000, Total beta = 25.00000, Total charge =  0.00000
