  ==> Input File <==

--------------------------------------------------------------------------
set {
	reference rhf
	basis 6-31G*
}

set_num_threads( 1 )
memory 2 gb

molecule MOL {
0 1

H	 -3.420663	 1.227371	 -1.044276
O	 -3.452007	 0.283848	 -0.965577
C	 -3.181085	 -0.079926	 0.364119
C	 -1.765924	 0.277073	 0.805136
H	 -3.327791	 -1.152017	 0.410903
H	 -3.905698	 0.375695	 1.036898
C	 -0.677594	 -0.417312	 -0.014550
H	 -1.637766	 1.358238	 0.744969
H	 -1.659588	 0.017670	 1.857098
C	 0.038862	 -1.527451	 0.757111
H	 0.044179	 0.322105	 -0.347741
H	 -1.124575	 -0.834732	 -0.915306
C	 1.122774	 -2.221787	 -0.071815
H	 0.474449	 -1.106129	 1.659980
H	 -0.689296	 -2.267780	 1.086206
C	 1.808980	 -3.400634	 0.627897
H	 1.875379	 -1.491071	 -0.363936
H	 0.676274	 -2.582053	 -0.996295
C	 2.639422	 -3.016465	 1.853941
H	 2.457475	 -3.896885	 -0.090072
H	 1.058570	 -4.134371	 0.915505
H	 3.390760	 -2.273773	 1.598917
H	 3.155792	 -3.882544	 2.256567
H	 2.025197	 -2.606326	 2.648723

	symmetry c1
}
set optking {
	frozen_dihedral = ("
		20 16 13 17,
		17 13 10 7,
		13 10 7 11,
		1 2 3 5,
		7 4 3 2
	")
}

ee = energy('scf')
oeprop('DIPOLE', 'QUADRUPOLE', 'MULLIKEN_CHARGES')
f=open( 'psi4out.xyz', 'w' )
f.write( "24  " )
f.write( str(ee) + "\n" )
f.write( MOL.save_string_xyz() )
f.close()
--------------------------------------------------------------------------

    Molecular point group: c1

    Geometry (in Angstrom), charge = 0, multiplicity = 1:

       Center              X                  Y                   Z               Mass
    ------------   -----------------  -----------------  -----------------  -----------------
           H         -2.938391764523     2.460610415129    -1.448665209859     1.007825032070
           O         -2.969735764523     1.517087415129    -1.369966209859    15.994914619560
           C         -2.698813764523     1.153313415129    -0.040270209859    12.000000000000
           C         -1.283652764523     1.510312415129     0.400746790141    12.000000000000
           H         -2.845519764523     0.081222415129     0.006513790141     1.007825032070
           H         -3.423426764523     1.608934415129     0.632508790141     1.007825032070
           C         -0.195322764523     0.815927415129    -0.418939209859    12.000000000000
           H         -1.155494764523     2.591477415129     0.340579790141     1.007825032070
           H         -1.177316764523     1.250909415129     1.452708790141     1.007825032070
           C          0.521133235477    -0.294211584871     0.352721790141    12.000000000000
           H          0.526450235477     1.555344415129    -0.752130209859     1.007825032070
           H         -0.642303764523     0.398507415129    -1.319695209859     1.007825032070
           C          1.605045235477    -0.988547584871    -0.476204209859    12.000000000000
           H          0.956720235477     0.127110415129     1.255590790141     1.007825032070
           H         -0.207024764523    -1.034540584871     0.681816790141     1.007825032070
           C          2.291251235477    -2.167394584871     0.223507790141    12.000000000000
           H          2.357650235477    -0.257831584871    -0.768325209859     1.007825032070
           H          1.158545235477    -1.348813584871    -1.400684209859     1.007825032070
           C          3.121693235477    -1.783225584871     1.449551790141    12.000000000000
           H          2.939746235477    -2.663645584871    -0.494461209859     1.007825032070
           H          1.540841235477    -2.901131584871     0.511115790141     1.007825032070
           H          3.873031235477    -1.040533584871     1.194527790141     1.007825032070
           H          3.638063235477    -2.649304584871     1.852177790141     1.007825032070
           H          2.507468235477    -1.373086584871     2.244333790141     1.007825032070

  Charge       = 0
  Multiplicity = 1
  Basis Set: 6-31G*
  Basis Set:

    Orbital Energies (a.u.)
    -----------------------

    Doubly Occupied:

       1A    -20.553861     2A    -11.267783     3A    -11.215960
       4A    -11.213478     5A    -11.212164     6A    -11.210786
       7A    -11.209313     8A    -11.206933     9A     -1.360415
      10A     -1.088374    11A     -1.047867    12A     -0.984052
      13A     -0.914438    14A     -0.853771    15A     -0.798075
      16A     -0.776260    17A     -0.678661    18A     -0.647929
      19A     -0.634052    20A     -0.612717    21A     -0.605795
      22A     -0.575823    23A     -0.553711    24A     -0.544832
      25A     -0.521577    26A     -0.508905    27A     -0.492067
      28A     -0.478146    29A     -0.468098    30A     -0.459556
      31A     -0.451704    32A     -0.441784    33A     -0.422019

  @DF-RHF Final Energy:  -349.24292470683190

   => Energetics <=

    Nuclear Repulsion Energy =            386.5579132556255217
    One-Electron Energy =               -1239.5797124601715495
    Two-Electron Energy =                 503.7788744977141278
    DFT Exchange-Correlation Energy =       0.0000000000000000
    Empirical Dispersion Energy =           0.0000000000000000
    PCM Polarization Energy =               0.0000000000000000
    EFP Energy =                            0.0000000000000000
    Total Energy =                       -349.2429247068319000

  Mulliken Charges: (a.u.)
   Center  Symbol    Alpha    Beta     Spin     Total
       1     H     0.28326  0.28326  0.00000  0.43348
       2     O     4.36817  4.36817  0.00000 -0.73635
       3     C     2.99877  2.99877  0.00000  0.00246
       4     C     3.17031  3.17031  0.00000 -0.34062
       5     H     0.41645  0.41645  0.00000  0.16711
       6     H     0.42857  0.42857  0.00000  0.14287
       7     C     3.15745  3.15745  0.00000 -0.31491
       8     H     0.42561  0.42561  0.00000  0.14877
       9     H     0.41996  0.41996  0.00000  0.16008
      10     C     3.15635  3.15635  0.00000 -0.31271
      11     H     0.42163  0.42163  0.00000  0.15675
      12     H     0.40697  0.40697  0.00000  0.18606
      13     C     3.15282  3.15282  0.00000 -0.30565
      14     H     0.42245  0.42245  0.00000  0.15510
      15     H     0.42510  0.42510  0.00000  0.14980
      16     C     3.15227  3.15227  0.00000 -0.30455
      17     H     0.42452  0.42452  0.00000  0.15095
      18     H     0.42093  0.42093  0.00000  0.15815
      19     C     3.24093  3.24093  0.00000 -0.48186
      20     H     0.42116  0.42116  0.00000  0.15768
      21     H     0.42358  0.42358  0.00000  0.15284
      22     H     0.42254  0.42254  0.00000  0.15492
      23     H     0.41958  0.41958  0.00000  0.16085
      24     H     0.42061  0.42061  0.00000  0.15877

   Total alpha = 33.00000, Total beta = 33.00000, Total charge = -0.00000
