  ==> Input File <==

--------------------------------------------------------------------------
set {
	reference rhf
	basis 6-31G*
}

set_num_threads( 1 )
memory 2 gb

molecule MOL {
0 1

O	 3.225979	 0.970355	 -0.599647
C	 2.701189	 0.057885	 -0.047330
C	 1.245376	 -0.013843	 0.345420
O	 3.347903	 -1.046386	 0.304773
C	 0.455112	 1.231400	 -0.050772
H	 0.838542	 -0.913825	 -0.103701
H	 1.208210	 -0.175333	 1.419774
C	 -0.998893	 1.219485	 0.433193
H	 0.482531	 1.345121	 -1.130325
H	 0.957290	 2.103070	 0.354729
C	 -1.970100	 0.442533	 -0.460235
H	 -1.339279	 2.250056	 0.502362
H	 -1.040847	 0.819728	 1.445341
C	 -3.423677	 0.552404	 0.004567
H	 -1.890324	 0.812120	 -1.481440
H	 -1.690440	 -0.608038	 -0.492850
C	 -4.402540	 -0.224393	 -0.877785
H	 -3.715865	 1.600902	 0.027184
H	 -3.502169	 0.192966	 1.029429
C	 -5.852388	 -0.106370	 -0.409051
H	 -4.324688	 0.132837	 -1.902465
H	 -4.114676	 -1.273441	 -0.898142
H	 -6.521653	 -0.667340	 -1.054034
H	 -6.181940	 0.928805	 -0.410899
H	 -5.970078	 -0.487759	 0.601377
C	 4.728119	 -1.109107	 -0.004993
H	 4.882018	 -1.033965	 -1.071845
H	 5.068212	 -2.067527	 0.355250
H	 5.265056	 -0.311663	 0.488280

	symmetry c1
}
set optking {
	frozen_dihedral = ("
		21 17 14 11,
		17 14 11 15,
		15 11 8 5,
		6 3 5 9,
		2 4 26 27,
		1 2 4 26,
		6 3 2 1
	")
}

ee = energy('scf')
oeprop('DIPOLE', 'QUADRUPOLE', 'MULLIKEN_CHARGES')
f=open( 'psi4out.xyz', 'w' )
f.write( "29  " )
f.write( str(ee) + "\n" )
f.write( MOL.save_string_xyz() )
f.close()
--------------------------------------------------------------------------

    Molecular point group: c1

    Geometry (in Angstrom), charge = 0, multiplicity = 1:

       Center              X                  Y                   Z               Mass
    ------------   -----------------  -----------------  -----------------  -----------------
           O          3.269133092070     0.805609972035    -0.474051758106    15.994914619560
           C          2.744343092070    -0.106860027965     0.078265241894    12.000000000000
           C          1.288530092070    -0.178588027965     0.471015241894    12.000000000000
           O          3.391057092070    -1.211131027965     0.430368241894    15.994914619560
           C          0.498266092070     1.066654972035     0.074823241894    12.000000000000
           H          0.881696092070    -1.078570027965     0.021894241894     1.007825032070
           H          1.251364092070    -0.340078027965     1.545369241894     1.007825032070
           C         -0.955738907930     1.054739972035     0.558788241894    12.000000000000
           H          0.525685092070     1.180375972035    -1.004729758106     1.007825032070
           H          1.000444092070     1.938324972035     0.480324241894     1.007825032070
           C         -1.926945907930     0.277787972035    -0.334639758106    12.000000000000
           H         -1.296124907930     2.085310972035     0.627957241894     1.007825032070
           H         -0.997692907930     0.654982972035     1.570936241894     1.007825032070
           C         -3.380522907930     0.387658972035     0.130162241894    12.000000000000
           H         -1.847169907930     0.647374972035    -1.355844758106     1.007825032070
           H         -1.647285907930    -0.772783027965    -0.367254758106     1.007825032070
           C         -4.359385907930    -0.389138027965    -0.752189758106    12.000000000000
           H         -3.672710907930     1.436156972035     0.152779241894     1.007825032070
           H         -3.459014907930     0.028220972035     1.155024241894     1.007825032070
           C         -5.809233907930    -0.271115027965    -0.283455758106    12.000000000000
           H         -4.281533907930    -0.031908027965    -1.776869758106     1.007825032070
           H         -4.071521907930    -1.438186027965    -0.772546758106     1.007825032070
           H         -6.478498907930    -0.832085027965    -0.928438758106     1.007825032070
           H         -6.138785907930     0.764059972035    -0.285303758106     1.007825032070
           H         -5.926923907930    -0.652504027965     0.726972241894     1.007825032070
           C          4.771273092070    -1.273852027965     0.120602241894    12.000000000000
           H          4.925172092070    -1.198710027965    -0.946249758106     1.007825032070
           H          5.111366092070    -2.232272027965     0.480845241894     1.007825032070
           H          5.308210092070    -0.476408027965     0.613875241894     1.007825032070

  Charge       = 0
  Multiplicity = 1
  Basis Set: 6-31G*
  Basis Set:

    Orbital Energies (a.u.)
    -----------------------

    Doubly Occupied:

       1A    -20.603387     2A    -20.545296     3A    -11.372001
       4A    -11.280686     5A    -11.235082     6A    -11.218652
       7A    -11.217184     8A    -11.215690     9A    -11.215558
      10A    -11.214081    11A    -11.208823    12A     -1.469112
      13A     -1.362566    14A     -1.097414    15A     -1.066917
      16A     -1.019757    17A     -0.977326    18A     -0.928166
      19A     -0.860048    20A     -0.799526    21A     -0.790229
      22A     -0.765314    23A     -0.700551    24A     -0.682201
      25A     -0.672441    26A     -0.649684    27A     -0.628222
      28A     -0.604864    29A     -0.595495    30A     -0.581366
      31A     -0.566492    32A     -0.547737    33A     -0.533300
      34A     -0.530268    35A     -0.515310    36A     -0.508811
      37A     -0.498268    38A     -0.477633    39A     -0.470077
      40A     -0.462423    41A     -0.458776    42A     -0.455863
      43A     -0.441481    44A     -0.434228

  @DF-RHF Final Energy:  -501.04307689124141

   => Energetics <=

    Nuclear Repulsion Energy =            607.9146872161348938
    One-Electron Energy =               -1886.9589644326119924
    Two-Electron Energy =                 778.0012003252379600
    DFT Exchange-Correlation Energy =       0.0000000000000000
    Empirical Dispersion Energy =           0.0000000000000000
    PCM Polarization Energy =               0.0000000000000000
    EFP Energy =                            0.0000000000000000
    Total Energy =                       -501.0430768912390249

  Mulliken Charges: (a.u.)
   Center  Symbol    Alpha    Beta     Spin     Total
       1     O     4.28591  4.28591  0.00000 -0.57182
       2     C     2.60534  2.60534  0.00000  0.78932
       3     C     3.20846  3.20846  0.00000 -0.41693
       4     O     4.30752  4.30752  0.00000 -0.61504
       5     C     3.15484  3.15484  0.00000 -0.30967
       6     H     0.39966  0.39966  0.00000  0.20069
       7     H     0.40085  0.40085  0.00000  0.19829
       8     C     3.15768  3.15768  0.00000 -0.31537
       9     H     0.41236  0.41236  0.00000  0.17528
      10     H     0.40857  0.40857  0.00000  0.18286
      11     C     3.15322  3.15322  0.00000 -0.30644
      12     H     0.41821  0.41821  0.00000  0.16358
      13     H     0.42394  0.42394  0.00000  0.15212
      14     C     3.15078  3.15078  0.00000 -0.30157
      15     H     0.42196  0.42196  0.00000  0.15608
      16     H     0.42444  0.42444  0.00000  0.15111
      17     C     3.15146  3.15146  0.00000 -0.30292
      18     H     0.42333  0.42333  0.00000  0.15334
      19     H     0.42413  0.42413  0.00000  0.15173
      20     C     3.23932  3.23932  0.00000 -0.47864
      21     H     0.42271  0.42271  0.00000  0.15458
      22     H     0.42343  0.42343  0.00000  0.15314
      23     H     0.41925  0.41925  0.00000  0.16150
      24     H     0.42159  0.42159  0.00000  0.15683
      25     H     0.42190  0.42190  0.00000  0.15620
      26     C     3.09241  3.09241  0.00000 -0.18483
      27     H     0.40908  0.40908  0.00000  0.18183
      28     H     0.40852  0.40852  0.00000  0.18297
      29     H     0.40913  0.40913  0.00000  0.18175

   Total alpha = 44.00000, Total beta = 44.00000, Total charge =  0.00000
