  ==> Input File <==

--------------------------------------------------------------------------
set {
	reference rhf
	basis 6-31G*
}

set_num_threads( 4 )
memory 2 gb

molecule MOL {
0 1

H	 -1.836216	 1.387520	 -0.000064
C	 -1.301823	 0.443321	 -0.000031
O	 -0.003969	 0.658512	 0.000451
O	 -1.829879	 -0.616434	 -0.000857
C	 0.850537	 -0.484732	 0.000380
C	 2.217385	 -0.029845	 -0.463432
H	 0.431345	 -1.233189	 -0.657957
H	 0.881730	 -0.897252	 0.999454
H	 2.165535	 0.387690	 -1.462437
H	 2.900334	 -0.872811	 -0.478318
H	 2.618244	 0.725270	 0.202903

	symmetry c1
}
set optking {
	frozen_dihedral = ("
		7 5 3 2
	")
}

ee = optimize('scf')
oeprop('DIPOLE', 'QUADRUPOLE', 'MULLIKEN_CHARGES')
f=open( 'psi4out.xyz', 'w' )
f.write( "11  " )
f.write( str(ee) + "\n" )
f.write( MOL.save_string_xyz() )
f.close()
--------------------------------------------------------------------------

    Molecular point group: c1
  Charge       = 0
  Multiplicity = 1
  Basis Set: 6-31G*
  Basis Set:
  @DF-RHF Final Energy:  -266.82839949534480
    Total Energy =                       -266.8283994953447973
    Molecular point group: c1
  Basis Set: 6-31G*
  Basis Set:
  Basis Set: 6-31G*
  Basis Set:
  @DF-RHF Final Energy:  -266.82842781823285
    Total Energy =                       -266.8284278182329672
  Basis Set: 6-31G*
  Basis Set:
  Basis Set: 6-31G*
  Basis Set:
  @DF-RHF Final Energy:  -266.82767395230223
    Total Energy =                       -266.8276739523021774
  Basis Set: 6-31G*
  Basis Set:
  Basis Set: 6-31G*
  Basis Set:
  @DF-RHF Final Energy:  -266.82848047730840
    Total Energy =                       -266.8284804773084034
  Basis Set: 6-31G*
  Basis Set:
  Charge       = 0
  Multiplicity = 1
  Basis Set: 6-31G*
  Basis Set:

    Orbital Energies (a.u.)
    -----------------------

    Doubly Occupied:

       1A    -20.612770     2A    -20.556802     3A    -11.378626
       4A    -11.291579     5A    -11.226969     6A     -1.475795
       7A     -1.374035     8A     -1.052819     9A     -0.903401
      10A     -0.804999    11A     -0.738801    12A     -0.688544
      13A     -0.677205    14A     -0.592986    15A     -0.574955
      16A     -0.557279    17A     -0.522224    18A     -0.511166
      19A     -0.459812    20A     -0.453576

  @DF-RHF Final Energy:  -266.82849384621829

   => Energetics <=

    Nuclear Repulsion Energy =            179.2487326532340148
    One-Electron Energy =                -719.2457681102875995
    Two-Electron Energy =                 273.1685416108352342
    DFT Exchange-Correlation Energy =       0.0000000000000000
    Empirical Dispersion Energy =           0.0000000000000000
    PCM Polarization Energy =               0.0000000000000000
    EFP Energy =                            0.0000000000000000
    Total Energy =                       -266.8284938462183504
    Molecular point group: c1
  Basis Set: 6-31G*
  Basis Set:

  -Total Gradient:
     Atom            X                  Y                   Z
    ------   -----------------  -----------------  -----------------
       1        0.000037126997     0.000012102687     0.000037081945
       2       -0.000099330699     0.000013500664    -0.001339978207
       3       -0.000197634111    -0.000171649406     0.002062221537
       4        0.000098926977     0.000009183145     0.000022091815
       5        0.000910215194     0.000685680311    -0.001849947758
       6       -0.000000945773     0.000005326741    -0.000019313619
       7       -0.000734142805    -0.000539344633     0.001092876530
       8       -0.000002489575    -0.000009674786     0.000001538608
       9        0.000004193916     0.000006095861    -0.000008383467
      10       -0.000003627633    -0.000002548492     0.000001979383
      11       -0.000012292484    -0.000008672092    -0.000000166767

  **** Optimization is complete! (in 5 steps) ****
    Final optimized geometry and variables:
    Molecular point group: c1

    Geometry (in Angstrom), charge = 0, multiplicity = 1:

    H           -1.816250442755     1.403041174729     0.078727134938
    C           -1.290536392651     0.454207135049     0.096007710821
    O            0.008919012300     0.660541940780     0.087667562412
    O           -1.829269618568    -0.599852593236     0.120560835641
    C            0.867866702114    -0.479968384841     0.074158552581
    C            2.237779247431    -0.018096899677    -0.373293717315
    H            0.451755277053    -1.228669274891    -0.583144872416
    H            0.895324275278    -0.895684485368     1.073410901106
    H            2.195664973748     0.395194843374    -1.374520630235
    H            2.926289310315    -0.856758774632    -0.375865950522
    H            2.625303187661     0.741904002207     0.295261427099

  Mulliken Charges: (a.u.)
   Center  Symbol    Alpha    Beta     Spin     Total
       1     H     0.41072  0.41072  0.00000  0.17856
       2     C     2.72746  2.72746  0.00000  0.54508
       3     O     4.29143  4.29143  0.00000 -0.58287
       4     O     4.26321  4.26321  0.00000 -0.52642
       5     C     3.00811  3.00811  0.00000 -0.01622
       6     C     3.24889  3.24889  0.00000 -0.49779
       7     H     0.40282  0.40282  0.00000  0.19435
       8     H     0.41122  0.41122  0.00000  0.17756
       9     H     0.41096  0.41096  0.00000  0.17809
      10     H     0.41513  0.41513  0.00000  0.16975
      11     H     0.41005  0.41005  0.00000  0.17991

   Total alpha = 20.00000, Total beta = 20.00000, Total charge = -0.00000
