  ==> Input File <==

--------------------------------------------------------------------------
set {
	reference rhf
	basis 6-31G*
}

set_num_threads( 4 )
memory 2 gb

molecule MOL {
0 1

O	 -0.940962	 1.557135	 2.354583
C	 -0.609338	 1.864630	 1.250089
C	 0.642605	 1.278223	 0.621542
C	 -1.428446	 2.821195	 0.412580
C	 0.379448	 -0.143569	 0.099626
H	 1.410728	 1.246437	 1.386580
H	 0.996651	 1.911077	 -0.187268
C	 1.631333	 -0.777471	 -0.511575
H	 0.011322	 -0.743658	 0.924103
H	 -0.411212	 -0.118682	 -0.648694
C	 2.915987	 -0.544314	 0.291766
H	 1.766672	 -0.399098	 -1.523130
H	 1.471257	 -1.849544	 -0.605828
C	 3.373361	 0.914346	 0.347591
H	 3.708709	 -1.142521	 -0.150311
H	 2.780642	 -0.921148	 1.303579
H	 3.506512	 1.320010	 -0.651625
H	 4.322697	 0.999599	 0.867103
H	 2.660624	 1.545032	 0.868198
H	 -0.863921	 3.734515	 0.243989
H	 -2.352963	 3.059162	 0.919950
H	 -1.642155	 2.392503	 -0.562281

	symmetry c1
}
set optking {
	frozen_dihedral = ("
		3 5 8 12
	")
}

ee = optimize('scf')
oeprop('DIPOLE', 'QUADRUPOLE', 'MULLIKEN_CHARGES')
f=open( 'psi4out.xyz', 'w' )
f.write( "22  " )
f.write( str(ee) + "\n" )
f.write( MOL.save_string_xyz() )
f.close()
--------------------------------------------------------------------------

    Molecular point group: c1
  Charge       = 0
  Multiplicity = 1
  Basis Set: 6-31G*
  Basis Set:
  @DF-RHF Final Energy:  -348.06482867074118
    Total Energy =                       -348.0648286707411216
    Molecular point group: c1
  Basis Set: 6-31G*
  Basis Set:
  Basis Set: 6-31G*
  Basis Set:
  @DF-RHF Final Energy:  -348.08397595809339
    Total Energy =                       -348.0839759580930490
  Basis Set: 6-31G*
  Basis Set:
  Basis Set: 6-31G*
  Basis Set:
  @DF-RHF Final Energy:  -348.08968182973092
    Total Energy =                       -348.0896818297307505
  Basis Set: 6-31G*
  Basis Set:
  Basis Set: 6-31G*
  Basis Set:
  @DF-RHF Final Energy:  -348.09080164712765
    Total Energy =                       -348.0908016471280462
  Basis Set: 6-31G*
  Basis Set:
  @DF-RHF Final Energy:  -348.08927783297969
    Total Energy =                       -348.0892778329796329
  @DF-RHF Final Energy:  -348.09196462814293
    Total Energy =                       -348.0919646281432165
  @DF-RHF Final Energy:  -348.09080698617493
    Total Energy =                       -348.0908069861753802
  @DF-RHF Final Energy:  -348.09223652438624
    Total Energy =                       -348.0922365243864647
  Basis Set: 6-31G*
  Basis Set:
  @DF-RHF Final Energy:  -348.09213174250959
    Total Energy =                       -348.0921317425093093
  Basis Set: 6-31G*
  Basis Set:
  Basis Set: 6-31G*
  Basis Set:
  @DF-RHF Final Energy:  -348.09207121505239
    Total Energy =                       -348.0920712150522718
  Basis Set: 6-31G*
  Basis Set:
  Basis Set: 6-31G*
  Basis Set:
  @DF-RHF Final Energy:  -348.09231500242691
    Total Energy =                       -348.0923150024266874
  Basis Set: 6-31G*
  Basis Set:
  Charge       = 0
  Multiplicity = 1
  Basis Set: 6-31G*
  Basis Set:

    Orbital Energies (a.u.)
    -----------------------

    Doubly Occupied:

       1A    -20.547412     2A    -11.324386     3A    -11.230911
       4A    -11.228678     5A    -11.228176     6A    -11.222938
       7A    -11.221428     8A    -11.213127     9A     -1.393163
      10A     -1.094153    11A     -1.041752    12A     -0.998966
      13A     -0.945444    14A     -0.856544    15A     -0.784300
      16A     -0.734957    17A     -0.655926    18A     -0.654846
      19A     -0.620271    20A     -0.608331    21A     -0.599680
      22A     -0.592000    23A     -0.557808    24A     -0.549887
      25A     -0.536019    26A     -0.522675    27A     -0.500563
      28A     -0.487482    29A     -0.467113    30A     -0.462811
      31A     -0.455761    32A     -0.396275

  @DF-RHF Final Energy:  -348.09231536254833

   => Energetics <=

    Nuclear Repulsion Energy =            378.9894036243395021
    One-Electron Energy =               -1222.6958772150717323
    Two-Electron Energy =                 495.6141582281840670
    DFT Exchange-Correlation Energy =       0.0000000000000000
    Empirical Dispersion Energy =           0.0000000000000000
    PCM Polarization Energy =               0.0000000000000000
    EFP Energy =                            0.0000000000000000
    Total Energy =                       -348.0923153625481632
    Molecular point group: c1
  Basis Set: 6-31G*
  Basis Set:

  -Total Gradient:
     Atom            X                  Y                   Z
    ------   -----------------  -----------------  -----------------
       1       -0.000001172413     0.000008072584     0.000015839646
       2       -0.000006504729    -0.000030915858    -0.000004108883
       3        0.000593722175    -0.001390416048     0.002917308611
       4       -0.000011765152     0.000043578003     0.000018852033
       5       -0.001550412822     0.001237964470    -0.004584655137
       6        0.000050573568     0.000005291822    -0.000027079252
       7        0.000041784493     0.000029155665    -0.000005651225
       8        0.003294366880     0.003516320381     0.003710846332
       9       -0.000027531596    -0.000039041042     0.000004822721
      10        0.000053167801    -0.000021553574    -0.000008484757
      11       -0.000031244492     0.000037304471    -0.000069002264
      12       -0.002360063536    -0.003298933386    -0.001891518782
      13        0.000003025417    -0.000027871088     0.000010375673
      14        0.000147320032    -0.000075230968    -0.000050840170
      15       -0.000063434888    -0.000013808117    -0.000072671354
      16       -0.000033545745    -0.000023182396     0.000022943662
      17        0.000071839143    -0.000000737808     0.000005517627
      18       -0.000046887871     0.000012751024     0.000021417772
      19       -0.000101994804     0.000046702464     0.000006016115
      20       -0.000001041795    -0.000019587370    -0.000003032186
      21       -0.000011374170     0.000005121884    -0.000009570556
      22       -0.000008825496    -0.000000985112    -0.000007325626

  **** Optimization is complete! (in 12 steps) ****
    Final optimized geometry and variables:
    Molecular point group: c1

    Geometry (in Angstrom), charge = 0, multiplicity = 1:

    O           -1.920252840560     0.564341388842     1.738273505979
    C           -1.536085153406     0.946614766976     0.674961660987
    C           -0.191635305647     0.501805135349     0.126051379678
    C           -2.370336509982     1.869838880031    -0.185424215284
    C           -0.317980535716    -0.887801932817    -0.521074980749
    H            0.499810926628     0.462712603612     0.957952337263
    H            0.179167355706     1.224480208060    -0.595418382213
    C            0.966793562503    -1.478633262009    -1.126066931598
    H           -0.686194908018    -1.564158609071     0.244871695983
    H           -1.078684868043    -0.862323941974    -1.297801299015
    C            2.240342226016    -1.419670989506    -0.266379804302
    H            1.147972741374    -1.043824377303    -2.107272836973
    H            0.744527209167    -2.523713868980    -1.328643655694
    C            3.102106780147    -0.169809347970    -0.464227511667
    H            2.851991405190    -2.284681812907    -0.506967537574
    H            1.977569717049    -1.526558991171     0.783664582397
    H            3.427897407454    -0.088395515444    -1.497416116112
    H            3.990814141260    -0.215224837727     0.157792032473
    H            2.574835975131     0.743445980289    -0.213825510534
    H           -1.884874915173     2.839770097557    -0.254575165947
    H           -3.353217344651     1.991590215994     0.248058156198
    H           -2.457877129367     1.482845156309    -1.196338243222

  Mulliken Charges: (a.u.)
   Center  Symbol    Alpha    Beta     Spin     Total
       1     O     4.26225  4.26225  0.00000 -0.52451
       2     C     2.73685  2.73685  0.00000  0.52631
       3     C     3.20292  3.20292  0.00000 -0.40585
       4     C     3.28938  3.28938  0.00000 -0.57875
       5     C     3.16297  3.16297  0.00000 -0.32595
       6     H     0.39906  0.39906  0.00000  0.20188
       7     H     0.41698  0.41698  0.00000  0.16604
       8     C     3.15468  3.15468  0.00000 -0.30936
       9     H     0.40693  0.40693  0.00000  0.18614
      10     H     0.41923  0.41923  0.00000  0.16155
      11     C     3.15948  3.15948  0.00000 -0.31896
      12     H     0.42195  0.42195  0.00000  0.15611
      13     H     0.41703  0.41703  0.00000  0.16593
      14     C     3.24098  3.24098  0.00000 -0.48196
      15     H     0.41789  0.41789  0.00000  0.16422
      16     H     0.41804  0.41804  0.00000  0.16392
      17     H     0.42138  0.42138  0.00000  0.15724
      18     H     0.41828  0.41828  0.00000  0.16343
      19     H     0.42011  0.42011  0.00000  0.15978
      20     H     0.40670  0.40670  0.00000  0.18660
      21     H     0.39703  0.39703  0.00000  0.20594
      22     H     0.40987  0.40987  0.00000  0.18027

   Total alpha = 32.00000, Total beta = 32.00000, Total charge = -0.00000
