  ==> Input File <==

--------------------------------------------------------------------------
set {
	reference rhf
	basis 6-31G*
}

set_num_threads( 1 )
memory 2 gb

molecule MOL {
0 1

H	 -3.892951	 0.981613	 -0.358725
C	 -3.196921	 0.361773	 0.172313
C	 -2.076860	 -0.007332	 -0.404944
H	 -3.439953	 0.057760	 1.173024
O	 -0.861342	 0.292551	 0.123683
H	 -2.053492	 -0.581970	 -1.314032
C	 0.268575	 0.022385	 -0.632723
C	 0.603647	 1.164439	 -1.565317
H	 0.161323	 -0.878293	 -1.226837
H	 1.097940	 -0.103869	 0.047497
F	 1.708291	 0.875059	 -2.237498
F	 -0.359149	 1.376437	 -2.447311
F	 0.807725	 2.291146	 -0.914722

	symmetry c1
}
set optking {
	frozen_dihedral = ("
		11 8 7 9,
		3 5 7 9,
		6 3 5 7
	")
}

ee = energy('scf')
oeprop('DIPOLE', 'QUADRUPOLE', 'MULLIKEN_CHARGES')
f=open( 'psi4out.xyz', 'w' )
f.write( "13  " )
f.write( str(ee) + "\n" )
f.write( MOL.save_string_xyz() )
f.close()
--------------------------------------------------------------------------

    Molecular point group: c1

    Geometry (in Angstrom), charge = 0, multiplicity = 1:

       Center              X                  Y                   Z               Mass
    ------------   -----------------  -----------------  -----------------  -----------------
           H         -3.624683919103     0.117142348124     0.714550554419     1.007825032070
           C         -2.928653919103    -0.502697651876     1.245588554419    12.000000000000
           C         -1.808592919103    -0.871802651876     0.668331554419    12.000000000000
           H         -3.171685919103    -0.806710651876     2.246299554419     1.007825032070
           O         -0.593074919103    -0.571919651876     1.196958554419    15.994914619560
           H         -1.785224919103    -1.446440651876    -0.240756445581     1.007825032070
           C          0.536842080897    -0.842085651876     0.440552554419    12.000000000000
           C          0.871914080897     0.299968348124    -0.492041445581    12.000000000000
           H          0.429590080897    -1.742763651876    -0.153561445581     1.007825032070
           H          1.366207080897    -0.968339651876     1.120772554419     1.007825032070
           F          1.976558080897     0.010588348124    -1.164222445581    18.998403224000
           F         -0.090881919103     0.511966348124    -1.374035445581    18.998403224000
           F          1.075992080897     1.426675348124     0.158553554419    18.998403224000

  Charge       = 0
  Multiplicity = 1
  Basis Set: 6-31G*
  Basis Set:

    Orbital Energies (a.u.)
    -----------------------

    Doubly Occupied:

       1A    -26.347400     2A    -26.345273     3A    -26.342569
       4A    -20.616850     5A    -11.506544     6A    -11.322468
       7A    -11.317233     8A    -11.199466     9A     -1.743885
      10A     -1.642100    11A     -1.640155    12A     -1.445701
      13A     -1.087268    14A     -1.017271    15A     -0.927660
      16A     -0.838996    17A     -0.833083    18A     -0.824138
      19A     -0.794365    20A     -0.723425    21A     -0.712921
      22A     -0.697160    23A     -0.676763    24A     -0.661801
      25A     -0.656258    26A     -0.645077    27A     -0.638851
      28A     -0.587434    29A     -0.577782    30A     -0.528920
      31A     -0.509110    32A     -0.301771

  @DF-RHF Final Energy:  -527.45730237375051

   => Energetics <=

    Nuclear Repulsion Energy =            413.4834675969875093
    One-Electron Energy =               -1550.4622960015863100
    Two-Electron Energy =                 609.5215260308495999
    DFT Exchange-Correlation Energy =       0.0000000000000000
    Empirical Dispersion Energy =           0.0000000000000000
    PCM Polarization Energy =               0.0000000000000000
    EFP Energy =                            0.0000000000000000
    Total Energy =                       -527.4573023737491440

  Mulliken Charges: (a.u.)
   Center  Symbol    Alpha    Beta     Spin     Total
       1     H     0.40113  0.40113  0.00000  0.19774
       2     C     3.27033  3.27033  0.00000 -0.54065
       3     C     2.88385  2.88385  0.00000  0.23229
       4     H     0.40434  0.40434  0.00000  0.19133
       5     O     4.28602  4.28602  0.00000 -0.57204
       6     H     0.40479  0.40479  0.00000  0.19042
       7     C     3.06776  3.06776  0.00000 -0.13551
       8     C     2.45378  2.45378  0.00000  1.09244
       9     H     0.40423  0.40423  0.00000  0.19154
      10     H     0.38862  0.38862  0.00000  0.22275
      11     F     4.68229  4.68229  0.00000 -0.36458
      12     F     4.67898  4.67898  0.00000 -0.35797
      13     F     4.67389  4.67389  0.00000 -0.34778

   Total alpha = 32.00000, Total beta = 32.00000, Total charge = -0.00000
