  ==> Input File <==

--------------------------------------------------------------------------
set {
	reference rhf
	basis 6-31G*
}

set_num_threads( 1 )
memory 2 gb

molecule MOL {
0 1

O	 0.351330	 0.155066	 2.571793
C	 1.046911	 -0.407667	 1.789131
C	 1.245376	 -0.013843	 0.345420
O	 1.758313	 -1.485816	 2.094308
C	 0.455112	 1.231400	 -0.050772
H	 2.311948	 0.116188	 0.194732
H	 0.961383	 -0.867800	 -0.264337
C	 -0.998893	 1.219485	 0.433193
H	 0.482531	 1.345121	 -1.130325
H	 0.957290	 2.103070	 0.354729
C	 -1.883438	 0.145884	 -0.207175
H	 -1.431207	 2.195402	 0.224832
H	 -1.019646	 1.105716	 1.516076
C	 -3.347647	 0.245583	 0.225435
H	 -1.822183	 0.231698	 -1.291012
H	 -1.510341	 -0.844814	 0.042401
C	 -4.239992	 -0.825570	 -0.404234
H	 -3.732888	 1.230466	 -0.033079
H	 -3.408585	 0.170602	 1.310038
C	 -5.701275	 -0.716658	 0.029921
H	 -4.179496	 -0.752714	 -1.488058
H	 -3.859041	 -1.810759	 -0.143352
H	 -6.308102	 -1.488908	 -0.432678
H	 -6.122175	 0.245478	 -0.248167
H	 -5.799072	 -0.820114	 1.106957
C	 1.661341	 -1.964601	 3.423310
H	 1.995732	 -1.212692	 4.123538
H	 2.301259	 -2.831860	 3.472028
H	 0.642050	 -2.237842	 3.655520

	symmetry c1
}
set optking {
	frozen_dihedral = ("
		21 17 14 11,
		17 14 11 15,
		15 11 8 5,
		11 8 5 9,
		2 4 26 27,
		1 2 4 26,
		6 3 2 1
	")
}

ee = energy('scf')
oeprop('DIPOLE', 'QUADRUPOLE', 'MULLIKEN_CHARGES')
f=open( 'psi4out.xyz', 'w' )
f.write( "29  " )
f.write( str(ee) + "\n" )
f.write( MOL.save_string_xyz() )
f.close()
--------------------------------------------------------------------------

    Molecular point group: c1

    Geometry (in Angstrom), charge = 0, multiplicity = 1:

       Center              X                  Y                   Z               Mass
    ------------   -----------------  -----------------  -----------------  -----------------
           O          1.218828952087     0.398365448561     1.606133978918    15.994914619560
           C          1.914409952087    -0.164367551439     0.823471978918    12.000000000000
           C          2.112874952087     0.229456448561    -0.620239021082    12.000000000000
           O          2.625811952087    -1.242516551439     1.128648978918    15.994914619560
           C          1.322610952087     1.474699448561    -1.016431021082    12.000000000000
           H          3.179446952087     0.359487448561    -0.770927021082     1.007825032070
           H          1.828881952087    -0.624500551439    -1.229996021082     1.007825032070
           C         -0.131394047913     1.462784448561    -0.532466021082    12.000000000000
           H          1.350029952087     1.588420448561    -2.095984021082     1.007825032070
           H          1.824788952087     2.346369448561    -0.610930021082     1.007825032070
           C         -1.015939047913     0.389183448561    -1.172834021082    12.000000000000
           H         -0.563708047913     2.438701448561    -0.740827021082     1.007825032070
           H         -0.152147047913     1.349015448561     0.550416978918     1.007825032070
           C         -2.480148047913     0.488882448561    -0.740224021082    12.000000000000
           H         -0.954684047913     0.474997448561    -2.256671021082     1.007825032070
           H         -0.642842047913    -0.601514551439    -0.923258021082     1.007825032070
           C         -3.372493047913    -0.582270551439    -1.369893021082    12.000000000000
           H         -2.865389047913     1.473765448561    -0.998738021082     1.007825032070
           H         -2.541086047913     0.413901448561     0.344378978918     1.007825032070
           C         -4.833776047913    -0.473358551439    -0.935738021082    12.000000000000
           H         -3.311997047913    -0.509414551439    -2.453717021082     1.007825032070
           H         -2.991542047913    -1.567459551439    -1.109011021082     1.007825032070
           H         -5.440603047913    -1.245608551439    -1.398337021082     1.007825032070
           H         -5.254676047913     0.488777448561    -1.213826021082     1.007825032070
           H         -4.931573047913    -0.576814551439     0.141297978918     1.007825032070
           C          2.528839952087    -1.721301551439     2.457650978918    12.000000000000
           H          2.863230952087    -0.969392551439     3.157878978918     1.007825032070
           H          3.168757952087    -2.588560551439     2.506368978918     1.007825032070
           H          1.509548952087    -1.994542551439     2.689860978918     1.007825032070

  Charge       = 0
  Multiplicity = 1
  Basis Set: 6-31G*
  Basis Set:

    Orbital Energies (a.u.)
    -----------------------

    Doubly Occupied:

       1A    -20.606195     2A    -20.547778     3A    -11.375853
       4A    -11.282721     5A    -11.235665     6A    -11.218573
       7A    -11.210240     8A    -11.207211     9A    -11.206557
      10A    -11.204497    11A    -11.195681    12A     -1.472930
      13A     -1.368019    14A     -1.091873    15A     -1.063182
      16A     -1.014422    17A     -0.976042    18A     -0.923058
      19A     -0.858783    20A     -0.796025    21A     -0.782898
      22A     -0.769053    23A     -0.697584    24A     -0.684569
      25A     -0.671505    26A     -0.646633    27A     -0.624596
      28A     -0.616313    29A     -0.582660    30A     -0.576055
      31A     -0.561483    32A     -0.543939    33A     -0.536339
      34A     -0.524774    35A     -0.516935    36A     -0.502683
      37A     -0.498550    38A     -0.481793    39A     -0.468537
      40A     -0.459074    41A     -0.457712    42A     -0.450235
      43A     -0.430307    44A     -0.416404

  @DF-RHF Final Energy:  -501.03407389085964

   => Energetics <=

    Nuclear Repulsion Energy =            639.0409542874367617
    One-Electron Energy =               -1949.4380635957077175
    Two-Electron Energy =                 809.3630354174110835
    DFT Exchange-Correlation Energy =       0.0000000000000000
    Empirical Dispersion Energy =           0.0000000000000000
    PCM Polarization Energy =               0.0000000000000000
    EFP Energy =                            0.0000000000000000
    Total Energy =                       -501.0340738908598723

  Mulliken Charges: (a.u.)
   Center  Symbol    Alpha    Beta     Spin     Total
       1     O     4.28781  4.28781  0.00000 -0.57563
       2     C     2.60288  2.60288  0.00000  0.79424
       3     C     3.21187  3.21187  0.00000 -0.42374
       4     O     4.30697  4.30697  0.00000 -0.61393
       5     C     3.15532  3.15532  0.00000 -0.31063
       6     H     0.39730  0.39730  0.00000  0.20540
       7     H     0.39845  0.39845  0.00000  0.20309
       8     C     3.17355  3.17355  0.00000 -0.34710
       9     H     0.41817  0.41817  0.00000  0.16366
      10     H     0.41481  0.41481  0.00000  0.17038
      11     C     3.15192  3.15192  0.00000 -0.30383
      12     H     0.42604  0.42604  0.00000  0.14792
      13     H     0.38085  0.38085  0.00000  0.23831
      14     C     3.15001  3.15001  0.00000 -0.30003
      15     H     0.42768  0.42768  0.00000  0.14464
      16     H     0.42918  0.42918  0.00000  0.14164
      17     C     3.15095  3.15095  0.00000 -0.30190
      18     H     0.42434  0.42434  0.00000  0.15131
      19     H     0.42122  0.42122  0.00000  0.15756
      20     C     3.23910  3.23910  0.00000 -0.47819
      21     H     0.42421  0.42421  0.00000  0.15157
      22     H     0.42442  0.42442  0.00000  0.15116
      23     H     0.42051  0.42051  0.00000  0.15898
      24     H     0.42208  0.42208  0.00000  0.15584
      25     H     0.42171  0.42171  0.00000  0.15657
      26     C     3.09265  3.09265  0.00000 -0.18529
      27     H     0.40883  0.40883  0.00000  0.18234
      28     H     0.40790  0.40790  0.00000  0.18420
      29     H     0.40928  0.40928  0.00000  0.18145

   Total alpha = 44.00000, Total beta = 44.00000, Total charge =  0.00000
