  ==> Input File <==

--------------------------------------------------------------------------
set {
	reference rhf
	basis cc-pvtz
}

set_num_threads( 4 )
memory 2 gb

molecule MOL {
0 1

H	 1.128311	 0.207724	 1.465118
C	 1.134565	 0.093781	 0.372499
C	 0.062554	 0.862911	 -0.350953
O	 1.948932	 -0.587720	 -0.146651
C	 -1.316311	 0.703887	 0.297165
H	 0.053122	 0.549606	 -1.386928
H	 0.354023	 1.910348	 -0.319389
C	 -1.879899	 -0.709853	 0.185996
H	 -1.998330	 1.402945	 -0.172667
H	 -1.258295	 0.994244	 1.342522
H	 -1.982117	 -1.006435	 -0.851861
H	 -2.857515	 -0.772034	 0.648643
H	 -1.238457	 -1.437026	 0.671594

	symmetry c1
}
set optking {
	frozen_dihedral = ("
		6 3 2 4
	")
}

ee = optimize('scf')
oeprop('DIPOLE', 'QUADRUPOLE', 'MULLIKEN_CHARGES')
f=open( 'psi4out.xyz', 'w' )
f.write( "13  " )
f.write( str(ee) + "\n" )
f.write( MOL.save_string_xyz() )
f.close()
--------------------------------------------------------------------------

    Molecular point group: c1
  Charge       = 0
  Multiplicity = 1
  Basis Set: CC-PVTZ
  Basis Set:
  @DF-RHF Final Energy:  -231.07069406061026
    Total Energy =                       -231.0706940606103217
    Molecular point group: c1
  Basis Set: CC-PVTZ
  Basis Set:
  Basis Set: CC-PVTZ
  Basis Set:
  @DF-RHF Final Energy:  -231.07046642917354
    Total Energy =                       -231.0704664291734503
  Basis Set: CC-PVTZ
  Basis Set:
  Basis Set: CC-PVTZ
  Basis Set:
  @DF-RHF Final Energy:  -231.07070572231697
    Total Energy =                       -231.0707057223169727
  Basis Set: CC-PVTZ
  Basis Set:
  Basis Set: CC-PVTZ
  Basis Set:
  @DF-RHF Final Energy:  -231.07070140323449
    Total Energy =                       -231.0707014032344944
  Basis Set: CC-PVTZ
  Basis Set:
  Charge       = 0
  Multiplicity = 1
  Basis Set: CC-PVTZ
  Basis Set:

    Orbital Energies (a.u.)
    -----------------------

    Doubly Occupied:

       1A    -20.552402     2A    -11.322080     3A    -11.236617
       4A    -11.234885     5A    -11.220335     6A     -1.407508
       7A     -1.088419     8A     -0.974170     9A     -0.848570
      10A     -0.790430    11A     -0.667099    12A     -0.651477
      13A     -0.631821    14A     -0.595986    15A     -0.561544
      16A     -0.536358    17A     -0.508223    18A     -0.493851
      19A     -0.484268    20A     -0.413019

  @DF-RHF Final Energy:  -231.07070684625816

   => Energetics <=

    Nuclear Repulsion Energy =            173.8599780574348586
    One-Electron Energy =                -657.4232442298211936
    Two-Electron Energy =                 252.4925593261282302
    DFT Exchange-Correlation Energy =       0.0000000000000000
    Empirical Dispersion Energy =           0.0000000000000000
    PCM Polarization Energy =               0.0000000000000000
    EFP Energy =                            0.0000000000000000
    Total Energy =                       -231.0707068462580764
    Molecular point group: c1
  Basis Set: CC-PVTZ
  Basis Set:

  -Total Gradient:
     Atom            X                  Y                   Z
    ------   -----------------  -----------------  -----------------
       1       -0.000011852600     0.000008960724    -0.000001937123
       2       -0.000496773094    -0.000637938909     0.000081813616
       3        0.000524471436     0.000587626002    -0.000198408767
       4        0.000280313521     0.000393297548    -0.000042600461
       5       -0.000008431320    -0.000009724023     0.000052090129
       6       -0.000293475670    -0.000336063526     0.000101512993
       7       -0.000006018792    -0.000014436471     0.000011809152
       8        0.000013702071     0.000013016694    -0.000010550458
       9        0.000021352027    -0.000005517089    -0.000008297692
      10       -0.000019821912     0.000005590755     0.000016025109
      11       -0.000003272968    -0.000002841512    -0.000002218594
      12        0.000000304960     0.000000871014     0.000001731896
      13       -0.000000497659    -0.000002841208    -0.000000969803

  **** Optimization is complete! (in 5 steps) ****
    Final optimized geometry and variables:
    Molecular point group: c1

    Geometry (in Angstrom), charge = 0, multiplicity = 1:

    H            1.149055703616     0.157436458426     1.394227377889
    C            1.145487211707     0.038073155808     0.302202731894
    C            0.070630216154     0.807265227332    -0.418394062335
    O            1.959993739417    -0.639484021839    -0.221636030745
    C           -1.308737276384     0.650855427667     0.226360812519
    H            0.062229254178     0.495956353855    -1.455062326150
    H            0.366973225683     1.853446306957    -0.386499119766
    C           -1.871717254647    -0.763157105973     0.115122281652
    H           -1.990233673969     1.349179289864    -0.245303559463
    H           -1.253070096705     0.941811189360     1.271666913658
    H           -1.970600029543    -1.061000199569    -0.922747391294
    H           -2.850540968596    -0.826278325752     0.574985890008
    H           -1.231311027145    -1.489618047752     0.603746425773

  Mulliken Charges: (a.u.)
   Center  Symbol    Alpha    Beta     Spin     Total
       1     H     0.46436  0.46436  0.00000  0.07129
       2     C     2.90701  2.90701  0.00000  0.18598
       3     C     3.08686  3.08686  0.00000 -0.17372
       4     O     4.16412  4.16412  0.00000 -0.32825
       5     C     3.10366  3.10366  0.00000 -0.20731
       6     H     0.44263  0.44263  0.00000  0.11474
       7     H     0.44219  0.44219  0.00000  0.11561
       8     C     3.14443  3.14443  0.00000 -0.28887
       9     H     0.44369  0.44369  0.00000  0.11263
      10     H     0.45142  0.45142  0.00000  0.09716
      11     H     0.45092  0.45092  0.00000  0.09816
      12     H     0.44631  0.44631  0.00000  0.10738
      13     H     0.45240  0.45240  0.00000  0.09520

   Total alpha = 20.00000, Total beta = 20.00000, Total charge = -0.00000
