  ==> Input File <==

--------------------------------------------------------------------------
set {
	reference rhf
	basis cc-pvtz
}

set_num_threads( 4 )
memory 2 gb

molecule MOL {
0 1

O	 1.109093	 -0.321408	 -0.276301
C	 0.029490	 0.077183	 0.000078
C	 -1.232113	 -0.748027	 0.000015
O	 -0.213584	 1.328487	 0.352760
C	 -2.501422	 0.088592	 -0.000052
H	 -1.188777	 -1.400384	 -0.865133
H	 -1.188857	 -1.400312	 0.865225
H	 -2.548170	 0.725504	 -0.873205
H	 -3.371613	 -0.556398	 -0.000040
H	 -2.548215	 0.725571	 0.873047
C	 0.885632	 2.215942	 0.395097
H	 1.622508	 1.876348	 1.107786
H	 0.486505	 3.170142	 0.698453
H	 1.347507	 2.297203	 -0.577690

	symmetry c1
}
set optking {
	frozen_dihedral = ("
		4 2 3 6
	")
}

ee = optimize('scf')
oeprop('DIPOLE', 'QUADRUPOLE', 'MULLIKEN_CHARGES')
f=open( 'psi4out.xyz', 'w' )
f.write( "14  " )
f.write( str(ee) + "\n" )
f.write( MOL.save_string_xyz() )
f.close()
--------------------------------------------------------------------------

    Molecular point group: c1
  Charge       = 0
  Multiplicity = 1
  Basis Set: CC-PVTZ
  Basis Set:
  @DF-RHF Final Energy:  -305.98405577761105
    Total Energy =                       -305.9840557776108199
    Molecular point group: c1
  Basis Set: CC-PVTZ
  Basis Set:
  Basis Set: CC-PVTZ
  Basis Set:
  @DF-RHF Final Energy:  -305.98488885499205
    Total Energy =                       -305.9848888549918229
  Basis Set: CC-PVTZ
  Basis Set:
  Basis Set: CC-PVTZ
  Basis Set:
  @DF-RHF Final Energy:  -305.98484347320687
    Total Energy =                       -305.9848434732068085
  Basis Set: CC-PVTZ
  Basis Set:
  Basis Set: CC-PVTZ
  Basis Set:
  @DF-RHF Final Energy:  -305.98518422877845
    Total Energy =                       -305.9851842287781096
  Basis Set: CC-PVTZ
  Basis Set:
  Basis Set: CC-PVTZ
  Basis Set:
  @DF-RHF Final Energy:  -305.98521951852570
    Total Energy =                       -305.9852195185258097
  Basis Set: CC-PVTZ
  Basis Set:
  Charge       = 0
  Multiplicity = 1
  Basis Set: CC-PVTZ
  Basis Set:

    Orbital Energies (a.u.)
    -----------------------

    Doubly Occupied:

       1A    -20.600015     2A    -20.530517     3A    -11.365542
       4A    -11.280043     5A    -11.237516     6A    -11.219611
       7A     -1.474149     8A     -1.365029     9A     -1.067090
      10A     -0.976245    11A     -0.888209    12A     -0.777367
      13A     -0.697166    14A     -0.686071    15A     -0.675374
      16A     -0.622483    17A     -0.587314    18A     -0.560521
      19A     -0.548932    20A     -0.523966    21A     -0.517333
      22A     -0.500120    23A     -0.458119    24A     -0.437087

  @DF-RHF Final Energy:  -305.98522356159776

   => Energetics <=

    Nuclear Repulsion Energy =            248.8474544892942220
    One-Electron Energy =                -910.4737212558158035
    Two-Electron Energy =                 355.6410432049235624
    DFT Exchange-Correlation Energy =       0.0000000000000000
    Empirical Dispersion Energy =           0.0000000000000000
    PCM Polarization Energy =               0.0000000000000000
    EFP Energy =                            0.0000000000000000
    Total Energy =                       -305.9852235615979907
    Molecular point group: c1
  Basis Set: CC-PVTZ
  Basis Set:

  -Total Gradient:
     Atom            X                  Y                   Z
    ------   -----------------  -----------------  -----------------
       1       -0.000052085381     0.000053061526     0.000029130454
       2        0.000151327663    -0.000271088278     0.000404955643
       3        0.000266724545    -0.000364828538     0.000201191626
       4       -0.000019796980     0.000281985986    -0.000359489335
       5       -0.000048786498    -0.000004360242    -0.000007180636
       6       -0.000236445325     0.000345077919    -0.000271419327
       7       -0.000009323703    -0.000006160842     0.000000730084
       8        0.000000036342    -0.000008187374     0.000012264079
       9       -0.000017969266     0.000004908406     0.000003090882
      10       -0.000001167363    -0.000007352014    -0.000014733644
      11       -0.000047387059    -0.000046190686    -0.000003056821
      12        0.000009435375     0.000009147948     0.000004365625
      13       -0.000002436029     0.000004250294     0.000001856693
      14        0.000007873678     0.000009735892    -0.000001705324

  **** Optimization is complete! (in 6 steps) ****
    Final optimized geometry and variables:
    Molecular point group: c1

    Geometry (in Angstrom), charge = 0, multiplicity = 1:

    O            1.394408752435    -0.799865319429    -0.337837221477
    C            0.324582447878    -0.361089419903    -0.080893152086
    C           -0.935090329536    -1.196192411969    -0.087051909221
    O            0.123694849925     0.899158560232     0.256275612641
    C           -2.257023093691    -0.439382025475    -0.081613742430
    H           -0.859663187892    -1.842430455770    -0.951532114882
    H           -0.864064004410    -1.843756836544     0.780821257375
    H           -2.342669325955     0.211477505806    -0.942620313336
    H           -3.080049828742    -1.143001041931    -0.110533670943
    H           -2.363016799866     0.169180630985     0.805650747074
    C            1.256834488374     1.743160935138     0.310787165422
    H            1.966202226543     1.380655707688     1.039620216605
    H            0.889741342991     2.715017180642     0.598116434114
    H            1.738400879083     1.795417387818    -0.654116249149

  Mulliken Charges: (a.u.)
   Center  Symbol    Alpha    Beta     Spin     Total
       1     O     4.20378  4.20378  0.00000 -0.40755
       2     C     2.80502  2.80502  0.00000  0.38995
       3     C     3.09071  3.09071  0.00000 -0.18142
       4     O     4.14260  4.14260  0.00000 -0.28519
       5     C     3.14071  3.14071  0.00000 -0.28141
       6     H     0.43648  0.43648  0.00000  0.12704
       7     H     0.44265  0.44265  0.00000  0.11469
       8     H     0.45100  0.45100  0.00000  0.09799
       9     H     0.44941  0.44941  0.00000  0.10119
      10     H     0.44860  0.44860  0.00000  0.10279
      11     C     3.03572  3.03572  0.00000 -0.07144
      12     H     0.45343  0.45343  0.00000  0.09314
      13     H     0.44664  0.44664  0.00000  0.10672
      14     H     0.45325  0.45325  0.00000  0.09350

   Total alpha = 24.00000, Total beta = 24.00000, Total charge = -0.00000
