  ==> Input File <==

--------------------------------------------------------------------------
set {
	reference rhf
	basis 6-31G*
}

set_num_threads( 4 )
memory 2 gb

molecule MOL {
0 1

O	 2.284545	 0.497406	 0.967119
C	 1.705091	 0.115954	 0.001797
C	 0.381791	 -0.609817	 0.001258
O	 2.159183	 0.288423	 -1.233189
C	 -0.823008	 0.326187	 0.001381
H	 0.371250	 -1.265087	 -0.865474
H	 0.370908	 -1.265746	 0.867490
C	 -2.149452	 -0.435131	 -0.000098
H	 -0.770201	 0.977095	 -0.865636
H	 -0.771220	 0.975655	 0.869608
C	 -3.368779	 0.488503	 -0.000883
H	 -2.193746	 -1.087250	 -0.871175
H	 -2.195311	 -1.087803	 0.870418
C	 -4.693822	 -0.272754	 -0.001129
H	 -3.325798	 1.139422	 -0.871284
H	 -3.326423	 1.139959	 0.869145
H	 -4.781274	 -0.907928	 -0.878124
H	 -5.538651	 0.408946	 -0.001420
H	 -4.781694	 -0.907783	 0.875984
C	 3.397218	 0.960896	 -1.374632
H	 3.336082	 1.959482	 -0.966446
H	 3.591503	 1.001571	 -2.435045
H	 4.184066	 0.418682	 -0.870273

	symmetry c1
}
set optking {
	frozen_dihedral = ("
		1 2 3 6
	")
}

ee = optimize('scf')
oeprop('DIPOLE', 'QUADRUPOLE', 'MULLIKEN_CHARGES')
f=open( 'psi4out.xyz', 'w' )
f.write( "23  " )
f.write( str(ee) + "\n" )
f.write( MOL.save_string_xyz() )
f.close()
--------------------------------------------------------------------------

    Molecular point group: c1
  Charge       = 0
  Multiplicity = 1
  Basis Set: 6-31G*
  Basis Set:
  @DF-RHF Final Energy:  -422.97412271419182
    Total Energy =                       -422.9741227141917079
    Molecular point group: c1
  Basis Set: 6-31G*
  Basis Set:
  Basis Set: 6-31G*
  Basis Set:
  @DF-RHF Final Energy:  -422.97442382152173
    Total Energy =                       -422.9744238215223504
  Basis Set: 6-31G*
  Basis Set:
  Basis Set: 6-31G*
  Basis Set:
  @DF-RHF Final Energy:  -422.97482802031567
    Total Energy =                       -422.9748280203157265
  Basis Set: 6-31G*
  Basis Set:
  Basis Set: 6-31G*
  Basis Set:
  @DF-RHF Final Energy:  -422.97490389523165
    Total Energy =                       -422.9749038952307956
  Basis Set: 6-31G*
  Basis Set:
  Charge       = 0
  Multiplicity = 1
  Basis Set: 6-31G*
  Basis Set:

    Orbital Energies (a.u.)
    -----------------------

    Doubly Occupied:

       1A    -20.604466     2A    -20.542396     3A    -11.370457
       4A    -11.280421     5A    -11.233409     6A    -11.229664
       7A    -11.221962     8A    -11.220047     9A    -11.212091
      10A     -1.468435    11A     -1.360780    12A     -1.097185
      13A     -1.045442    14A     -0.985114    15A     -0.934445
      16A     -0.846361    17A     -0.798689    18A     -0.772798
      19A     -0.693993    20A     -0.679828    21A     -0.672569
      22A     -0.653468    23A     -0.607372    24A     -0.595734
      25A     -0.578732    26A     -0.571907    27A     -0.539113
      28A     -0.537242    29A     -0.523570    30A     -0.506182
      31A     -0.492309    32A     -0.476222    33A     -0.470659
      34A     -0.466257    35A     -0.453059    36A     -0.427906

  @DF-RHF Final Energy:  -422.97490432222935

   => Energetics <=

    Nuclear Repulsion Energy =            454.4562691126081972
    One-Electron Energy =               -1476.5217792602768441
    Two-Electron Energy =                 599.0906058254395248
    DFT Exchange-Correlation Energy =       0.0000000000000000
    Empirical Dispersion Energy =           0.0000000000000000
    PCM Polarization Energy =               0.0000000000000000
    EFP Energy =                            0.0000000000000000
    Total Energy =                       -422.9749043222291220
    Molecular point group: c1
  Basis Set: 6-31G*
  Basis Set:

  -Total Gradient:
     Atom            X                  Y                   Z
    ------   -----------------  -----------------  -----------------
       1       -0.000199370656     0.000361308119    -0.000114464369
       2        0.000206716119    -0.000472423842     0.000046185064
       3        0.000050479496    -0.000159614251     0.000301735220
       4        0.000055368728     0.000013009541     0.000051070552
       5       -0.000009110795    -0.000014094022     0.000010779931
       6       -0.000173153263     0.000299252005    -0.000218710529
       7       -0.000008369872    -0.000025193244    -0.000007177878
       8       -0.000003540029    -0.000031865624    -0.000016864706
       9        0.000004367169    -0.000016728094    -0.000002210912
      10        0.000000428518     0.000005059281    -0.000003665953
      11        0.000018305159     0.000029187785     0.000003562935
      12        0.000010349683    -0.000006653363    -0.000014396465
      13        0.000013924347    -0.000010363801    -0.000003083159
      14        0.000022008246    -0.000008680143     0.000013169056
      15       -0.000010664020    -0.000000787174    -0.000003985242
      16       -0.000008829733     0.000016012257    -0.000000922854
      17        0.000002211028     0.000002133169    -0.000002818595
      18        0.000012387882     0.000005158251     0.000003054349
      19       -0.000002193809    -0.000004464383     0.000002605279
      20       -0.000020617202     0.000010682838    -0.000042615200
      21        0.000006825803    -0.000002003824    -0.000001302688
      22        0.000031801330     0.000015903838    -0.000004351120
      23        0.000000675870    -0.000004835320     0.000004407285

  **** Optimization is complete! (in 5 steps) ****
    Final optimized geometry and variables:
    Molecular point group: c1

    Geometry (in Angstrom), charge = 0, multiplicity = 1:

    O            2.356971542891     0.284915150256     1.167676057359
    C            1.791482698920    -0.095593255469     0.192938097009
    C            0.484365696556    -0.847047031213     0.198010540160
    O            2.228324835453     0.138468297107    -1.037746034716
    C           -0.703715689829     0.127001690689     0.163899855915
    H            0.445969784280    -1.507944470539    -0.659653690664
    H            0.452437934760    -1.441304566933     1.102812944866
    C           -2.049877716890    -0.597448332576     0.194894371551
    H           -0.638883314940     0.737958122118    -0.732720252764
    H           -0.630809967905     0.801647207446     1.012413393518
    C           -3.243950567402     0.358290782284     0.167353100615
    H           -2.113321829235    -1.277327330885    -0.652892586321
    H           -2.104843323636    -1.216163010078     1.088702427723
    C           -4.588089774783    -0.367950047502     0.202029876093
    H           -3.190148364487     0.975767996191    -0.726610295280
    H           -3.179325501769     1.038947982733     1.013292545594
    H           -4.697507552124    -1.031721607795    -0.650945188698
    H           -5.414711121034     0.335268122054     0.181799024476
    H           -4.686422663679    -0.968158980880     1.102088054639
    C            3.423977058289     0.886839630416    -1.162620949950
    H            3.305531201201     1.867753699944    -0.725211560311
    H            3.611747850792     0.969421757349    -2.221830887544
    H            4.242788227454     0.377400168369    -0.675438869703

  Mulliken Charges: (a.u.)
   Center  Symbol    Alpha    Beta     Spin     Total
       1     O     4.28577  4.28577  0.00000 -0.57155
       2     C     2.61691  2.61691  0.00000  0.76619
       3     C     3.19348  3.19348  0.00000 -0.38695
       4     O     4.30291  4.30291  0.00000 -0.60582
       5     C     3.16640  3.16640  0.00000 -0.33280
       6     H     0.40378  0.40378  0.00000  0.19243
       7     H     0.40041  0.40041  0.00000  0.19918
       8     C     3.15184  3.15184  0.00000 -0.30369
       9     H     0.41246  0.41246  0.00000  0.17507
      10     H     0.40876  0.40876  0.00000  0.18248
      11     C     3.15254  3.15254  0.00000 -0.30508
      12     H     0.42186  0.42186  0.00000  0.15628
      13     H     0.42085  0.42085  0.00000  0.15830
      14     C     3.23987  3.23987  0.00000 -0.47974
      15     H     0.42186  0.42186  0.00000  0.15627
      16     H     0.42087  0.42087  0.00000  0.15825
      17     H     0.42132  0.42132  0.00000  0.15736
      18     H     0.41808  0.41808  0.00000  0.16384
      19     H     0.42086  0.42086  0.00000  0.15827
      20     C     3.09277  3.09277  0.00000 -0.18553
      21     H     0.40915  0.40915  0.00000  0.18171
      22     H     0.40879  0.40879  0.00000  0.18242
      23     H     0.40844  0.40844  0.00000  0.18311

   Total alpha = 36.00000, Total beta = 36.00000, Total charge =  0.00000
