  ==> Input File <==

--------------------------------------------------------------------------
set {
	reference rhf
	basis 6-31G*
}

set_num_threads( 4 )
memory 2 gb

molecule MOL {
0 1

H	 3.729471	 -0.928294	 -0.070608
O	 2.826016	 -1.159218	 0.122261
C	 2.077727	 -0.067559	 -0.035091
C	 0.624473	 -0.343591	 0.253101
O	 2.542965	 0.974826	 -0.363729
C	 -0.265902	 0.883932	 0.072916
H	 0.324016	 -1.163849	 -0.390541
H	 0.565024	 -0.726111	 1.268924
C	 -1.728698	 0.646073	 0.462102
H	 -0.209144	 1.219470	 -0.958188
H	 0.135059	 1.692851	 0.673903
C	 -2.482460	 -0.343073	 -0.431425
H	 -2.245265	 1.602650	 0.432430
H	 -1.779332	 0.308348	 1.496285
C	 -3.840888	 0.192001	 -0.884024
H	 -1.875086	 -0.571087	 -1.305010
H	 -2.631333	 -1.283896	 0.092093
H	 -4.356340	 -0.526276	 -1.513865
H	 -3.730522	 1.111360	 -1.451852
H	 -4.481448	 0.405046	 -0.032830

	symmetry c1
}
set optking {
	frozen_dihedral = ("
		16 12 9 6
	")
}

ee = optimize('scf')
oeprop('DIPOLE', 'QUADRUPOLE', 'MULLIKEN_CHARGES')
f=open( 'psi4out.xyz', 'w' )
f.write( "20  " )
f.write( str(ee) + "\n" )
f.write( MOL.save_string_xyz() )
f.close()
--------------------------------------------------------------------------

    Molecular point group: c1
  Charge       = 0
  Multiplicity = 1
  Basis Set: 6-31G*
  Basis Set:
  @DF-RHF Final Energy:  -383.94402073256111
    Total Energy =                       -383.9440207325611709
    Molecular point group: c1
  Basis Set: 6-31G*
  Basis Set:
  Basis Set: 6-31G*
  Basis Set:
  @DF-RHF Final Energy:  -383.94433804158808
    Total Energy =                       -383.9443380415879119
  Basis Set: 6-31G*
  Basis Set:
  Basis Set: 6-31G*
  Basis Set:
  @DF-RHF Final Energy:  -383.94437542521950
    Total Energy =                       -383.9443754252193912
  Basis Set: 6-31G*
  Basis Set:
  Basis Set: 6-31G*
  Basis Set:
  @DF-RHF Final Energy:  -383.94431626864599
    Total Energy =                       -383.9443162686462756
  Basis Set: 6-31G*
  Basis Set:
  Basis Set: 6-31G*
  Basis Set:
  @DF-RHF Final Energy:  -383.94439575850953
    Total Energy =                       -383.9443957585094154
  Basis Set: 6-31G*
  Basis Set:
  Basis Set: 6-31G*
  Basis Set:
  @DF-RHF Final Energy:  -383.94436876914722
    Total Energy =                       -383.9443687691471041
  Basis Set: 6-31G*
  Basis Set:
  Basis Set: 6-31G*
  Basis Set:
  @DF-RHF Final Energy:  -383.94441290582557
    Total Energy =                       -383.9444129058252884
  Basis Set: 6-31G*
  Basis Set:
  Charge       = 0
  Multiplicity = 1
  Basis Set: 6-31G*
  Basis Set:

    Orbital Energies (a.u.)
    -----------------------

    Doubly Occupied:

       1A    -20.612464     2A    -20.551531     3A    -11.381053
       4A    -11.240033     5A    -11.223144     6A    -11.220521
       7A    -11.219837     8A    -11.212565     9A     -1.474499
      10A     -1.365552    11A     -1.095282    12A     -1.039345
      13A     -0.960963    14A     -0.869132    15A     -0.817138
      16A     -0.775929    17A     -0.699462    18A     -0.689191
      19A     -0.665897    20A     -0.631675    21A     -0.601353
      22A     -0.595114    23A     -0.573217    24A     -0.564870
      25A     -0.530057    26A     -0.513968    27A     -0.500446
      28A     -0.479009    29A     -0.469564    30A     -0.463064
      31A     -0.457091    32A     -0.443171

  @DF-RHF Final Energy:  -383.94441296974901

   => Energetics <=

    Nuclear Repulsion Energy =            376.2995177172862213
    One-Electron Energy =               -1268.6155858939318932
    Two-Electron Energy =                 508.3716552068964347
    DFT Exchange-Correlation Energy =       0.0000000000000000
    Empirical Dispersion Energy =           0.0000000000000000
    PCM Polarization Energy =               0.0000000000000000
    EFP Energy =                            0.0000000000000000
    Total Energy =                       -383.9444129697492372
    Molecular point group: c1
  Basis Set: 6-31G*
  Basis Set:

  -Total Gradient:
     Atom            X                  Y                   Z
    ------   -----------------  -----------------  -----------------
       1       -0.000001620704     0.000002286346     0.000001921417
       2        0.000000014998    -0.000009117682    -0.000001463035
       3       -0.000002832921    -0.000002862642    -0.000022022833
       4        0.000002426422    -0.000006030083    -0.000018136047
       5       -0.000001317312     0.000005759482     0.000013338206
       6       -0.000646686202     0.001806600424    -0.001364466223
       7       -0.000001039361     0.000000343494     0.000011284676
       8        0.000005653347     0.000007655362     0.000011614034
       9        0.001238393579    -0.003167713991     0.002315949434
      10       -0.000000130967     0.000005173353    -0.000008828202
      11       -0.000009316407    -0.000011311152    -0.000001569640
      12       -0.001948661430     0.003860289046    -0.002500263195
      13       -0.000016526310    -0.000001737466    -0.000005737013
      14       -0.000000229103    -0.000010396566    -0.000008843238
      15        0.000002732311     0.000012243722     0.000015412249
      16        0.001369786155    -0.002482678371     0.001555758294
      17        0.000006079588    -0.000006572354     0.000006094610
      18        0.000004711113    -0.000007658569     0.000012178810
      19       -0.000001381341    -0.000007445126    -0.000011462744
      20       -0.000000055461     0.000013172779    -0.000000759559

  **** Optimization is complete! (in 8 steps) ****
    Final optimized geometry and variables:
    Molecular point group: c1

    Geometry (in Angstrom), charge = 0, multiplicity = 1:

    H            3.692526992595    -1.046091797809    -0.005395886048
    O            2.794925893886    -1.256636990798     0.232802748260
    C            2.053014913645    -0.163716093129     0.055735722709
    C            0.609256552769    -0.406667214386     0.411966623990
    O            2.516178169567     0.857229330901    -0.337059119656
    C           -0.273546609491     0.825367591949     0.226672704334
    H            0.267600297066    -1.243995050112    -0.189112546488
    H            0.584922517458    -0.753175269068     1.441893808583
    C           -1.739118673374     0.573705567331     0.594707109542
    H           -0.208766098295     1.164355862432    -0.802414163991
    H            0.120302580900     1.631177024413     0.836982104929
    C           -2.478003884464    -0.408101888945    -0.341691217382
    H           -2.248645118009     1.533620107155     0.572132014517
    H           -1.804766222029     0.229131457234     1.623944599767
    C           -3.850762522673     0.094714438984    -0.785388772031
    H           -1.866237438472    -0.619574996306    -1.215477997992
    H           -2.600115507347    -1.366975975515     0.155948148846
    H           -4.350623216948    -0.631650841973    -1.418665841745
    H           -3.764824304784     1.021673641258    -1.345082288169
    H           -4.491662292871     0.284777825302     0.070940220409

  Mulliken Charges: (a.u.)
   Center  Symbol    Alpha    Beta     Spin     Total
       1     H     0.26788  0.26788  0.00000  0.46423
       2     O     4.35150  4.35150  0.00000 -0.70300
       3     C     2.62263  2.62263  0.00000  0.75474
       4     C     3.21207  3.21207  0.00000 -0.42414
       5     O     4.27935  4.27935  0.00000 -0.55870
       6     C     3.15541  3.15541  0.00000 -0.31081
       7     H     0.39666  0.39666  0.00000  0.20669
       8     H     0.39902  0.39902  0.00000  0.20196
       9     C     3.15988  3.15988  0.00000 -0.31977
      10     H     0.41101  0.41101  0.00000  0.17798
      11     H     0.41002  0.41002  0.00000  0.17996
      12     C     3.15676  3.15676  0.00000 -0.31352
      13     H     0.41557  0.41557  0.00000  0.16886
      14     H     0.42065  0.42065  0.00000  0.15870
      15     C     3.23973  3.23973  0.00000 -0.47946
      16     H     0.42111  0.42111  0.00000  0.15778
      17     H     0.42041  0.42041  0.00000  0.15918
      18     H     0.41943  0.41943  0.00000  0.16114
      19     H     0.42034  0.42034  0.00000  0.15932
      20     H     0.42057  0.42057  0.00000  0.15886

   Total alpha = 32.00000, Total beta = 32.00000, Total charge = -0.00000
