  ==> Input File <==

--------------------------------------------------------------------------
set {
	reference rhf
	basis cc-pvtz
}

set_num_threads( 4 )
memory 2 gb

molecule MOL {
0 1

O	 -0.694481	 1.313155	 -0.204815
C	 -0.862519	 0.151932	 -0.046791
C	 -2.171428	 -0.477048	 0.339095
O	 0.085519	 -0.757083	 -0.192238
H	 -2.467997	 -1.191667	 -0.417688
H	 -2.923379	 0.287970	 0.444097
H	 -2.053854	 -1.015120	 1.270901
C	 1.392036	 -0.330828	 -0.560749
C	 1.474305	 0.012946	 -2.033484
H	 2.103186	 -1.099161	 -0.300465
H	 1.577404	 0.540989	 0.048616
H	 2.462435	 0.395913	 -2.262364
H	 1.298893	 -0.861564	 -2.644914
H	 0.746613	 0.773330	 -2.290142

	symmetry c1
}
set optking {
	frozen_dihedral = ("
		10 8 4 2
	")
}

ee = optimize('scf')
oeprop('DIPOLE', 'QUADRUPOLE', 'MULLIKEN_CHARGES')
f=open( 'psi4out.xyz', 'w' )
f.write( "14  " )
f.write( str(ee) + "\n" )
f.write( MOL.save_string_xyz() )
f.close()
--------------------------------------------------------------------------

    Molecular point group: c1
  Charge       = 0
  Multiplicity = 1
  Basis Set: CC-PVTZ
  Basis Set:
  @DF-RHF Final Energy:  -305.98914441504661
    Total Energy =                       -305.9891444150465531
    Molecular point group: c1
  Basis Set: CC-PVTZ
  Basis Set:
  Basis Set: CC-PVTZ
  Basis Set:
  @DF-RHF Final Energy:  -305.99072839935786
    Total Energy =                       -305.9907283993579199
  Basis Set: CC-PVTZ
  Basis Set:
  Basis Set: CC-PVTZ
  Basis Set:
  @DF-RHF Final Energy:  -305.99091860306527
    Total Energy =                       -305.9909186030647561
  Basis Set: CC-PVTZ
  Basis Set:
  Basis Set: CC-PVTZ
  Basis Set:
  @DF-RHF Final Energy:  -305.99085268008184
    Total Energy =                       -305.9908526800819573
  Basis Set: CC-PVTZ
  Basis Set:
  Basis Set: CC-PVTZ
  Basis Set:
  @DF-RHF Final Energy:  -305.99108856404359
    Total Energy =                       -305.9910885640434799
  Basis Set: CC-PVTZ
  Basis Set:
  Charge       = 0
  Multiplicity = 1
  Basis Set: CC-PVTZ
  Basis Set:

    Orbital Energies (a.u.)
    -----------------------

    Doubly Occupied:

       1A    -20.594484     2A    -20.533127     3A    -11.367954
       4A    -11.283626     5A    -11.231599     6A    -11.216323
       7A     -1.470676     8A     -1.365784     9A     -1.055888
      10A     -0.999339    11A     -0.884407    12A     -0.765738
      13A     -0.701398    14A     -0.685585    15A     -0.661200
      16A     -0.611961    17A     -0.587847    18A     -0.571213
      19A     -0.559336    20A     -0.530099    21A     -0.518261
      22A     -0.495171    23A     -0.454816    24A     -0.441830

  @DF-RHF Final Energy:  -305.99108940499247

   => Energetics <=

    Nuclear Repulsion Energy =            249.4713987553281527
    One-Electron Energy =                -911.7496524639684594
    Two-Electron Energy =                 356.2871643036479554
    DFT Exchange-Correlation Energy =       0.0000000000000000
    Empirical Dispersion Energy =           0.0000000000000000
    PCM Polarization Energy =               0.0000000000000000
    EFP Energy =                            0.0000000000000000
    Total Energy =                       -305.9910894049922945
    Molecular point group: c1
  Basis Set: CC-PVTZ
  Basis Set:

  -Total Gradient:
     Atom            X                  Y                   Z
    ------   -----------------  -----------------  -----------------
       1       -0.000045193398     0.000049625821     0.000014681384
       2       -0.000191908192    -0.000086443595    -0.000835612351
       3        0.000005935996     0.000009519862    -0.000035040237
       4        0.000253341638    -0.000038083503     0.001006503149
       5        0.000011813260    -0.000001298749     0.000014506230
       6       -0.000000493567     0.000004192725     0.000007053338
       7        0.000003587307     0.000010155552     0.000014460218
       8        0.000121928042     0.000443388918     0.000599153480
       9       -0.000055404342    -0.000013188865     0.000057628753
      10       -0.000115998731    -0.000390242434    -0.000836222761
      11       -0.000000519202    -0.000008113395    -0.000005545656
      12        0.000010735512    -0.000001858106     0.000006769315
      13        0.000007220276     0.000010118507     0.000007781071
      14       -0.000005044597     0.000012227261    -0.000016115933

  **** Optimization is complete! (in 6 steps) ****
    Final optimized geometry and variables:
    Molecular point group: c1

    Geometry (in Angstrom), charge = 0, multiplicity = 1:

    O           -0.593873696104     1.326996212481     0.296169773632
    C           -0.744964498427     0.159030810048     0.417875548479
    C           -2.044261389841    -0.500540897195     0.784259811677
    O            0.218643736850    -0.730028567683     0.253759812109
    H           -2.331110194882    -1.194780735065     0.005035035497
    H           -2.807085749759     0.249876614785     0.913285129330
    H           -1.918467302382    -1.066320187223     1.698326459609
    C            1.515522609056    -0.273968965623    -0.113684719380
    C            1.618817215438     0.009422856691    -1.598479782798
    H            2.173985530206    -1.083753586716     0.162215661517
    H            1.763641340002     0.599886172801     0.468878013727
    H            2.639685760221     0.279940032360    -1.843787587181
    H            1.353160078808    -0.869473086231    -2.173630091851
    H            0.972149773817     0.826522343001    -1.885274602682

  Mulliken Charges: (a.u.)
   Center  Symbol    Alpha    Beta     Spin     Total
       1     O     4.19921  4.19921  0.00000 -0.39841
       2     C     2.80183  2.80183  0.00000  0.39633
       3     C     3.13822  3.13822  0.00000 -0.27644
       4     O     4.15711  4.15711  0.00000 -0.31421
       5     H     0.44605  0.44605  0.00000  0.10790
       6     H     0.43830  0.43830  0.00000  0.12341
       7     H     0.44549  0.44549  0.00000  0.10901
       8     C     2.98523  2.98523  0.00000  0.02954
       9     C     3.14991  3.14991  0.00000 -0.29982
      10     H     0.44451  0.44451  0.00000  0.11098
      11     H     0.44957  0.44957  0.00000  0.10085
      12     H     0.45125  0.45125  0.00000  0.09750
      13     H     0.45260  0.45260  0.00000  0.09480
      14     H     0.44073  0.44073  0.00000  0.11855

   Total alpha = 24.00000, Total beta = 24.00000, Total charge = -0.00000
