                              Psi4 1.0.54 Driver

  ==> Input File <==

--------------------------------------------------------------------------
set {
	reference rhf
	basis cc-pvtz
}

set_num_threads( 4 )
memory 2 gb

molecule MOL {
0 1

O	 -0.694481	 1.313155	 -0.204815
C	 -0.862519	 0.151932	 -0.046791
C	 -2.171428	 -0.477048	 0.339095
O	 0.085519	 -0.757083	 -0.192238
H	 -2.467997	 -1.191667	 -0.417688
H	 -2.923379	 0.287970	 0.444097
H	 -2.053854	 -1.015120	 1.270901
C	 1.392036	 -0.330828	 -0.560749
C	 2.328036	 -1.504443	 -0.761825
H	 1.770762	 0.344317	 0.190624
H	 1.252524	 0.212294	 -1.483411
H	 3.291666	 -1.145679	 -1.105568
H	 2.476675	 -2.043307	 0.163872
H	 1.933193	 -2.185657	 -1.505894

	symmetry c1
}
set optking {
	frozen_dihedral = ("
		10 8 4 2
	")
}

ee,wfn = optimize('scf', return_wfn=True)
oeprop( wfn, 'DIPOLE', 'QUADRUPOLE', 'MULLIKEN_CHARGES')
f=open( 'psi4out.xyz', 'w' )
f.write( "14  " )
f.write( str(ee) + "\n" )
f.write( MOL.save_string_xyz() )
f.close()
--------------------------------------------------------------------------

    Molecular point group: c1
  Charge       = 0
  Multiplicity = 1
  Basis Set: CC-PVTZ
  Basis Set:
  @DF-RHF Final Energy:  -305.99059944300711
    Total Energy =                       -305.9905994430071132
    Molecular point group: c1
  Basis Set: CC-PVTZ
  Basis Set:
  Basis Set: CC-PVTZ
  Basis Set:
  @DF-RHF Final Energy:  -305.99189976729792
    Total Energy =                       -305.9918997672979799
  Basis Set: CC-PVTZ
  Basis Set:
  Basis Set: CC-PVTZ
  Basis Set:
  @DF-RHF Final Energy:  -305.99215486356633
    Total Energy =                       -305.9921548635660997
  Basis Set: CC-PVTZ
  Basis Set:
  Basis Set: CC-PVTZ
  Basis Set:
  @DF-RHF Final Energy:  -305.99152908399793
    Total Energy =                       -305.9915290839981026
  Basis Set: CC-PVTZ
  Basis Set:
  Basis Set: CC-PVTZ
  Basis Set:
  @DF-RHF Final Energy:  -305.99217931577766
    Total Energy =                       -305.9921793157778893
  Basis Set: CC-PVTZ
  Basis Set:
  Basis Set: CC-PVTZ
  Basis Set:
  @DF-RHF Final Energy:  -305.99218220011318
    Total Energy =                       -305.9921822001130067
  Basis Set: CC-PVTZ
  Basis Set:
  Charge       = 0
  Multiplicity = 1
  Basis Set: CC-PVTZ
  Basis Set:

    Orbital Energies (a.u.)
    -----------------------

    Doubly Occupied:

       1A    -20.595025     2A    -20.533112     3A    -11.367021
       4A    -11.283365     5A    -11.231816     6A    -11.220971
       7A     -1.471679     8A     -1.365696     9A     -1.059014
      10A     -1.001200    11A     -0.871937    12A     -0.782472
      13A     -0.692220    14A     -0.691801    15A     -0.669890
      16A     -0.612292    17A     -0.581551    18A     -0.565237
      19A     -0.553534    20A     -0.541873    21A     -0.508888
      22A     -0.505565    23A     -0.457233    24A     -0.442604

  @DF-RHF Final Energy:  -305.99218253718232

   => Energetics <=

    Nuclear Repulsion Energy =            246.1004463998707763
    One-Electron Energy =                -904.9732689364428779
    Two-Electron Energy =                 352.8806399993899845
    DFT Exchange-Correlation Energy =       0.0000000000000000
    Empirical Dispersion Energy =           0.0000000000000000
    PCM Polarization Energy =               0.0000000000000000
    EFP Energy =                            0.0000000000000000
    Total Energy =                       -305.9921825371821456
    Molecular point group: c1
  Basis Set: CC-PVTZ
  Basis Set:

  -Total Gradient:
     Atom            X                  Y                   Z
    ------   -----------------  -----------------  -----------------
       1        0.000007477589     0.000045062239    -0.000003815315
       2       -0.000008679581    -0.000097545821    -0.000099935877
       3       -0.000001783852    -0.000005251722    -0.000009485269
       4        0.000014804320     0.000030525074     0.000161844028
       5       -0.000000011638    -0.000002091241     0.000007984094
       6        0.000008605258     0.000004421303    -0.000002097289
       7       -0.000002857333    -0.000000508065     0.000000935527
       8       -0.000060161003     0.000113661222    -0.000115841108
       9       -0.000009867515     0.000008591475     0.000004870984
      10        0.000061885039    -0.000094649152     0.000061031155
      11       -0.000001428985    -0.000002977868    -0.000002963401
      12       -0.000006428336     0.000000855973     0.000000700660
      13        0.000000550437     0.000002681928     0.000001854153
      14       -0.000002104400    -0.000002775346    -0.000005082342

  **** Optimization is complete! (in 7 steps) ****
    Final optimized geometry and variables:
    Molecular point group: c1

    Geometry (in Angstrom), charge = 0, multiplicity = 1:

    O           -0.722355309759     1.569934474526     0.039497698529
    C           -0.875562537554     0.407255487480     0.199909526374
    C           -2.167303418677    -0.238287808699     0.614355146001
    O            0.083512492815    -0.485936714562     0.033325962770
    H           -2.473065936950    -0.954567066834    -0.137239549352
    H           -2.925596986214     0.517560791497     0.738131058755
    H           -2.022464493443    -0.776943710964     1.541941935453
    C            1.364812707600    -0.015653504849    -0.362531967402
    C            2.270196826077    -1.215588662111    -0.513588312030
    H            1.735826556365     0.668921326434     0.387236651371
    H            1.269418556558     0.529690447498    -1.290632586599
    H            3.259348914464    -0.891264059571    -0.814493805111
    H            2.356162427352    -1.754382130443     0.421640071239
    H            1.888717930793    -1.894526340236    -1.265844011038

  Mulliken Charges: (a.u.)
   Center  Symbol    Alpha    Beta     Spin     Total
       1     O     4.19713  4.19713  0.00000 -0.39427
       2     C     2.80789  2.80789  0.00000  0.38421
       3     C     3.13777  3.13777  0.00000 -0.27553
       4     O     4.15209  4.15209  0.00000 -0.30418
       5     H     0.44588  0.44588  0.00000  0.10824
       6     H     0.43802  0.43802  0.00000  0.12397
       7     H     0.44585  0.44585  0.00000  0.10831
       8     C     2.97761  2.97761  0.00000  0.04479
       9     C     3.13291  3.13291  0.00000 -0.26583
      10     H     0.45402  0.45402  0.00000  0.09197
      11     H     0.45351  0.45351  0.00000  0.09298
      12     H     0.45440  0.45440  0.00000  0.09121
      13     H     0.45145  0.45145  0.00000  0.09710
      14     H     0.45148  0.45148  0.00000  0.09704

   Total alpha = 24.00000, Total beta = 24.00000, Total charge = -0.00000

*** Psi4 exiting successfully. Buy a developer a beer!
