                              Psi4 1.0.54 Driver

  ==> Input File <==

--------------------------------------------------------------------------
set {
	reference rhf
	basis cc-pvtz
}

set_num_threads( 4 )
memory 2 gb

molecule MOL {
0 1

O	 -0.694481	 1.313155	 -0.204815
C	 -0.862519	 0.151932	 -0.046791
C	 -2.171428	 -0.477048	 0.339095
O	 0.085519	 -0.757083	 -0.192238
H	 -2.467997	 -1.191667	 -0.417688
H	 -2.923379	 0.287970	 0.444097
H	 -2.053854	 -1.015120	 1.270901
C	 1.392036	 -0.330828	 -0.560749
C	 1.356087	 0.654876	 -1.710094
H	 1.991124	 -1.193553	 -0.806951
H	 1.790399	 0.131390	 0.329988
H	 2.360173	 1.007059	 -1.918015
H	 0.966780	 0.190340	 -2.605654
H	 0.739910	 1.510452	 -1.461281

	symmetry c1
}
set optking {
	frozen_dihedral = ("
		10 8 4 2
	")
}

ee,wfn = optimize('scf', return_wfn=True)
oeprop( wfn, 'DIPOLE', 'QUADRUPOLE', 'MULLIKEN_CHARGES')
f=open( 'psi4out.xyz', 'w' )
f.write( "14  " )
f.write( str(ee) + "\n" )
f.write( MOL.save_string_xyz() )
f.close()
--------------------------------------------------------------------------

    Molecular point group: c1
  Charge       = 0
  Multiplicity = 1
  Basis Set: CC-PVTZ
  Basis Set:
  @DF-RHF Final Energy:  -305.97625906913242
    Total Energy =                       -305.9762590691324249
    Molecular point group: c1
  Basis Set: CC-PVTZ
  Basis Set:
  Basis Set: CC-PVTZ
  Basis Set:
  @DF-RHF Final Energy:  -305.98560483735878
    Total Energy =                       -305.9856048373585509
  Basis Set: CC-PVTZ
  Basis Set:
  Basis Set: CC-PVTZ
  Basis Set:
  @DF-RHF Final Energy:  -305.98675017386785
    Total Energy =                       -305.9867501738676765
  Basis Set: CC-PVTZ
  Basis Set:
  Basis Set: CC-PVTZ
  Basis Set:
  @DF-RHF Final Energy:  -305.98510836563833
    Total Energy =                       -305.9851083656383253
  Basis Set: CC-PVTZ
  Basis Set:
  @DF-RHF Final Energy:  -305.98698365353391
    Total Energy =                       -305.9869836535339687
  @DF-RHF Final Energy:  -305.98700991421561
    Total Energy =                       -305.9870099142158324
  @DF-RHF Final Energy:  -305.98701353908962
    Total Energy =                       -305.9870135390896735
  @DF-RHF Final Energy:  -305.98701551845733
    Total Energy =                       -305.9870155184568148
  Basis Set: CC-PVTZ
  Basis Set:
  @DF-RHF Final Energy:  -305.98701702106911
    Total Energy =                       -305.9870170210689935
  Basis Set: CC-PVTZ
  Basis Set:
  Basis Set: CC-PVTZ
  Basis Set:
  @DF-RHF Final Energy:  -305.98700817790507
    Total Energy =                       -305.9870081779048974
  Basis Set: CC-PVTZ
  Basis Set:
  Basis Set: CC-PVTZ
  Basis Set:
  @DF-RHF Final Energy:  -305.98701768813100
    Total Energy =                       -305.9870176881310613
  Basis Set: CC-PVTZ
  Basis Set:
  Charge       = 0
  Multiplicity = 1
  Basis Set: CC-PVTZ
  Basis Set:

    Orbital Energies (a.u.)
    -----------------------

    Doubly Occupied:

       1A    -20.593341     2A    -20.532249     3A    -11.367747
       4A    -11.286971     5A    -11.230851     6A    -11.214245
       7A     -1.468624     8A     -1.365683     9A     -1.055408
      10A     -0.998564    11A     -0.889175    12A     -0.756430
      13A     -0.700117    14A     -0.684473    15A     -0.665645
      16A     -0.616018    17A     -0.587957    18A     -0.571096
      19A     -0.552793    20A     -0.531731    21A     -0.514144
      22A     -0.497231    23A     -0.455024    24A     -0.437321

  @DF-RHF Final Energy:  -305.98701740608192

   => Energetics <=

    Nuclear Repulsion Energy =            250.1129509312808068
    One-Electron Energy =                -913.0542590243653649
    Two-Electron Energy =                 356.9542906870026400
    DFT Exchange-Correlation Energy =       0.0000000000000000
    Empirical Dispersion Energy =           0.0000000000000000
    PCM Polarization Energy =               0.0000000000000000
    EFP Energy =                            0.0000000000000000
    Total Energy =                       -305.9870174060819181
    Molecular point group: c1
  Basis Set: CC-PVTZ
  Basis Set:

  -Total Gradient:
     Atom            X                  Y                   Z
    ------   -----------------  -----------------  -----------------
       1       -0.000027788770    -0.000112852068     0.000003357364
       2       -0.001871165861     0.000131793193    -0.005383103750
       3       -0.000022289940     0.000019682121    -0.000010892526
       4        0.002361570921     0.000337691461     0.007043037217
       5        0.000008415108    -0.000021564535    -0.000021575121
       6       -0.000048166371     0.000013381667     0.000008389229
       7        0.000010946420    -0.000002146961     0.000024948534
       8        0.001751580054    -0.001597094699     0.003980129163
       9       -0.000079090332     0.000134330404     0.000070884061
      10       -0.002106347178     0.001094997347    -0.005671903466
      11       -0.000009565031     0.000055919056     0.000001102710
      12        0.000033606151    -0.000009023843     0.000009145036
      13       -0.000031156520    -0.000018340824    -0.000012905528
      14        0.000029451346    -0.000026772320    -0.000040612922

  **** Optimization is complete! (in 12 steps) ****
    Final optimized geometry and variables:
    Molecular point group: c1

    Geometry (in Angstrom), charge = 0, multiplicity = 1:

    O           -0.507990338667     1.223181046288     0.555237439736
    C           -0.713205229844     0.062897711685     0.444004688456
    C           -2.048782622883    -0.589953015577     0.667210197811
    O            0.208576845285    -0.829563441573     0.131792497306
    H           -2.376493699886    -1.064290406168    -0.249147503467
    H           -2.766712340487     0.151813165440     0.977417333608
    H           -1.956389667431    -1.360838128983     1.420976509389
    C            1.507494129083    -0.431935567255    -0.297569530333
    C            1.524057686945     0.547527365319    -1.459232276785
    H            1.948050506536    -1.354933436562    -0.642183691715
    H            2.059917659242    -0.050383412610     0.549630154671
    H            2.542085616126     0.617546594523    -1.826759283336
    H            0.903304140187     0.182352424378    -2.269913237273
    H            1.188495274386     1.530961645375    -1.176791081071

  Mulliken Charges: (a.u.)
   Center  Symbol    Alpha    Beta     Spin     Total
       1     O     4.19951  4.19951  0.00000 -0.39901
       2     C     2.80046  2.80046  0.00000  0.39908
       3     C     3.13817  3.13817  0.00000 -0.27634
       4     O     4.15647  4.15647  0.00000 -0.31294
       5     H     0.44700  0.44700  0.00000  0.10599
       6     H     0.43849  0.43849  0.00000  0.12302
       7     H     0.44466  0.44466  0.00000  0.11068
       8     C     2.98032  2.98032  0.00000  0.03937
       9     C     3.15750  3.15750  0.00000 -0.31500
      10     H     0.44654  0.44654  0.00000  0.10692
      11     H     0.45359  0.45359  0.00000  0.09282
      12     H     0.45031  0.45031  0.00000  0.09938
      13     H     0.45404  0.45404  0.00000  0.09193
      14     H     0.43295  0.43295  0.00000  0.13411

   Total alpha = 24.00000, Total beta = 24.00000, Total charge = -0.00000

*** Psi4 exiting successfully. Buy a developer a beer!
