                              Psi4 1.0.54 Driver

  ==> Input File <==

--------------------------------------------------------------------------
set {
	reference rhf
	basis cc-pvtz
}

set_num_threads( 4 )
memory 2 gb

molecule MOL {
0 1

H	 -2.404891	 -0.689323	 0.928530
O	 -2.346257	 -0.289210	 0.080372
C	 -1.183935	 0.486039	 -0.009831
C	 0.062853	 -0.375310	 0.027457
H	 -1.178881	 1.094526	 -0.908634
H	 -1.184406	 1.155156	 0.838676
O	 1.172093	 0.457955	 -0.054438
H	 0.052476	 -1.081302	 -0.804627
H	 0.076323	 -0.955658	 0.947560
C	 2.395478	 -0.199028	 -0.000366
H	 2.505946	 -0.901710	 -0.823354
H	 3.174616	 0.545641	 -0.071768
H	 2.513730	 -0.742241	 0.934223

	symmetry c1
}
set optking {
	frozen_dihedral = ("
		1 2 3 5
	")
}

ee,wfn = optimize('scf', return_wfn=True)
oeprop( wfn, 'DIPOLE', 'QUADRUPOLE', 'MULLIKEN_CHARGES')
f=open( 'psi4out.xyz', 'w' )
f.write( "13  " )
f.write( str(ee) + "\n" )
f.write( MOL.save_string_xyz() )
f.close()
--------------------------------------------------------------------------

    Molecular point group: c1
  Charge       = 0
  Multiplicity = 1
  Basis Set: CC-PVTZ
  Basis Set:
  @DF-RHF Final Energy:  -268.06058203428790
    Total Energy =                       -268.0605820342881316
    Molecular point group: c1
  Basis Set: CC-PVTZ
  Basis Set:
  Basis Set: CC-PVTZ
  Basis Set:
  @DF-RHF Final Energy:  -268.05440248134073
    Total Energy =                       -268.0544024813407304
  Basis Set: CC-PVTZ
  Basis Set:
  Basis Set: CC-PVTZ
  Basis Set:
  @DF-RHF Final Energy:  -268.06210005045807
    Total Energy =                       -268.0621000504579001
  Basis Set: CC-PVTZ
  Basis Set:
  Basis Set: CC-PVTZ
  Basis Set:
  @DF-RHF Final Energy:  -268.06229444741751
    Total Energy =                       -268.0622944474173437
  Basis Set: CC-PVTZ
  Basis Set:
  Basis Set: CC-PVTZ
  Basis Set:
  @DF-RHF Final Energy:  -268.06229906640294
    Total Energy =                       -268.0622990664029999
  Basis Set: CC-PVTZ
  Basis Set:
  Charge       = 0
  Multiplicity = 1
  Basis Set: CC-PVTZ
  Basis Set:

    Orbital Energies (a.u.)
    -----------------------

    Doubly Occupied:

       1A    -20.556407     2A    -20.552967     3A    -11.269794
       4A    -11.268070     5A    -11.267520     6A     -1.392416
       7A     -1.369377     8A     -1.019919     9A     -0.914196
      10A     -0.843485    11A     -0.711578    12A     -0.676716
      13A     -0.664029    14A     -0.638964    15A     -0.597725
      16A     -0.572402    17A     -0.546842    18A     -0.492156
      19A     -0.482867    20A     -0.441902    21A     -0.425144

  @DF-RHF Final Energy:  -268.06229948079113

   => Energetics <=

    Nuclear Repulsion Energy =            190.5182781069601958
    One-Electron Energy =                -743.7522042874135195
    Two-Electron Energy =                 285.1716266996621698
    DFT Exchange-Correlation Energy =       0.0000000000000000
    Empirical Dispersion Energy =           0.0000000000000000
    PCM Polarization Energy =               0.0000000000000000
    EFP Energy =                            0.0000000000000000
    Total Energy =                       -268.0622994807911255
    Molecular point group: c1
  Basis Set: CC-PVTZ
  Basis Set:

  -Total Gradient:
     Atom            X                  Y                   Z
    ------   -----------------  -----------------  -----------------
       1        0.000151169206    -0.000169083798    -0.000134552162
       2       -0.000159178267     0.000174820804     0.000141931321
       3       -0.000091146969     0.000126188825     0.000155701975
       4       -0.000021320916    -0.000000434083    -0.000000033073
       5        0.000134261271    -0.000134953839    -0.000152241749
       6       -0.000012170014    -0.000015361315     0.000001613868
       7        0.000011248102     0.000016057016    -0.000003240319
       8        0.000000180221    -0.000002783402    -0.000007568194
       9       -0.000002498487     0.000020253280    -0.000008502601
      10       -0.000010614592    -0.000021204624     0.000009589598
      11        0.000000026292     0.000003440836    -0.000005063217
      12       -0.000008012685     0.000007460085    -0.000001754679
      13        0.000008056837    -0.000004399784     0.000004119232

  **** Optimization is complete! (in 6 steps) ****
    Final optimized geometry and variables:
    Molecular point group: c1

    Geometry (in Angstrom), charge = 0, multiplicity = 1:

    H           -2.367311741055    -1.024908433558     0.757390754640
    O           -2.323510779241    -0.446387583135     0.018076359938
    C           -1.210711742173     0.395703152373     0.128314140643
    C            0.085423952191    -0.364359012101    -0.072448285807
    H           -1.308077819886     1.147473067827    -0.641683277784
    H           -1.189012701520     0.904907836024     1.086668839055
    O            1.140237492461     0.533193449438     0.040332141507
    H            0.079987788121    -0.841057542969    -1.050404543650
    H            0.173807262186    -1.153793396532     0.676003900069
    C            2.398529748589    -0.024390471847    -0.152287729927
    H            2.494073706282    -0.455560276378    -1.146006463558
    H            3.129717639094     0.762913596460    -0.042079993189
    H            2.605947734215    -0.800443081226     0.581204228530

  Mulliken Charges: (a.u.)
   Center  Symbol    Alpha    Beta     Spin     Total
       1     H     0.39426  0.39426  0.00000  0.21148
       2     O     4.20188  4.20188  0.00000 -0.40376
       3     C     2.97249  2.97249  0.00000  0.05502
       4     C     2.96598  2.96598  0.00000  0.06805
       5     H     0.45273  0.45273  0.00000  0.09453
       6     H     0.46692  0.46692  0.00000  0.06617
       7     O     4.17525  4.17525  0.00000 -0.35050
       8     H     0.46942  0.46942  0.00000  0.06115
       9     H     0.48233  0.48233  0.00000  0.03533
      10     C     3.03184  3.03184  0.00000 -0.06369
      11     H     0.46982  0.46982  0.00000  0.06036
      12     H     0.44585  0.44585  0.00000  0.10831
      13     H     0.47123  0.47123  0.00000  0.05754

   Total alpha = 21.00000, Total beta = 21.00000, Total charge = -0.00000

*** Psi4 exiting successfully. Buy a developer a beer!
