  ==> Input File <==

--------------------------------------------------------------------------
set {
	reference rhf
	basis 6-31G*
}

set_num_threads( 4 )
memory 2 gb

molecule MOL {
0 1

O	 2.862325	 1.357334	 0.000267
C	 2.843464	 0.164689	 -0.000222
C	 1.546494	 -0.624492	 -0.000609
C	 4.124123	 -0.644674	 -0.000428
C	 0.291004	 0.242674	 0.000989
H	 1.557904	 -1.283758	 -0.867573
H	 1.558622	 -1.285963	 0.864672
C	 -0.641384	 -0.073460	 -1.169683
H	 0.580802	 1.288238	 -0.029717
H	 -0.235511	 0.104642	 0.940072
C	 -1.903217	 0.791076	 -1.179062
H	 -0.106000	 0.063648	 -2.108092
H	 -0.926804	 -1.123846	 -1.133743
C	 -2.840907	 0.480900	 -2.347198
H	 -1.619106	 1.841294	 -1.215693
H	 -2.439679	 0.654159	 -0.241801
C	 -4.098945	 1.348665	 -2.349860
H	 -2.306117	 0.618567	 -3.284679
H	 -3.126807	 -0.568288	 -2.310788
H	 -3.847549	 2.403205	 -2.419825
H	 -4.743011	 1.105935	 -3.189480
H	 -4.674670	 1.207091	 -1.439562
H	 4.165367	 -1.288615	 -0.874074
H	 4.976217	 0.020734	 -0.001915
H	 4.166763	 -1.286207	 0.874930

	symmetry c1
}
set optking {
	frozen_dihedral = ("
		9 5 3 6
	")
}

ee = optimize('scf')
oeprop('DIPOLE', 'QUADRUPOLE', 'MULLIKEN_CHARGES')
f=open( 'psi4out.xyz', 'w' )
f.write( "25  " )
f.write( str(ee) + "\n" )
f.write( MOL.save_string_xyz() )
f.close()
--------------------------------------------------------------------------

    Molecular point group: c1
  Charge       = 0
  Multiplicity = 1
  Basis Set: 6-31G*
  Basis Set:
  @DF-RHF Final Energy:  -387.13163773182481
    Total Energy =                       -387.1316377318248669
    Molecular point group: c1
  Basis Set: 6-31G*
  Basis Set:
  Basis Set: 6-31G*
  Basis Set:
  @DF-RHF Final Energy:  -387.13191728978364
    Total Energy =                       -387.1319172897831322
  Basis Set: 6-31G*
  Basis Set:
  Basis Set: 6-31G*
  Basis Set:
  @DF-RHF Final Energy:  -387.13176743319326
    Total Energy =                       -387.1317674331935450
  Basis Set: 6-31G*
  Basis Set:
  Basis Set: 6-31G*
  Basis Set:
  @DF-RHF Final Energy:  -387.13203386502033
    Total Energy =                       -387.1320338650209578
  Basis Set: 6-31G*
  Basis Set:
  @DF-RHF Final Energy:  -387.13203918814520
    Total Energy =                       -387.1320391881448586
  @DF-RHF Final Energy:  -387.13204036573205
    Total Energy =                       -387.1320403657318820
  @DF-RHF Final Energy:  -387.13204146260301
    Total Energy =                       -387.1320414626026150
  @DF-RHF Final Energy:  -387.13204317692453
    Total Energy =                       -387.1320431769242987
  Basis Set: 6-31G*
  Basis Set:
  @DF-RHF Final Energy:  -387.13204751071635
    Total Energy =                       -387.1320475107162338
  Basis Set: 6-31G*
  Basis Set:
  Basis Set: 6-31G*
  Basis Set:
  @DF-RHF Final Energy:  -387.13204906204498
    Total Energy =                       -387.1320490620449846
  Basis Set: 6-31G*
  Basis Set:
  Basis Set: 6-31G*
  Basis Set:
  @DF-RHF Final Energy:  -387.13205201013534
    Total Energy =                       -387.1320520101355669
  Basis Set: 6-31G*
  Basis Set:
  Charge       = 0
  Multiplicity = 1
  Basis Set: 6-31G*
  Basis Set:

    Orbital Energies (a.u.)
    -----------------------

    Doubly Occupied:

       1A    -20.551182     2A    -11.327525     3A    -11.231965
       4A    -11.228745     5A    -11.215579     6A    -11.214691
       7A    -11.214185     8A    -11.212082     9A    -11.207371
      10A     -1.396728    11A     -1.091301    12A     -1.054961
      13A     -1.014406    14A     -0.967828    15A     -0.890513
      16A     -0.814641    17A     -0.789805    18A     -0.729481
      19A     -0.666285    20A     -0.642808    21A     -0.632480
      22A     -0.621702    23A     -0.594653    24A     -0.583119
      25A     -0.572823    26A     -0.558980    27A     -0.534453
      28A     -0.525740    29A     -0.515565    30A     -0.494673
      31A     -0.482752    32A     -0.471332    33A     -0.462850
      34A     -0.459811    35A     -0.445203    36A     -0.401255

  @DF-RHF Final Energy:  -387.13205269867535

   => Energetics <=

    Nuclear Repulsion Energy =            440.2721220891626217
    One-Electron Energy =               -1397.1693987425721843
    Two-Electron Energy =                 569.7652239547333011
    DFT Exchange-Correlation Energy =       0.0000000000000000
    Empirical Dispersion Energy =           0.0000000000000000
    PCM Polarization Energy =               0.0000000000000000
    EFP Energy =                            0.0000000000000000
    Total Energy =                       -387.1320526986762616
    Molecular point group: c1
  Basis Set: 6-31G*
  Basis Set:

  -Total Gradient:
     Atom            X                  Y                   Z
    ------   -----------------  -----------------  -----------------
       1        0.000007574814     0.000074882668    -0.000018810882
       2        0.000072474410    -0.000016088209    -0.000019185406
       3        0.000277518752     0.000384493440    -0.000118318605
       4       -0.000016728373     0.000023426269     0.000004745377
       5       -0.000063345167    -0.000056303572    -0.000513942726
       6       -0.000222016769    -0.000320414958     0.000231367154
       7       -0.000022315598    -0.000012187993    -0.000028361271
       8       -0.000006177496     0.000009999900    -0.000004978904
       9        0.000013740656    -0.000014995597     0.000452127805
      10       -0.000003020977    -0.000005937560     0.000002786352
      11       -0.000011437430    -0.000016702844     0.000004175959
      12       -0.000003826178     0.000004182814    -0.000005178143
      13       -0.000002719341    -0.000001936408    -0.000004429203
      14        0.000001819293    -0.000001645306    -0.000001947527
      15       -0.000003725391    -0.000002793027     0.000005527420
      16       -0.000003422886    -0.000008025683     0.000003990774
      17        0.000007547840     0.000007547347    -0.000001732727
      18        0.000005205179    -0.000007422424    -0.000002277588
      19       -0.000006305279     0.000003588328     0.000006143149
      20       -0.000001617051     0.000002779137     0.000001145569
      21        0.000004795311     0.000000287818    -0.000001838594
      22        0.000000945280    -0.000001585013    -0.000000594367
      23        0.000006281153    -0.000019188894     0.000008712789
      24       -0.000040132462     0.000006849188    -0.000005252465
      25        0.000008887700    -0.000032809424     0.000006126061

  **** Optimization is complete! (in 12 steps) ****
    Final optimized geometry and variables:
    Molecular point group: c1

    Geometry (in Angstrom), charge = 0, multiplicity = 1:

    O            2.671017593577     1.005961415364     0.670104803404
    C            2.628694081447    -0.182033501139     0.763848508464
    C            1.325527146835    -0.967086257610     0.765700028200
    C            3.894918959632    -1.004896046455     0.887190761057
    C            0.045789124176    -0.114840449100     0.780730292598
    H            1.352532180062    -1.610784344451    -0.112407241917
    H            1.357061307639    -1.650727783387     1.610900804098
    C           -0.891274240784    -0.408610362868    -0.393394753548
    H            0.321920052363     0.931900722954     0.770219848066
    H           -0.487708902272    -0.283655494792     1.711960764150
    C           -2.165666496333     0.435595780417    -0.366747358724
    H           -0.359550501331    -0.228527676392    -1.326297580589
    H           -1.158654985478    -1.464486831884    -0.392168168049
    C           -3.102118356777     0.155746228153    -1.543586248036
    H           -1.896935210612     1.490352770462    -0.364164399818
    H           -2.698001177756     0.254828610880     0.565863607410
    C           -4.372365400877     1.004904429291    -1.511059146429
    H           -2.571705131232     0.336401772118    -2.476105871519
    H           -3.372975587105    -0.898098184909    -1.546018440727
    H           -4.135992414242     2.064724831558    -1.542171925900
    H           -5.015177611291     0.784547714111    -2.357784595229
    H           -4.943720223945     0.821228938349    -0.605447428595
    H            3.905368323909    -1.815008435289     0.164634299065
    H            4.757850316643    -0.370899609131     0.738658637447
    H            3.946998510448    -1.453231225824     1.875576853168

  Mulliken Charges: (a.u.)
   Center  Symbol    Alpha    Beta     Spin     Total
       1     O     4.26028  4.26028  0.00000 -0.52056
       2     C     2.73882  2.73882  0.00000  0.52236
       3     C     3.21449  3.21449  0.00000 -0.42898
       4     C     3.28744  3.28744  0.00000 -0.57488
       5     C     3.15720  3.15720  0.00000 -0.31439
       6     H     0.40609  0.40609  0.00000  0.18782
       7     H     0.40790  0.40790  0.00000  0.18421
       8     C     3.15577  3.15577  0.00000 -0.31155
       9     H     0.39387  0.39387  0.00000  0.21227
      10     H     0.42059  0.42059  0.00000  0.15882
      11     C     3.15183  3.15183  0.00000 -0.30367
      12     H     0.42172  0.42172  0.00000  0.15656
      13     H     0.42548  0.42548  0.00000  0.14903
      14     C     3.15147  3.15147  0.00000 -0.30293
      15     H     0.42068  0.42068  0.00000  0.15864
      16     H     0.42432  0.42432  0.00000  0.15135
      17     C     3.23932  3.23932  0.00000 -0.47863
      18     H     0.42269  0.42269  0.00000  0.15461
      19     H     0.42401  0.42401  0.00000  0.15198
      20     H     0.42098  0.42098  0.00000  0.15803
      21     H     0.41963  0.41963  0.00000  0.16074
      22     H     0.42206  0.42206  0.00000  0.15589
      23     H     0.41004  0.41004  0.00000  0.17992
      24     H     0.39639  0.39639  0.00000  0.20722
      25     H     0.40693  0.40693  0.00000  0.18615

   Total alpha = 36.00000, Total beta = 36.00000, Total charge =  0.00000
