  ==> Input File <==

--------------------------------------------------------------------------
set {
	reference rhf
	basis 6-31G*
}

set_num_threads( 1 )
memory 2 gb

molecule MOL {
0 1

O	 1.178160	 1.259368	 -0.340544
C	 1.122059	 0.121804	 -0.000188
C	 -0.118406	 -0.590706	 0.480925
O	 2.172624	 -0.688929	 0.000216
C	 -1.358517	 0.297587	 0.500941
H	 -0.264528	 -1.456357	 -0.159428
H	 0.097702	 -0.987448	 1.469180
C	 -2.600104	 -0.448335	 0.992296
H	 -1.534949	 0.689231	 -0.496050
H	 -1.172006	 1.159125	 1.134558
C	 -3.846998	 0.434650	 1.016727
H	 -2.781975	 -1.311005	 0.354487
H	 -2.416974	 -0.840857	 1.990524
H	 -4.076671	 0.815189	 0.025720
H	 -4.712538	 -0.118054	 1.368343
H	 -3.709289	 1.288340	 1.673910
C	 3.452279	 -0.082609	 0.000533
H	 3.583069	 0.529321	 -0.880332
H	 4.163299	 -0.894027	 0.001117
H	 3.582335	 0.529955	 0.881077

	symmetry c1
}
set optking {
	frozen_dihedral = ("
		9 5 8 12,
		1 2 3 6,
		9 5 3 6
	")
}

ee = energy('scf')
oeprop('DIPOLE', 'QUADRUPOLE', 'MULLIKEN_CHARGES')
f=open( 'psi4out.xyz', 'w' )
f.write( "20  " )
f.write( str(ee) + "\n" )
f.write( MOL.save_string_xyz() )
f.close()
--------------------------------------------------------------------------

    Molecular point group: c1

    Geometry (in Angstrom), charge = 0, multiplicity = 1:

       Center              X                  Y                   Z               Mass
    ------------   -----------------  -----------------  -----------------  -----------------
           O          1.142974949112     1.213611718689    -0.666791385061    15.994914619560
           C          1.086873949112     0.076047718689    -0.326435385061    12.000000000000
           C         -0.153591050888    -0.636462281311     0.154677614939    12.000000000000
           O          2.137438949112    -0.734685281311    -0.326031385061    15.994914619560
           C         -1.393702050888     0.251830718689     0.174693614939    12.000000000000
           H         -0.299713050888    -1.502113281311    -0.485675385061     1.007825032070
           H          0.062516949112    -1.033204281311     1.142932614939     1.007825032070
           C         -2.635289050888    -0.494091281311     0.666048614939    12.000000000000
           H         -1.570134050888     0.643474718689    -0.822297385061     1.007825032070
           H         -1.207191050888     1.113368718689     0.808310614939     1.007825032070
           C         -3.882183050888     0.388893718689     0.690479614939    12.000000000000
           H         -2.817160050888    -1.356761281311     0.028239614939     1.007825032070
           H         -2.452159050888    -0.886613281311     1.664276614939     1.007825032070
           H         -4.111856050888     0.769432718689    -0.300527385061     1.007825032070
           H         -4.747723050888    -0.163810281311     1.042095614939     1.007825032070
           H         -3.744474050888     1.242583718689     1.347662614939     1.007825032070
           C          3.417093949112    -0.128365281311    -0.325714385061    12.000000000000
           H          3.547883949112     0.483564718689    -1.206579385061     1.007825032070
           H          4.128113949112    -0.939783281311    -0.325130385061     1.007825032070
           H          3.547149949112     0.484198718689     0.554829614939     1.007825032070

  Charge       = 0
  Multiplicity = 1
  Basis Set: 6-31G*
  Basis Set:

    Orbital Energies (a.u.)
    -----------------------

    Doubly Occupied:

       1A    -20.601576     2A    -20.546314     3A    -11.372620
       4A    -11.281996     5A    -11.235798     6A    -11.220371
       7A    -11.219342     8A    -11.210711     9A     -1.468794
      10A     -1.363094    11A     -1.088735    12A     -1.024085
      13A     -0.969548    14A     -0.886529    15A     -0.804185
      16A     -0.767676    17A     -0.696838    18A     -0.683102
      19A     -0.672064    20A     -0.645907    21A     -0.598850
      22A     -0.592114    23A     -0.579813    24A     -0.541773
      25A     -0.536466    26A     -0.521230    27A     -0.500860
      28A     -0.478655    29A     -0.474299    30A     -0.470439
      31A     -0.454971    32A     -0.435935

  @DF-RHF Final Energy:  -383.93908494575248

   => Energetics <=

    Nuclear Repulsion Energy =            381.1085992849348258
    One-Electron Energy =               -1278.2061160750663475
    Two-Electron Energy =                 513.1584318443785833
    DFT Exchange-Correlation Energy =       0.0000000000000000
    Empirical Dispersion Energy =           0.0000000000000000
    PCM Polarization Energy =               0.0000000000000000
    EFP Energy =                            0.0000000000000000
    Total Energy =                       -383.9390849457529384

  Mulliken Charges: (a.u.)
   Center  Symbol    Alpha    Beta     Spin     Total
       1     O     4.28368  4.28368  0.00000 -0.56736
       2     C     2.60492  2.60492  0.00000  0.79015
       3     C     3.20879  3.20879  0.00000 -0.41758
       4     O     4.30783  4.30783  0.00000 -0.61566
       5     C     3.15129  3.15129  0.00000 -0.30259
       6     H     0.39995  0.39995  0.00000  0.20010
       7     H     0.40181  0.40181  0.00000  0.19638
       8     C     3.15419  3.15419  0.00000 -0.30838
       9     H     0.41161  0.41161  0.00000  0.17679
      10     H     0.41237  0.41237  0.00000  0.17526
      11     C     3.23931  3.23931  0.00000 -0.47861
      12     H     0.42277  0.42277  0.00000  0.15446
      13     H     0.42320  0.42320  0.00000  0.15360
      14     H     0.41984  0.41984  0.00000  0.16032
      15     H     0.41874  0.41874  0.00000  0.16251
      16     H     0.42008  0.42008  0.00000  0.15984
      17     C     3.09359  3.09359  0.00000 -0.18718
      18     H     0.40472  0.40472  0.00000  0.19057
      19     H     0.40790  0.40790  0.00000  0.18420
      20     H     0.41341  0.41341  0.00000  0.17317

   Total alpha = 32.00000, Total beta = 32.00000, Total charge = -0.00000
