  ==> Input File <==

--------------------------------------------------------------------------
set {
	reference rhf
	basis 6-31G*
}

set_num_threads( 4 )
memory 2 gb

molecule MOL {
0 1

O	 -2.439739	 -0.935931	 -0.423848
C	 -1.921153	 0.064240	 -0.045697
C	 -2.624470	 1.379923	 0.150949
O	 -0.632575	 0.154573	 0.251549
H	 -2.168117	 2.136577	 -0.476876
H	 -3.669540	 1.273223	 -0.098610
H	 -2.519365	 1.700893	 1.180846
C	 0.160891	 -1.019931	 0.106212
C	 1.589627	 -0.672828	 0.480843
H	 0.089836	 -1.367806	 -0.916050
H	 -0.238459	 -1.792301	 0.749618
C	 1.706474	 0.253623	 1.692633
H	 2.049034	 -0.200840	 -0.385243
H	 2.138204	 -1.593139	 0.663461
C	 3.156250	 0.603723	 2.025167
H	 1.148737	 1.167875	 1.499832
H	 1.240094	 -0.218059	 2.551333
H	 3.212430	 1.260129	 2.887726
H	 3.640466	 1.108122	 1.193666
H	 3.733000	 -0.288713	 2.250989

	symmetry c1
}
set optking {
	frozen_dihedral = ("
		12 9 8 10
	")
}

ee = optimize('scf')
oeprop('DIPOLE', 'QUADRUPOLE', 'MULLIKEN_CHARGES')
f=open( 'psi4out.xyz', 'w' )
f.write( "20  " )
f.write( str(ee) + "\n" )
f.write( MOL.save_string_xyz() )
f.close()
--------------------------------------------------------------------------

    Molecular point group: c1
  Charge       = 0
  Multiplicity = 1
  Basis Set: 6-31G*
  Basis Set:
  @DF-RHF Final Energy:  -383.94252519126803
    Total Energy =                       -383.9425251912681460
    Molecular point group: c1
  Basis Set: 6-31G*
  Basis Set:
  Basis Set: 6-31G*
  Basis Set:
  @DF-RHF Final Energy:  -383.94280497454059
    Total Energy =                       -383.9428049745405360
  Basis Set: 6-31G*
  Basis Set:
  Basis Set: 6-31G*
  Basis Set:
  @DF-RHF Final Energy:  -383.94238985342679
    Total Energy =                       -383.9423898534263344
  Basis Set: 6-31G*
  Basis Set:
  Basis Set: 6-31G*
  Basis Set:
  @DF-RHF Final Energy:  -383.94318381272586
    Total Energy =                       -383.9431838127259198
  Basis Set: 6-31G*
  Basis Set:
  Basis Set: 6-31G*
  Basis Set:
  @DF-RHF Final Energy:  -383.94318708324039
    Total Energy =                       -383.9431870832402183
  Basis Set: 6-31G*
  Basis Set:
  Basis Set: 6-31G*
  Basis Set:
  @DF-RHF Final Energy:  -383.94321066105232
    Total Energy =                       -383.9432106610524897
  Basis Set: 6-31G*
  Basis Set:
  Charge       = 0
  Multiplicity = 1
  Basis Set: 6-31G*
  Basis Set:

    Orbital Energies (a.u.)
    -----------------------

    Doubly Occupied:

       1A    -20.601085     2A    -20.543876     3A    -11.374336
       4A    -11.283062     5A    -11.233346     6A    -11.226071
       7A    -11.219470     8A    -11.212753     9A     -1.467570
      10A     -1.361809    11A     -1.084393    12A     -1.027760
      13A     -0.980785    14A     -0.880305    15A     -0.814986
      16A     -0.767021    17A     -0.689461    18A     -0.687405
      19A     -0.666323    20A     -0.632918    21A     -0.597908
      22A     -0.592687    23A     -0.572886    24A     -0.548472
      25A     -0.545129    26A     -0.532578    27A     -0.510276
      28A     -0.483982    29A     -0.473484    30A     -0.469374
      31A     -0.448935    32A     -0.438635

  @DF-RHF Final Energy:  -383.94321148069861

   => Energetics <=

    Nuclear Repulsion Energy =            386.3220876312641963
    One-Electron Energy =               -1288.5924330620625824
    Two-Electron Energy =                 518.3271339501001194
    DFT Exchange-Correlation Energy =       0.0000000000000000
    Empirical Dispersion Energy =           0.0000000000000000
    PCM Polarization Energy =               0.0000000000000000
    EFP Energy =                            0.0000000000000000
    Total Energy =                       -383.9432114806983236
    Molecular point group: c1
  Basis Set: 6-31G*
  Basis Set:

  -Total Gradient:
     Atom            X                  Y                   Z
    ------   -----------------  -----------------  -----------------
       1        0.000030674607     0.000025581964    -0.000015945179
       2       -0.000075088531    -0.000025689779     0.000048266070
       3        0.000006626407     0.000004609653    -0.000011572842
       4        0.000013568286    -0.000028608472    -0.000016576739
       5       -0.000004442022     0.000004021564    -0.000002846891
       6       -0.000001412651     0.000003700567    -0.000002266640
       7        0.000005322789    -0.000005280664    -0.000003859453
       8        0.001094571989    -0.005245611604     0.001021396905
       9        0.000143348782    -0.003382772008     0.003077909288
      10       -0.000986539930     0.005344412914    -0.001674696337
      11        0.000036312385     0.000022827097     0.000003550760
      12       -0.000257892391     0.003274817133    -0.002436704233
      13       -0.000022200042    -0.000006692446    -0.000008243596
      14        0.000014497390    -0.000000902637     0.000002330504
      15        0.000000691153     0.000021948925    -0.000003310024
      16        0.000006083971    -0.000010505444     0.000001920039
      17       -0.000006520864    -0.000006189193     0.000019041303
      18        0.000009938042     0.000018994074    -0.000007215790
      19        0.000006101056    -0.000016176016    -0.000008368373
      20       -0.000013640414     0.000007514375     0.000017191225

  **** Optimization is complete! (in 7 steps) ****
    Final optimized geometry and variables:
    Molecular point group: c1

    Geometry (in Angstrom), charge = 0, multiplicity = 1:

    O           -2.309648330329    -0.954872187684    -0.922845487118
    C           -1.807842858038     0.065273205090    -0.576149301630
    C           -2.537513918351     1.370235977249    -0.404050996690
    O           -0.519782609457     0.189650583576    -0.291679788384
    H           -2.102318645991     2.121391591930    -1.053101222279
    H           -3.582004897286     1.235666047445    -0.642395067047
    H           -2.431259373778     1.717160176910     0.617327500940
    C            0.296494187107    -0.975088600235    -0.413537291822
    C            1.730563528431    -0.600712390837    -0.060659243007
    H            0.224502331493    -1.307910468132    -1.439511130211
    H           -0.095684044034    -1.743579416011     0.237983433269
    C            1.876851631468     0.311333754128     1.159754482630
    H            2.186017507558    -0.108077903006    -0.916345060989
    H            2.282524228733    -1.525253189243     0.091491612475
    C            3.340926929350     0.563445007313     1.518608408839
    H            1.381441785797     1.254025123063     0.962185819684
    H            1.366701734502    -0.132230720794     2.012606731324
    H            3.424818676596     1.228787695138     2.372117480324
    H            3.874745964345     1.021050687439     0.690239451647
    H            3.852031335921    -0.361817776225     1.769243761285

  Mulliken Charges: (a.u.)
   Center  Symbol    Alpha    Beta     Spin     Total
       1     O     4.28368  4.28368  0.00000 -0.56737
       2     C     2.61894  2.61894  0.00000  0.76212
       3     C     3.28171  3.28171  0.00000 -0.56342
       4     O     4.30996  4.30996  0.00000 -0.61993
       5     H     0.40080  0.40080  0.00000  0.19840
       6     H     0.39690  0.39690  0.00000  0.20621
       7     H     0.40070  0.40070  0.00000  0.19860
       8     C     3.00026  3.00026  0.00000 -0.00052
       9     C     3.16887  3.16887  0.00000 -0.33773
      10     H     0.40789  0.40789  0.00000  0.18423
      11     H     0.40972  0.40972  0.00000  0.18056
      12     C     3.15169  3.15169  0.00000 -0.30338
      13     H     0.41681  0.41681  0.00000  0.16638
      14     H     0.41728  0.41728  0.00000  0.16544
      15     C     3.24113  3.24113  0.00000 -0.48225
      16     H     0.41009  0.41009  0.00000  0.17982
      17     H     0.42280  0.42280  0.00000  0.15439
      18     H     0.41770  0.41770  0.00000  0.16461
      19     H     0.42128  0.42128  0.00000  0.15745
      20     H     0.42180  0.42180  0.00000  0.15641

   Total alpha = 32.00000, Total beta = 32.00000, Total charge = -0.00000
