  ==> Input File <==

--------------------------------------------------------------------------
set {
	reference rhf
	basis cc-pvtz
}

set_num_threads( 4 )
memory 2 gb

molecule MOL {
0 1

H	 2.387007	 0.587316	 -1.178144
O	 1.529977	 0.192013	 -1.232665
C	 1.050374	 0.054877	 0.000135
C	 -0.318151	 -0.570512	 0.000144
O	 1.659507	 0.396828	 0.954072
C	 -1.454884	 0.441630	 -0.000560
H	 -0.371613	 -1.223646	 -0.864985
H	 -0.371920	 -1.222758	 0.865929
C	 -2.822577	 -0.232186	 0.000063
H	 -1.359760	 1.084704	 -0.867077
H	 -1.359641	 1.085996	 0.864983
H	 -2.954352	 -0.858985	 -0.875745
H	 -3.615886	 0.505352	 0.000019
H	 -2.953878	 -0.858359	 0.876394

	symmetry c1
}
set optking {
	frozen_dihedral = ("
		2 3 4 7
	")
}

ee = optimize('scf')
oeprop('DIPOLE', 'QUADRUPOLE', 'MULLIKEN_CHARGES')
f=open( 'psi4out.xyz', 'w' )
f.write( "14  " )
f.write( str(ee) + "\n" )
f.write( MOL.save_string_xyz() )
f.close()
--------------------------------------------------------------------------

    Molecular point group: c1
  Charge       = 0
  Multiplicity = 1
  Basis Set: CC-PVTZ
  Basis Set:
  @DF-RHF Final Energy:  -305.99879490745150
    Total Energy =                       -305.9987949074514972
    Molecular point group: c1
  Basis Set: CC-PVTZ
  Basis Set:
  Basis Set: CC-PVTZ
  Basis Set:
  @DF-RHF Final Energy:  -305.99932522085805
    Total Energy =                       -305.9993252208577701
  Basis Set: CC-PVTZ
  Basis Set:
  Basis Set: CC-PVTZ
  Basis Set:
  @DF-RHF Final Energy:  -305.99832457789267
    Total Energy =                       -305.9983245778924470
  Basis Set: CC-PVTZ
  Basis Set:
  Basis Set: CC-PVTZ
  Basis Set:
  @DF-RHF Final Energy:  -305.99960356086694
    Total Energy =                       -305.9996035608670013
  Basis Set: CC-PVTZ
  Basis Set:
  Basis Set: CC-PVTZ
  Basis Set:
  @DF-RHF Final Energy:  -305.99961038740503
    Total Energy =                       -305.9996103874052551
  Basis Set: CC-PVTZ
  Basis Set:
  Charge       = 0
  Multiplicity = 1
  Basis Set: CC-PVTZ
  Basis Set:

    Orbital Energies (a.u.)
    -----------------------

    Doubly Occupied:

       1A    -20.605584     2A    -20.538537     3A    -11.372745
       4A    -11.237971     5A    -11.234165     6A    -11.219334
       7A     -1.477555     8A     -1.368144     9A     -1.087619
      10A     -0.980852    11A     -0.853945    12A     -0.809757
      13A     -0.706326    14A     -0.688966    15A     -0.643880
      16A     -0.639190    17A     -0.596684    18A     -0.569590
      19A     -0.554136    20A     -0.518454    21A     -0.500313
      22A     -0.489736    23A     -0.475204    24A     -0.441897

  @DF-RHF Final Energy:  -305.99961057897929

   => Energetics <=

    Nuclear Repulsion Energy =            240.8504341329603733
    One-Electron Energy =                -894.4789220353861765
    Two-Electron Energy =                 347.6288773234467726
    DFT Exchange-Correlation Energy =       0.0000000000000000
    Empirical Dispersion Energy =           0.0000000000000000
    PCM Polarization Energy =               0.0000000000000000
    EFP Energy =                            0.0000000000000000
    Total Energy =                       -305.9996105789790590
    Molecular point group: c1
  Basis Set: CC-PVTZ
  Basis Set:

  -Total Gradient:
     Atom            X                  Y                   Z
    ------   -----------------  -----------------  -----------------
       1       -0.000003470046     0.000008869526    -0.000001545124
       2        0.000177890594    -0.000330520759    -0.000024254428
       3       -0.000245900269     0.000522408251    -0.000001224552
       4        0.000242565153    -0.000512186380     0.000306823595
       5       -0.000013729844    -0.000014381670    -0.000027934215
       6        0.000023712039    -0.000008517899    -0.000034570139
       7       -0.000166771561     0.000347710411    -0.000217565630
       8        0.000003129344    -0.000009171307    -0.000003223157
       9       -0.000018439761    -0.000007031988     0.000011341617
      10       -0.000005994626     0.000010943667    -0.000004297295
      11        0.000003174089    -0.000011603308    -0.000006162343
      12        0.000004214150     0.000004777424     0.000001519772
      13       -0.000002492398     0.000001661676     0.000003581362
      14        0.000002113138    -0.000002957642    -0.000002489464

  **** Optimization is complete! (in 6 steps) ****
    Final optimized geometry and variables:
    Molecular point group: c1

    Geometry (in Angstrom), charge = 0, multiplicity = 1:

    H            2.379700032726     0.626450291796    -1.092291418193
    O            1.549864275763     0.178731074979    -1.163983814789
    C            1.069041334929    -0.012875232490     0.060574663042
    C           -0.281996737333    -0.673871387812     0.058510880628
    O            1.653832839720     0.335096071575     1.028288983113
    C           -1.402968619326     0.373258441041     0.047913912737
    H           -0.366939718770    -1.314678752445    -0.809044352950
    H           -0.348598905186    -1.278243214417     0.952562453936
    C           -2.785661943503    -0.267409961668     0.068659043493
    H           -1.302677526822     0.996248839547    -0.834456375509
    H           -1.285626716695     1.022314257851     0.908102490741
    H           -2.936953116771    -0.902257422868    -0.797567958908
    H           -3.561139504679     0.489006646486     0.064963569354
    H           -2.920661291339    -0.876995690235     0.955361655376

  Mulliken Charges: (a.u.)
   Center  Symbol    Alpha    Beta     Spin     Total
       1     H     0.38017  0.38017  0.00000  0.23966
       2     O     4.16318  4.16318  0.00000 -0.32635
       3     C     2.80433  2.80433  0.00000  0.39133
       4     C     3.08725  3.08725  0.00000 -0.17451
       5     O     4.19847  4.19847  0.00000 -0.39693
       6     C     3.09382  3.09382  0.00000 -0.18764
       7     H     0.44240  0.44240  0.00000  0.11520
       8     H     0.43858  0.43858  0.00000  0.12284
       9     C     3.14990  3.14990  0.00000 -0.29979
      10     H     0.44698  0.44698  0.00000  0.10604
      11     H     0.44275  0.44275  0.00000  0.11451
      12     H     0.45381  0.45381  0.00000  0.09239
      13     H     0.44565  0.44565  0.00000  0.10869
      14     H     0.45272  0.45272  0.00000  0.09456

   Total alpha = 24.00000, Total beta = 24.00000, Total charge = -0.00000
