  ==> Input File <==

--------------------------------------------------------------------------
set {
	reference rhf
	basis 6-31G*
}

set_num_threads( 1 )
memory 2 gb

molecule MOL {
0 1

H	 3.748568	 -0.781102	 2.402768
C	 3.253323	 -0.955603	 1.453014
C	 1.946909	 -0.168347	 1.360964
H	 3.942179	 -0.666546	 0.664248
H	 3.078500	 -2.024101	 1.363598
C	 1.217350	 -0.386724	 0.039429
H	 2.140071	 0.893448	 1.477876
H	 1.294090	 -0.456972	 2.183103
N	 0.000003	 0.397874	 -0.023260
H	 1.858977	 -0.074252	 -0.780107
H	 1.031525	 -1.456438	 -0.103953
C	 -1.217365	 -0.386708	 0.039277
H	 -0.000031	 1.072115	 0.718656
C	 -2.452633	 0.504241	 -0.042481
H	 -1.215291	 -1.074557	 -0.802042
H	 -1.269739	 -1.003477	 0.942735
C	 -3.758029	 -0.289423	 -0.010781
H	 -2.394220	 1.093569	 -0.952170
H	 -2.440793	 1.210787	 0.785871
H	 -3.816659	 -0.981993	 -0.845726
H	 -4.617837	 0.370165	 -0.069296
H	 -3.847478	 -0.867502	 0.904682

	symmetry c1
}
set optking {
	frozen_dihedral = ("
		15 12 14 18
	")
}

ee = energy('scf')
oeprop('DIPOLE', 'QUADRUPOLE', 'MULLIKEN_CHARGES')
f=open( 'psi4out.xyz', 'w' )
f.write( "22  " )
f.write( str(ee) + "\n" )
f.write( MOL.save_string_xyz() )
f.close()
--------------------------------------------------------------------------

    Molecular point group: c1

    Geometry (in Angstrom), charge = 0, multiplicity = 1:

       Center              X                  Y                   Z               Mass
    ------------   -----------------  -----------------  -----------------  -----------------
           H          3.893475012633    -0.589218861302     1.990395061438     1.007825032070
           C          3.398230012633    -0.763719861302     1.040641061438    12.000000000000
           C          2.091816012633     0.023536138698     0.948591061438    12.000000000000
           H          4.087086012633    -0.474662861302     0.251875061438     1.007825032070
           H          3.223407012633    -1.832217861302     0.951225061438     1.007825032070
           C          1.362257012633    -0.194840861302    -0.372943938562    12.000000000000
           H          2.284978012633     1.085331138698     1.065503061438     1.007825032070
           H          1.438997012633    -0.265088861302     1.770730061438     1.007825032070
           N          0.144910012633     0.589757138698    -0.435632938562    14.003074004780
           H          2.003884012633     0.117631138698    -1.192479938562     1.007825032070
           H          1.176432012633    -1.264554861302    -0.516325938562     1.007825032070
           C         -1.072457987367    -0.194824861302    -0.373095938562    12.000000000000
           H          0.144876012633     1.263998138698     0.306283061438     1.007825032070
           C         -2.307725987367     0.696124138698    -0.454853938562    12.000000000000
           H         -1.070383987367    -0.882673861302    -1.214414938562     1.007825032070
           H         -1.124831987367    -0.811593861302     0.530362061438     1.007825032070
           C         -3.613121987367    -0.097539861302    -0.423153938562    12.000000000000
           H         -2.249312987367     1.285452138698    -1.364542938562     1.007825032070
           H         -2.295885987367     1.402670138698     0.373498061438     1.007825032070
           H         -3.671751987367    -0.790109861302    -1.258098938562     1.007825032070
           H         -4.472929987367     0.562048138698    -0.481668938562     1.007825032070
           H         -3.702570987367    -0.675618861302     0.492309061438     1.007825032070

  Charge       = 0
  Multiplicity = 1
  Basis Set: 6-31G*
  Basis Set:

    Orbital Energies (a.u.)
    -----------------------

    Doubly Occupied:

       1A    -15.529793     2A    -11.237705     3A    -11.236875
       4A    -11.217706     5A    -11.212532     6A    -11.211953
       7A    -11.209180     8A     -1.205431     9A     -1.059876
      10A     -1.026245    11A     -0.928596    12A     -0.868297
      13A     -0.813086    14A     -0.799904    15A     -0.651387
      16A     -0.645214    17A     -0.614159    18A     -0.606226
      19A     -0.576247    20A     -0.554035    21A     -0.547120
      22A     -0.519883    23A     -0.516855    24A     -0.486626
      25A     -0.484230    26A     -0.479398    27A     -0.470667
      28A     -0.452200    29A     -0.351188

  @DF-RHF Final Energy:  -290.37673778807971

   => Energetics <=

    Nuclear Repulsion Energy =            315.7528112390946262
    One-Electron Energy =               -1017.2343773607536832
    Two-Electron Energy =                 411.1048283335798033
    DFT Exchange-Correlation Energy =       0.0000000000000000
    Empirical Dispersion Energy =           0.0000000000000000
    PCM Polarization Energy =               0.0000000000000000
    EFP Energy =                            0.0000000000000000
    Total Energy =                       -290.3767377880792537

  Mulliken Charges: (a.u.)
   Center  Symbol    Alpha    Beta     Spin     Total
       1     H     0.41803  0.41803  0.00000  0.16395
       2     C     3.24314  3.24314  0.00000 -0.48628
       3     C     3.16846  3.16846  0.00000 -0.33692
       4     H     0.41944  0.41944  0.00000  0.16112
       5     H     0.42065  0.42065  0.00000  0.15871
       6     C     3.04362  3.04362  0.00000 -0.08724
       7     H     0.42113  0.42113  0.00000  0.15775
       8     H     0.42238  0.42238  0.00000  0.15524
       9     N     3.85866  3.85866  0.00000 -0.71732
      10     H     0.41950  0.41950  0.00000  0.16099
      11     H     0.42440  0.42440  0.00000  0.15119
      12     C     3.05073  3.05073  0.00000 -0.10146
      13     H     0.33217  0.33217  0.00000  0.33566
      14     C     3.15568  3.15568  0.00000 -0.31135
      15     H     0.42087  0.42087  0.00000  0.15825
      16     H     0.43745  0.43745  0.00000  0.12509
      17     C     3.24312  3.24312  0.00000 -0.48624
      18     H     0.41286  0.41286  0.00000  0.17428
      19     H     0.42704  0.42704  0.00000  0.14592
      20     H     0.42081  0.42081  0.00000  0.15838
      21     H     0.41788  0.41788  0.00000  0.16424
      22     H     0.42199  0.42199  0.00000  0.15603

   Total alpha = 29.00000, Total beta = 29.00000, Total charge = -0.00000
