                              Psi4 1.0.54 Driver

  ==> Input File <==

--------------------------------------------------------------------------
set {
	reference rhf
	basis cc-pvtz
}

set_num_threads( 4 )
memory 2 gb

molecule MOL {
0 1

H	 1.239539	 -1.500069	 1.679659
O	 0.566066	 -0.936974	 1.345875
C	 1.135873	 0.113391	 0.608264
C	 0.027642	 1.012027	 0.090274
H	 1.698213	 -0.278561	 -0.235487
H	 1.828963	 0.677980	 1.225781
C	 -1.138737	 0.285728	 -0.581921
H	 0.464661	 1.708096	 -0.618252
H	 -0.340737	 1.603071	 0.925246
C	 -1.933983	 -0.631436	 0.343653
H	 -0.763151	 -0.285569	 -1.422081
H	 -1.808359	 1.035291	 -0.992333
H	 -2.789188	 -1.049673	 -0.174718
H	 -1.335629	 -1.461368	 0.700418
H	 -2.305435	 -0.092167	 1.209725

	symmetry c1
}
set optking {
	frozen_dihedral = ("
		2 3 4 8
	")
}

ee,wfn = optimize('scf', return_wfn=True)
oeprop( wfn, 'DIPOLE', 'QUADRUPOLE', 'MULLIKEN_CHARGES')
f=open( 'psi4out.xyz', 'w' )
f.write( "15  " )
f.write( str(ee) + "\n" )
f.write( MOL.save_string_xyz() )
f.close()
--------------------------------------------------------------------------

    Molecular point group: c1
  Charge       = 0
  Multiplicity = 1
  Basis Set: CC-PVTZ
  Basis Set:
  @DF-RHF Final Energy:  -232.22894971279297
    Total Energy =                       -232.2289497127929394
    Molecular point group: c1
  Basis Set: CC-PVTZ
  Basis Set:
  Basis Set: CC-PVTZ
  Basis Set:
  @DF-RHF Final Energy:  -232.23339960873943
    Total Energy =                       -232.2333996087393757
  Basis Set: CC-PVTZ
  Basis Set:
  Basis Set: CC-PVTZ
  Basis Set:
  @DF-RHF Final Energy:  -232.23432063159811
    Total Energy =                       -232.2343206315982229
  Basis Set: CC-PVTZ
  Basis Set:
  Basis Set: CC-PVTZ
  Basis Set:
  @DF-RHF Final Energy:  -232.23461117579933
    Total Energy =                       -232.2346111757993867
  Basis Set: CC-PVTZ
  Basis Set:
  Basis Set: CC-PVTZ
  Basis Set:
  @DF-RHF Final Energy:  -232.23484633467504
    Total Energy =                       -232.2348463346750123
  Basis Set: CC-PVTZ
  Basis Set:
  Basis Set: CC-PVTZ
  Basis Set:
  @DF-RHF Final Energy:  -232.23486272316805
    Total Energy =                       -232.2348627231680780
  Basis Set: CC-PVTZ
  Basis Set:
  Charge       = 0
  Multiplicity = 1
  Basis Set: CC-PVTZ
  Basis Set:

    Orbital Energies (a.u.)
    -----------------------

    Doubly Occupied:

       1A    -20.547738     2A    -11.267233     3A    -11.212065
       4A    -11.208257     5A    -11.192260     6A     -1.366036
       7A     -1.061922     8A     -0.971709     9A     -0.860204
      10A     -0.779287    11A     -0.708559    12A     -0.646824
      13A     -0.604567    14A     -0.584305    15A     -0.547733
      16A     -0.538020    17A     -0.511365    18A     -0.471856
      19A     -0.463891    20A     -0.448515    21A     -0.433418

  @DF-RHF Final Energy:  -232.23486335418025

   => Energetics <=

    Nuclear Repulsion Energy =            192.6827249589598239
    One-Electron Energy =                -696.9836505884103417
    Two-Electron Energy =                 272.0660622752702693
    DFT Exchange-Correlation Energy =       0.0000000000000000
    Empirical Dispersion Energy =           0.0000000000000000
    PCM Polarization Energy =               0.0000000000000000
    EFP Energy =                            0.0000000000000000
    Total Energy =                       -232.2348633541802201
    Molecular point group: c1
  Basis Set: CC-PVTZ
  Basis Set:

  -Total Gradient:
     Atom            X                  Y                   Z
    ------   -----------------  -----------------  -----------------
       1        0.000006748997     0.000036179109    -0.000003563455
       2       -0.000091079787    -0.001424988560    -0.002448552618
       3        0.000016822897     0.001438189342     0.002659954623
       4        0.000437507782     0.002120762435     0.002553748208
       5       -0.000002262461     0.000013529102    -0.000006541864
       6       -0.000020261648     0.000008093248    -0.000011721262
       7        0.000030638744    -0.000026498756    -0.000034282505
       8       -0.000388546153    -0.002185692516    -0.002766900739
       9        0.000000965548     0.000013822346     0.000011379091
      10        0.000007973389     0.000021741799     0.000046665600
      11       -0.000006922862     0.000011897343     0.000007952470
      12        0.000034930813     0.000007983002     0.000008218753
      13       -0.000015814252    -0.000008618413    -0.000007874196
      14       -0.000015974678    -0.000020476615    -0.000000674297
      15        0.000005273670    -0.000005922865    -0.000007807811

  **** Optimization is complete! (in 7 steps) ****
    Final optimized geometry and variables:
    Molecular point group: c1

    Geometry (in Angstrom), charge = 0, multiplicity = 1:

    H            1.802848756114    -1.372033134949     1.169354926014
    O            1.035410455032    -0.903638725708     0.898020762459
    C            1.406069616232     0.269261426886     0.222102238161
    C            0.177776656780     1.053962321473    -0.210273176712
    H            1.989102287370     0.013553651535    -0.660634648947
    H            2.029337564786     0.895407174812     0.855398609860
    C           -0.882170098698     0.245144745379    -0.972394665492
    H            0.538452528734     1.836417410533    -0.871512045495
    H           -0.274901486251     1.537710459929     0.649274730395
    C           -1.896656282845    -0.480711674763    -0.091789912364
    H           -0.387805377500    -0.469476671713    -1.624250272749
    H           -1.421003421411     0.925804179363    -1.624299971995
    H           -2.627369670730    -1.000473564292    -0.702363137134
    H           -1.417418469514    -1.201048640779     0.554195198102
    H           -2.435534579108     0.224998056811     0.532812282324

  Mulliken Charges: (a.u.)
   Center  Symbol    Alpha    Beta     Spin     Total
       1     H     0.39738  0.39738  0.00000  0.20523
       2     O     4.19470  4.19470  0.00000 -0.38940
       3     C     2.97182  2.97182  0.00000  0.05637
       4     C     3.09612  3.09612  0.00000 -0.19225
       5     H     0.47427  0.47427  0.00000  0.05146
       6     H     0.46619  0.46619  0.00000  0.06761
       7     C     3.08323  3.08323  0.00000 -0.16646
       8     H     0.45000  0.45000  0.00000  0.10000
       9     H     0.45355  0.45355  0.00000  0.09291
      10     C     3.14663  3.14663  0.00000 -0.29326
      11     H     0.45681  0.45681  0.00000  0.08637
      12     H     0.45117  0.45117  0.00000  0.09767
      13     H     0.45364  0.45364  0.00000  0.09271
      14     H     0.44423  0.44423  0.00000  0.11154
      15     H     0.46025  0.46025  0.00000  0.07949

   Total alpha = 21.00000, Total beta = 21.00000, Total charge = -0.00000

*** Psi4 exiting successfully. Buy a developer a beer!
