  ==> Input File <==

--------------------------------------------------------------------------
set {
	reference rhf
	basis 6-31G*
}

set_num_threads( 4 )
memory 2 gb

molecule MOL {
0 1

H	 -1.140869	 -0.468688	 0.678037
N	 -0.712432	 0.000013	 -0.096310
C	 0.734192	 -0.000004	 0.040609
H	 -1.067101	 0.936517	 -0.101484
H	 1.139899	 -0.873598	 -0.456463
H	 1.139939	 0.873831	 -0.456100
H	 1.096456	 -0.000300	 1.069655

	symmetry c1
}
set optking {
	frozen_dihedral = ("
		1 2 3 7
	")
}

ee = optimize('scf')
oeprop('DIPOLE', 'QUADRUPOLE', 'MULLIKEN_CHARGES')
f=open( 'psi4out.xyz', 'w' )
f.write( "7  " )
f.write( str(ee) + "\n" )
f.write( MOL.save_string_xyz() )
f.close()
--------------------------------------------------------------------------

    Molecular point group: c1
  Charge       = 0
  Multiplicity = 1
  Basis Set: 6-31G*
  Basis Set:
  @DF-RHF Final Energy:   -95.20788363143853
    Total Energy =                        -95.2078836314385484
    Molecular point group: c1
  Basis Set: 6-31G*
  Basis Set:
  Basis Set: 6-31G*
  Basis Set:
  @DF-RHF Final Energy:   -95.20799271095987
    Total Energy =                        -95.2079927109598287
  Basis Set: 6-31G*
  Basis Set:
  Basis Set: 6-31G*
  Basis Set:
  @DF-RHF Final Energy:   -95.20801444589375
    Total Energy =                        -95.2080144458937809
  Basis Set: 6-31G*
  Basis Set:
  Charge       = 0
  Multiplicity = 1
  Basis Set: 6-31G*
  Basis Set:

    Orbital Energies (a.u.)
    -----------------------

    Doubly Occupied:

       1A    -15.534756     2A    -11.237669     3A     -1.170124
       4A     -0.897348     5A     -0.663116     6A     -0.601563
       7A     -0.556497     8A     -0.518698     9A     -0.384042

  @DF-RHF Final Energy:   -95.20801500997499

   => Energetics <=

    Nuclear Repulsion Energy =             42.2764274516231850
    One-Electron Energy =                -211.8412556918861469
    Two-Electron Energy =                  74.3568132302879974
    DFT Exchange-Correlation Energy =       0.0000000000000000
    Empirical Dispersion Energy =           0.0000000000000000
    PCM Polarization Energy =               0.0000000000000000
    EFP Energy =                            0.0000000000000000
    Total Energy =                        -95.2080150099749574
    Molecular point group: c1
  Basis Set: 6-31G*
  Basis Set:

  -Total Gradient:
     Atom            X                  Y                   Z
    ------   -----------------  -----------------  -----------------
       1       -0.000190761709     0.002818111385     0.001626709358
       2        0.000237622918    -0.004498909420    -0.001996453225
       3       -0.000135620696     0.004803012914     0.000379830678
       4        0.000012981760     0.000001226834    -0.000012109982
       5       -0.000002429410    -0.000010208877     0.000004155045
       6        0.000040634513    -0.000008105818    -0.000006424786
       7        0.000037572624    -0.003105127018     0.000004292911

  **** Optimization is complete! (in 4 steps) ****
    Final optimized geometry and variables:
    Molecular point group: c1

    Geometry (in Angstrom), charge = 0, multiplicity = 1:

    H           -1.142716385369    -0.487837167566     0.679637203953
    N           -0.715506353240    -0.016486837038    -0.093587001574
    C            0.736099862756    -0.012545674978     0.042840066246
    H           -1.067313845087     0.920594232322    -0.068882387346
    H            1.150317542518    -0.893765446049    -0.435839402200
    H            1.150422736162     0.853427099697    -0.459030634231
    H            1.086170882987    -0.013965627098     1.074356470666

  Mulliken Charges: (a.u.)
   Center  Symbol    Alpha    Beta     Spin     Total
       1     H     0.33326  0.33326  0.00000  0.33348
       2     N     3.91801  3.91801  0.00000 -0.83603
       3     C     3.14818  3.14818  0.00000 -0.29635
       4     H     0.33376  0.33376  0.00000  0.33247
       5     H     0.41617  0.41617  0.00000  0.16766
       6     H     0.41962  0.41962  0.00000  0.16076
       7     H     0.43100  0.43100  0.00000  0.13801

   Total alpha =  9.00000, Total beta =  9.00000, Total charge = -0.00000
