  ==> Input File <==

--------------------------------------------------------------------------
set {
	reference rhf
	basis 6-31G*
}

set_num_threads( 4 )
memory 2 gb

molecule MOL {
0 1

H	 -3.261111	 -0.295142	 1.469456
C	 -3.306842	 -0.277400	 0.373456
C	 -2.660244	 0.921717	 -0.272021
O	 -3.838538	 -1.161155	 -0.216482
C	 -2.804519	 2.194671	 0.573572
H	 -1.619819	 0.687024	 -0.464747
H	 -3.152036	 1.072073	 -1.232328
C	 -2.030921	 2.141613	 1.893432
H	 -2.457440	 3.039199	 -0.014299
H	 -3.859140	 2.378111	 0.773277
C	 -2.174472	 3.420928	 2.720209
H	 -0.978822	 1.961727	 1.682302
H	 -2.368289	 1.292696	 2.485093
C	 -1.386602	 3.370724	 4.031959
H	 -1.845956	 4.266215	 2.120794
H	 -3.227486	 3.591831	 2.940072
C	 -1.565935	 4.597894	 4.933050
H	 -0.328393	 3.238945	 3.811681
H	 -1.692510	 2.486932	 4.587878
C	 -1.003928	 5.898048	 4.355670
H	 -1.077271	 4.399631	 5.883759
H	 -2.622582	 4.728802	 5.157284
H	 0.048620	 5.791481	 4.106564
H	 -1.527677	 6.203125	 3.455898
H	 -1.092486	 6.707955	 5.073446

	symmetry c1
}
set optking {
	frozen_dihedral = ("
		6 3 2 4
	")
}

ee = optimize('scf')
oeprop('DIPOLE', 'QUADRUPOLE', 'MULLIKEN_CHARGES')
f=open( 'psi4out.xyz', 'w' )
f.write( "25  " )
f.write( str(ee) + "\n" )
f.write( MOL.save_string_xyz() )
f.close()
--------------------------------------------------------------------------

    Molecular point group: c1
  Charge       = 0
  Multiplicity = 1
  Basis Set: 6-31G*
  Basis Set:
  @DF-RHF Final Energy:  -387.11881016302362
    Total Energy =                       -387.1188101630229994
    Molecular point group: c1
  Basis Set: 6-31G*
  Basis Set:
  Basis Set: 6-31G*
  Basis Set:
  @DF-RHF Final Energy:  -387.11969587128027
    Total Energy =                       -387.1196958712801006
  Basis Set: 6-31G*
  Basis Set:
  Basis Set: 6-31G*
  Basis Set:
  @DF-RHF Final Energy:  -387.11997210957247
    Total Energy =                       -387.1199721095721316
  Basis Set: 6-31G*
  Basis Set:
  Basis Set: 6-31G*
  Basis Set:
  @DF-RHF Final Energy:  -387.12002341978325
    Total Energy =                       -387.1200234197826830
  Basis Set: 6-31G*
  Basis Set:
  @DF-RHF Final Energy:  -387.12007796240300
    Total Energy =                       -387.1200779624027746
  @DF-RHF Final Energy:  -387.12009684523349
    Total Energy =                       -387.1200968452335474
  Basis Set: 6-31G*
  Basis Set:
  @DF-RHF Final Energy:  -387.12010694797192
    Total Energy =                       -387.1201069479725447
  Basis Set: 6-31G*
  Basis Set:
  Basis Set: 6-31G*
  Basis Set:
  @DF-RHF Final Energy:  -387.12011204543421
    Total Energy =                       -387.1201120454342117
  Basis Set: 6-31G*
  Basis Set:
  Basis Set: 6-31G*
  Basis Set:
  @DF-RHF Final Energy:  -387.12011927292292
    Total Energy =                       -387.1201192729224658
  Basis Set: 6-31G*
  Basis Set:
  Charge       = 0
  Multiplicity = 1
  Basis Set: 6-31G*
  Basis Set:

    Orbital Energies (a.u.)
    -----------------------

    Doubly Occupied:

       1A    -20.560740     2A    -11.325956     3A    -11.234971
       4A    -11.234347     5A    -11.228210     6A    -11.222465
       7A    -11.220455     8A    -11.219866     9A    -11.212489
      10A     -1.401075    11A     -1.105516    12A     -1.070651
      13A     -1.014478    14A     -0.943576    15A     -0.876510
      16A     -0.825400    17A     -0.787148    18A     -0.784339
      19A     -0.668109    20A     -0.662148    21A     -0.633674
      22A     -0.619492    23A     -0.608718    24A     -0.597482
      25A     -0.564384    26A     -0.561060    27A     -0.543411
      28A     -0.521090    29A     -0.507682    30A     -0.504051
      31A     -0.486817    32A     -0.480283    33A     -0.467412
      34A     -0.461729    35A     -0.445308    36A     -0.407671

  @DF-RHF Final Energy:  -387.12011959080070

   => Energetics <=

    Nuclear Repulsion Energy =            435.2858172622738380
    One-Electron Energy =               -1386.7944474536488997
    Two-Electron Energy =                 564.3885106005741363
    DFT Exchange-Correlation Energy =       0.0000000000000000
    Empirical Dispersion Energy =           0.0000000000000000
    PCM Polarization Energy =               0.0000000000000000
    EFP Energy =                            0.0000000000000000
    Total Energy =                       -387.1201195908008685
    Molecular point group: c1
  Basis Set: 6-31G*
  Basis Set:

  -Total Gradient:
     Atom            X                  Y                   Z
    ------   -----------------  -----------------  -----------------
       1        0.000013057197    -0.000010132954    -0.000007545559
       2       -0.000250844212     0.000120926739    -0.000038709489
       3        0.000116573323    -0.000004664728     0.000211114505
       4        0.000148064665    -0.000091078922     0.000006101935
       5       -0.000025113563    -0.000008851444     0.000003354501
       6       -0.000034667832    -0.000029603083    -0.000144219127
       7       -0.000019282874     0.000016441142    -0.000002785097
       8        0.000028866048    -0.000006543493    -0.000003536417
       9        0.000020828671    -0.000012410945    -0.000013597987
      10        0.000002754774     0.000005295866    -0.000012560726
      11       -0.000014717052    -0.000005296739    -0.000004068186
      12        0.000009837882     0.000019624164    -0.000005317791
      13        0.000015636557     0.000010902888     0.000002152305
      14       -0.000011955385    -0.000009032094     0.000007896491
      15        0.000009274679    -0.000004084918     0.000006543668
      16       -0.000005115738     0.000009814474    -0.000006158619
      17       -0.000004656521    -0.000001703125     0.000000795003
      18       -0.000004032823     0.000002544795    -0.000004749702
      19        0.000004006840    -0.000002846151     0.000003751787
      20        0.000000739675    -0.000000367817     0.000000479758
      21       -0.000000711641    -0.000000383415     0.000000439139
      22        0.000000345438     0.000001104449    -0.000000813571
      23        0.000000693920     0.000000136900    -0.000000767882
      24        0.000000154227     0.000000290985     0.000001695925
      25        0.000000263751    -0.000000082569     0.000000505139

  **** Optimization is complete! (in 10 steps) ****
    Final optimized geometry and variables:
    Molecular point group: c1

    Geometry (in Angstrom), charge = 0, multiplicity = 1:

    H           -1.211093327580    -2.713635611543    -0.655302059589
    C           -1.109260592057    -2.639747719985    -1.743046630013
    C           -0.336813797248    -1.452270256673    -2.267939059500
    O           -1.587969084789    -3.475234195047    -2.440117320453
    C           -0.474703574229    -0.184762164315    -1.413393436534
    H            0.710388652440    -1.746641529760    -2.327215171314
    H           -0.670747645127    -1.281464709116    -3.285077213263
    C            0.325912065006    -0.213857242501    -0.107754519509
    H           -0.144245221112     0.662704274228    -2.007042959973
    H           -1.526314698164    -0.006091018862    -1.196010548509
    C            0.163045626887     1.064092090140     0.717930702744
    H            1.378830267967    -0.360133908312    -0.342328333871
    H            0.029688003069    -1.067364770046     0.498451412090
    C            0.978386692012     1.042576612824     2.013604257991
    H            0.453570992801     1.915997174239     0.108632026746
    H           -0.889610835476     1.204259589643     0.958685722855
    C            0.776224044721     2.264596078730     2.916851045969
    H            2.035824685699     0.946942101327     1.772025856177
    H            0.714257965450     0.149906250471     2.576991213892
    C            1.279345565215     3.582567992615     2.325224154311
    H            1.291681645562     2.085379732047     3.857069781605
    H           -0.279388413872     2.358476966237     3.163453859013
    H            2.330231709313     3.513943441481     2.056960308384
    H            0.728067186735     3.865624218168     1.434661392155
    H            1.174721527832     4.390912173668     3.042234733864

  Mulliken Charges: (a.u.)
   Center  Symbol    Alpha    Beta     Spin     Total
       1     H     0.42969  0.42969  0.00000  0.14061
       2     C     2.83161  2.83161  0.00000  0.33678
       3     C     3.21034  3.21034  0.00000 -0.42068
       4     O     4.24039  4.24039  0.00000 -0.48079
       5     C     3.16711  3.16711  0.00000 -0.33422
       6     H     0.40377  0.40377  0.00000  0.19246
       7     H     0.39664  0.39664  0.00000  0.20673
       8     C     3.15624  3.15624  0.00000 -0.31248
       9     H     0.41242  0.41242  0.00000  0.17516
      10     H     0.41670  0.41670  0.00000  0.16659
      11     C     3.15400  3.15400  0.00000 -0.30801
      12     H     0.42055  0.42055  0.00000  0.15889
      13     H     0.42228  0.42228  0.00000  0.15544
      14     C     3.15305  3.15305  0.00000 -0.30610
      15     H     0.41995  0.41995  0.00000  0.16010
      16     H     0.42253  0.42253  0.00000  0.15494
      17     C     3.15278  3.15278  0.00000 -0.30556
      18     H     0.42347  0.42347  0.00000  0.15306
      19     H     0.42183  0.42183  0.00000  0.15633
      20     C     3.24152  3.24152  0.00000 -0.48304
      21     H     0.41994  0.41994  0.00000  0.16012
      22     H     0.42275  0.42275  0.00000  0.15450
      23     H     0.42197  0.42197  0.00000  0.15606
      24     H     0.42022  0.42022  0.00000  0.15956
      25     H     0.41822  0.41822  0.00000  0.16356

   Total alpha = 36.00000, Total beta = 36.00000, Total charge =  0.00000
