  ==> Input File <==

--------------------------------------------------------------------------
set {
	reference rhf
	basis 6-31G*
}

set_num_threads( 4 )
memory 2 gb

molecule MOL {
0 1

H	 5.268524	 0.192471	 1.070992
C	 4.673736	 -0.214914	 0.259335
C	 3.185378	 -0.203514	 0.605509
H	 4.871837	 0.380453	 -0.627026
H	 5.025590	 -1.224632	 0.065769
C	 2.317601	 -0.778379	 -0.516234
H	 2.874655	 0.814325	 0.817774
H	 3.023650	 -0.778480	 1.515976
C	 2.873786	 -0.523004	 -1.917201
H	 2.199433	 -1.846698	 -0.373492
H	 1.324296	 -0.339125	 -0.457568
C	 4.120833	 -1.327676	 -2.252786
H	 2.125355	 -0.785878	 -2.663203
H	 3.079110	 0.534621	 -2.067027
C	 4.957354	 -0.866692	 -3.433651
O	 4.426817	 -2.297703	 -1.626825
C	 4.210540	 -0.911434	 -4.775079
H	 5.832032	 -1.504883	 -3.470578
H	 5.294249	 0.150534	 -3.242761
C	 5.110265	 -0.535032	 -5.953818
H	 3.813599	 -1.912278	 -4.931174
H	 3.357264	 -0.238548	 -4.750279
C	 4.378400	 -0.575874	 -7.294568
H	 5.961511	 -1.210651	 -5.985124
H	 5.515575	 0.461515	 -5.792527
H	 3.989409	 -1.569212	 -7.498751
H	 3.541058	 0.116100	 -7.306546
H	 5.041413	 -0.306386	 -8.110454

	symmetry c1
}
set optking {
	frozen_dihedral = ("
		10 6 3 2
	")
}

ee = optimize('scf')
oeprop('DIPOLE', 'QUADRUPOLE', 'MULLIKEN_CHARGES')
f=open( 'psi4out.xyz', 'w' )
f.write( "28  " )
f.write( str(ee) + "\n" )
f.write( MOL.save_string_xyz() )
f.close()
--------------------------------------------------------------------------

    Molecular point group: c1
  Charge       = 0
  Multiplicity = 1
  Basis Set: 6-31G*
  Basis Set:
  @DF-RHF Final Energy:  -426.15287843409055
    Total Energy =                       -426.1528784340910079
    Molecular point group: c1
  Basis Set: 6-31G*
  Basis Set:
  Basis Set: 6-31G*
  Basis Set:
  @DF-RHF Final Energy:  -426.15933884653202
    Total Energy =                       -426.1593388465321368
  Basis Set: 6-31G*
  Basis Set:
  Basis Set: 6-31G*
  Basis Set:
  @DF-RHF Final Energy:  -426.16125292414199
    Total Energy =                       -426.1612529241422180
  Basis Set: 6-31G*
  Basis Set:
  Basis Set: 6-31G*
  Basis Set:
  @DF-RHF Final Energy:  -426.16227245972277
    Total Energy =                       -426.1622724597223169
  Basis Set: 6-31G*
  Basis Set:
  @DF-RHF Final Energy:  -426.16206115803379
    Total Energy =                       -426.1620611580342484
  @DF-RHF Final Energy:  -426.16273631748538
    Total Energy =                       -426.1627363174850416
  @DF-RHF Final Energy:  -426.16291264799486
    Total Energy =                       -426.1629126479947445
  Basis Set: 6-31G*
  Basis Set:
  @DF-RHF Final Energy:  -426.16265542144379
    Total Energy =                       -426.1626554214441285
  Basis Set: 6-31G*
  Basis Set:
  Basis Set: 6-31G*
  Basis Set:
  @DF-RHF Final Energy:  -426.16294668143314
    Total Energy =                       -426.1629466814335956
  Basis Set: 6-31G*
  Basis Set:
  Basis Set: 6-31G*
  Basis Set:
  @DF-RHF Final Energy:  -426.16295294699705
    Total Energy =                       -426.1629529469965973
  Basis Set: 6-31G*
  Basis Set:
  Charge       = 0
  Multiplicity = 1
  Basis Set: 6-31G*
  Basis Set:

    Orbital Energies (a.u.)
    -----------------------

    Doubly Occupied:

       1A    -20.546785     2A    -11.321706     3A    -11.232299
       4A    -11.230218     5A    -11.228543     6A    -11.225948
       7A    -11.217132     8A    -11.216190     9A    -11.216074
      10A    -11.206301    11A     -1.392332    12A     -1.094963
      13A     -1.075922    14A     -1.020903    15A     -0.988711
      16A     -0.912803    17A     -0.881408    18A     -0.808687
      19A     -0.790396    20A     -0.721290    21A     -0.667678
      22A     -0.649514    23A     -0.638174    24A     -0.624197
      25A     -0.602729    26A     -0.593872    27A     -0.578854
      28A     -0.553692    29A     -0.550103    30A     -0.536612
      31A     -0.523609    32A     -0.509764    33A     -0.506459
      34A     -0.484486    35A     -0.477862    36A     -0.474228
      37A     -0.470809    38A     -0.457479    39A     -0.453394
      40A     -0.391796

  @DF-RHF Final Energy:  -426.16295345617380

   => Energetics <=

    Nuclear Repulsion Energy =            541.9054549517580881
    One-Electron Energy =               -1651.9889689068404550
    Two-Electron Energy =                 683.9205604989083440
    DFT Exchange-Correlation Energy =       0.0000000000000000
    Empirical Dispersion Energy =           0.0000000000000000
    PCM Polarization Energy =               0.0000000000000000
    EFP Energy =                            0.0000000000000000
    Total Energy =                       -426.1629534561739092
    Molecular point group: c1
  Basis Set: 6-31G*
  Basis Set:

  -Total Gradient:
     Atom            X                  Y                   Z
    ------   -----------------  -----------------  -----------------
       1       -0.000013220388    -0.000014286501    -0.000019054724
       2       -0.000364299492     0.003583735367    -0.001846408629
       3       -0.000569279215    -0.005022722683     0.003315409181
       4        0.000005046990     0.000007402800    -0.000022433021
       5        0.000001219841     0.000030294333     0.000014469546
       6        0.005742378835     0.000583815345    -0.004095607681
       7       -0.000020147840     0.000006860259     0.000009132271
       8       -0.000035724652    -0.000018953966    -0.000035419254
       9        0.000044478233    -0.000033605512     0.000056761188
      10       -0.004764923360     0.000823767537     0.002610711354
      11       -0.000010103791     0.000009906071    -0.000001282770
      12       -0.000048836259     0.000011959173     0.000007515398
      13       -0.000010886619     0.000004474921     0.000001684827
      14        0.000012030941     0.000012693532     0.000013278972
      15        0.000022224193    -0.000055552567    -0.000104497998
      16        0.000020513963     0.000047013699     0.000023097322
      17        0.000007960131    -0.000047657569     0.000043096965
      18        0.000031653065    -0.000005444509    -0.000012516754
      19       -0.000021631160    -0.000008448684    -0.000008646104
      20        0.000001936584     0.000066226291     0.000031766330
      21       -0.000040716075     0.000003901834    -0.000031834129
      22        0.000013853796     0.000040818712     0.000052264294
      23        0.000009232029    -0.000061700255    -0.000013329932
      24        0.000004021438     0.000028557809     0.000036263095
      25       -0.000017897234     0.000024487688    -0.000016245536
      26       -0.000023262961    -0.000001231019    -0.000005758993
      27        0.000021055926     0.000006351181     0.000003508384
      28        0.000003323080    -0.000022663282    -0.000005923608

  **** Optimization is complete! (in 11 steps) ****
    Final optimized geometry and variables:
    Molecular point group: c1

    Geometry (in Angstrom), charge = 0, multiplicity = 1:

    H            1.075649662206     1.300618517268     4.093649917049
    C            0.655341450224     0.806685993739     3.222961409585
    C           -0.865680368841     0.708103464054     3.358709576215
    H            0.944256837049     1.392212131146     2.354916131531
    H            1.117667466140    -0.169886355866     3.137996698636
    C           -1.625708286287     0.027689308607     2.201081331607
    H           -1.251727280730     1.719080800179     3.473687692206
    H           -1.111481739240     0.188501362383     4.279828317930
    C           -1.090656112205     0.271106384591     0.788870376768
    H           -1.710997454400    -1.036818783548     2.382499467653
    H           -2.646904734931     0.399884535074     2.230416621945
    C            0.076156584296    -0.615928195647     0.378978127042
    H           -1.883507723071     0.062481501788     0.072003658523
    H           -0.829977848876     1.315287930369     0.637808688367
    C            0.932384084022    -0.152693123547    -0.786555218805
    O            0.292922585885    -1.656301778811     0.923570450726
    C            0.164988719601    -0.076955248967    -2.115173738165
    H            1.758214909288    -0.848738437987    -0.871226234426
    H            1.342925150835     0.827273821989    -0.551346354048
    C            1.070043691485     0.304541599163    -3.288131869447
    H           -0.297881317117    -1.040613688425    -2.316562327564
    H           -0.642632177613     0.646717145383    -2.039064814901
    C            0.320924398976     0.367440059976    -4.618483008878
    H            1.881552142111    -0.415061501584    -3.363174541880
    H            1.532520387020     1.268364087634    -3.086682947396
    H           -0.128010470768    -0.591317219287    -4.861293360813
    H           -0.474533771401     1.106600167549    -4.587055975022
    H            0.988696826791     0.635042310215    -5.431134786120

  Mulliken Charges: (a.u.)
   Center  Symbol    Alpha    Beta     Spin     Total
       1     H     0.41901  0.41901  0.00000  0.16198
       2     C     3.24950  3.24950  0.00000 -0.49899
       3     C     3.15038  3.15038  0.00000 -0.30077
       4     H     0.42854  0.42854  0.00000  0.14293
       5     H     0.40647  0.40647  0.00000  0.18707
       6     C     3.15489  3.15489  0.00000 -0.30978
       7     H     0.42511  0.42511  0.00000  0.14979
       8     H     0.41752  0.41752  0.00000  0.16496
       9     C     3.21435  3.21435  0.00000 -0.42869
      10     H     0.40255  0.40255  0.00000  0.19491
      11     H     0.42060  0.42060  0.00000  0.15881
      12     C     2.72783  2.72783  0.00000  0.54434
      13     H     0.40230  0.40230  0.00000  0.19540
      14     H     0.41207  0.41207  0.00000  0.17587
      15     C     3.20178  3.20178  0.00000 -0.40356
      16     O     4.26852  4.26852  0.00000 -0.53704
      17     C     3.16413  3.16413  0.00000 -0.32827
      18     H     0.39983  0.39983  0.00000  0.20033
      19     H     0.41304  0.41304  0.00000  0.17391
      20     C     3.15174  3.15174  0.00000 -0.30349
      21     H     0.41336  0.41336  0.00000  0.17328
      22     H     0.41861  0.41861  0.00000  0.16277
      23     C     3.24033  3.24033  0.00000 -0.48067
      24     H     0.41840  0.41840  0.00000  0.16320
      25     H     0.42146  0.42146  0.00000  0.15707
      26     H     0.41956  0.41956  0.00000  0.16088
      27     H     0.42122  0.42122  0.00000  0.15756
      28     H     0.41691  0.41691  0.00000  0.16619

   Total alpha = 40.00000, Total beta = 40.00000, Total charge =  0.00000
