  ==> Input File <==

--------------------------------------------------------------------------
set {
	reference rhf
	basis cc-pvtz
}

set_num_threads( 4 )
memory 2 gb

molecule MOL {
0 1

H	 1.015141	 1.074105	 1.626722
C	 1.145790	 0.579871	 0.654353
C	 0.062554	 0.862911	 -0.350953
O	 2.088623	 -0.106419	 0.461411
C	 -1.339253	 0.577611	 0.196911
H	 0.263993	 0.288164	 -1.245705
H	 0.139585	 1.917756	 -0.604807
C	 -1.813142	 -0.849710	 -0.061612
H	 -2.032833	 1.276441	 -0.256032
H	 -1.357249	 0.782269	 1.263793
H	 -1.839268	 -1.063526	 -1.124230
H	 -2.810118	 -1.001930	 0.334000
H	 -1.159274	 -1.579980	 0.402282

	symmetry c1
}
set optking {
	frozen_dihedral = ("
		6 3 5 9
	")
}

ee = optimize('scf')
oeprop('DIPOLE', 'QUADRUPOLE', 'MULLIKEN_CHARGES')
f=open( 'psi4out.xyz', 'w' )
f.write( "13  " )
f.write( str(ee) + "\n" )
f.write( MOL.save_string_xyz() )
f.close()
--------------------------------------------------------------------------

    Molecular point group: c1
  Charge       = 0
  Multiplicity = 1
  Basis Set: CC-PVTZ
  Basis Set:
  @DF-RHF Final Energy:  -231.06888338198451
    Total Energy =                       -231.0688833819845627
    Molecular point group: c1
  Basis Set: CC-PVTZ
  Basis Set:
  Basis Set: CC-PVTZ
  Basis Set:
  @DF-RHF Final Energy:  -231.06910055279980
    Total Energy =                       -231.0691005527996253
  Basis Set: CC-PVTZ
  Basis Set:
  Basis Set: CC-PVTZ
  Basis Set:
  @DF-RHF Final Energy:  -231.06699900269138
    Total Energy =                       -231.0669990026914320
  Basis Set: CC-PVTZ
  Basis Set:
  Basis Set: CC-PVTZ
  Basis Set:
  @DF-RHF Final Energy:  -231.06916355013425
    Total Energy =                       -231.0691635501343058
  Basis Set: CC-PVTZ
  Basis Set:
  Basis Set: CC-PVTZ
  Basis Set:
  @DF-RHF Final Energy:  -231.06918775628063
    Total Energy =                       -231.0691877562806837
  Basis Set: CC-PVTZ
  Basis Set:
  Basis Set: CC-PVTZ
  Basis Set:
  @DF-RHF Final Energy:  -231.06919319713359
    Total Energy =                       -231.0691931971335009
  Basis Set: CC-PVTZ
  Basis Set:
  Basis Set: CC-PVTZ
  Basis Set:
  @DF-RHF Final Energy:  -231.06919697343270
    Total Energy =                       -231.0691969734327813
  Basis Set: CC-PVTZ
  Basis Set:
  Charge       = 0
  Multiplicity = 1
  Basis Set: CC-PVTZ
  Basis Set:

    Orbital Energies (a.u.)
    -----------------------

    Doubly Occupied:

       1A    -20.552957     2A    -11.321822     3A    -11.237049
       4A    -11.234682     5A    -11.219009     6A     -1.407879
       7A     -1.086766     8A     -0.974777     9A     -0.844498
      10A     -0.792581    11A     -0.671191    12A     -0.651658
      13A     -0.627759    14A     -0.589953    15A     -0.561452
      16A     -0.540186    17A     -0.502755    18A     -0.496720
      19A     -0.483065    20A     -0.413064

  @DF-RHF Final Energy:  -231.06919773747282

   => Energetics <=

    Nuclear Repulsion Energy =            173.4987764469791216
    One-Electron Energy =                -656.7163001017952411
    Two-Electron Energy =                 252.1483259173434703
    DFT Exchange-Correlation Energy =       0.0000000000000000
    Empirical Dispersion Energy =           0.0000000000000000
    PCM Polarization Energy =               0.0000000000000000
    EFP Energy =                            0.0000000000000000
    Total Energy =                       -231.0691977374726207
    Molecular point group: c1
  Basis Set: CC-PVTZ
  Basis Set:

  -Total Gradient:
     Atom            X                  Y                   Z
    ------   -----------------  -----------------  -----------------
       1       -0.000009440225    -0.000011049666     0.000005530818
       2        0.000047045610     0.000025795042     0.000009180927
       3       -0.001564049477     0.003796662908    -0.001891543790
       4       -0.000024375941    -0.000000014956    -0.000001187650
       5       -0.000284009723    -0.003424475961    -0.002696293166
       6        0.001320184545    -0.002615175801     0.001970697938
       7        0.000003164652    -0.000008564424     0.000000215389
       8       -0.000001959208     0.000014628302    -0.000005708636
       9        0.000512994088     0.002229046859     0.002611992289
      10       -0.000001961499    -0.000002035073    -0.000002451251
      11       -0.000001385362     0.000000822714    -0.000003795941
      12        0.000002906393    -0.000003419521     0.000001561054
      13        0.000000886150    -0.000002220421     0.000001802019

  **** Optimization is complete! (in 8 steps) ****
    Final optimized geometry and variables:
    Molecular point group: c1

    Geometry (in Angstrom), charge = 0, multiplicity = 1:

    H            1.018022418166     0.899617071414     1.433845177908
    C            1.109023692305     0.377663124121     0.471809421832
    C            0.046902628074     0.719513421287    -0.540097129887
    O            1.990743438891    -0.389672712200     0.295895496446
    C           -1.362458848821     0.416835459384    -0.005493224461
    H            0.262262556548     0.151186967652    -1.435352106551
    H            0.143942966650     1.778399322254    -0.760689368195
    C           -1.795454057016    -1.026788008418    -0.233682887245
    H           -2.071391084513     1.103288395091    -0.452552137925
    H           -1.391834559602     0.637421566932     1.058962198329
    H           -1.847364010758    -1.253297472963    -1.292549709923
    H           -2.773216513253    -1.210209440552     0.195445054061
    H           -1.097653495246    -1.723310344108     0.217733665942

  Mulliken Charges: (a.u.)
   Center  Symbol    Alpha    Beta     Spin     Total
       1     H     0.46592  0.46592  0.00000  0.06815
       2     C     2.90509  2.90509  0.00000  0.18982
       3     C     3.08602  3.08602  0.00000 -0.17204
       4     O     4.16434  4.16434  0.00000 -0.32867
       5     C     3.09960  3.09960  0.00000 -0.19921
       6     H     0.44495  0.44495  0.00000  0.11009
       7     H     0.44191  0.44191  0.00000  0.11619
       8     C     3.14410  3.14410  0.00000 -0.28821
       9     H     0.44418  0.44418  0.00000  0.11163
      10     H     0.45498  0.45498  0.00000  0.09004
      11     H     0.45235  0.45235  0.00000  0.09530
      12     H     0.44720  0.44720  0.00000  0.10561
      13     H     0.44935  0.44935  0.00000  0.10130

   Total alpha = 20.00000, Total beta = 20.00000, Total charge = -0.00000
