  ==> Input File <==

--------------------------------------------------------------------------
set {
	reference rhf
	basis 6-31G*
}

set_num_threads( 1 )
memory 2 gb

molecule MOL {
0 1

H	 -2.753687	 2.991606	 -1.436284
O	 -2.051901	 2.400901	 -1.669668
C	 -1.549321	 1.783967	 -0.512345
C	 -0.428557	 0.845600	 -0.923566
H	 -1.173622	 2.529716	 0.186953
H	 -2.334573	 1.226369	 -0.003618
C	 0.198102	 0.111031	 0.262842
H	 0.327335	 1.424636	 -1.447086
H	 -0.825966	 0.131439	 -1.639469
C	 1.331804	 -0.827780	 -0.158768
H	 0.568377	 0.840118	 0.979433
H	 -0.568266	 -0.465351	 0.779545
C	 2.723619	 -0.410569	 0.329459
H	 1.342964	 -0.912588	 -1.244120
H	 1.116806	 -1.824343	 0.220779
C	 3.243875	 0.895854	 -0.272975
H	 3.424222	 -1.207124	 0.091250
H	 2.714788	 -0.329854	 1.414619
H	 3.251977	 0.848779	 -1.358681
H	 2.637085	 1.747371	 0.016682
H	 4.259473	 1.094070	 0.055697

	symmetry c1
}
set optking {
	frozen_dihedral = ("
		2 3 4 8,
		8 4 7 10,
		16 13 10 14,
		1 2 3 5
	")
}

ee = energy('scf')
oeprop('DIPOLE', 'QUADRUPOLE', 'MULLIKEN_CHARGES')
f=open( 'psi4out.xyz', 'w' )
f.write( "21  " )
f.write( str(ee) + "\n" )
f.write( MOL.save_string_xyz() )
f.close()
--------------------------------------------------------------------------

    Molecular point group: c1

    Geometry (in Angstrom), charge = 0, multiplicity = 1:

       Center              X                  Y                   Z               Mass
    ------------   -----------------  -----------------  -----------------  -----------------
           H         -3.199260008441     2.253757475272    -0.991433568351     1.007825032070
           O         -2.497474008441     1.663052475272    -1.224817568351    15.994914619560
           C         -1.994894008441     1.046118475272    -0.067494568351    12.000000000000
           C         -0.874130008441     0.107751475272    -0.478715568351    12.000000000000
           H         -1.619195008441     1.791867475272     0.631803431649     1.007825032070
           H         -2.780146008441     0.488520475272     0.441232431649     1.007825032070
           C         -0.247471008441    -0.626817524728     0.707692431649    12.000000000000
           H         -0.118238008441     0.686787475272    -1.002235568351     1.007825032070
           H         -1.271539008441    -0.606409524728    -1.194618568351     1.007825032070
           C          0.886230991559    -1.565628524728     0.286082431649    12.000000000000
           H          0.122803991559     0.102269475272     1.424283431649     1.007825032070
           H         -1.013839008441    -1.203199524728     1.224395431649     1.007825032070
           C          2.278045991559    -1.148417524728     0.774309431649    12.000000000000
           H          0.897390991559    -1.650436524728    -0.799269568351     1.007825032070
           H          0.671232991559    -2.562191524728     0.665629431649     1.007825032070
           C          2.798301991559     0.158005475272     0.171875431649    12.000000000000
           H          2.978648991559    -1.944972524728     0.536100431649     1.007825032070
           H          2.269214991559    -1.067702524728     1.859469431649     1.007825032070
           H          2.806403991559     0.110930475272    -0.913830568351     1.007825032070
           H          2.191511991559     1.009522475272     0.461532431649     1.007825032070
           H          3.813899991559     0.356221475272     0.500547431649     1.007825032070

  Charge       = 0
  Multiplicity = 1
  Basis Set: 6-31G*
  Basis Set:

    Orbital Energies (a.u.)
    -----------------------

    Doubly Occupied:

       1A    -20.551469     2A    -11.266252     3A    -11.214812
       4A    -11.214364     5A    -11.211894     6A    -11.210290
       7A    -11.207656     8A     -1.358279     9A     -1.086667
      10A     -1.031143    11A     -0.955129    12A     -0.875261
      13A     -0.807190    14A     -0.778675    15A     -0.692060
      16A     -0.660003    17A     -0.619400    18A     -0.611120
      19A     -0.586763    20A     -0.555371    21A     -0.552217
      22A     -0.520389    23A     -0.499369    24A     -0.495398
      25A     -0.480598    26A     -0.460428    27A     -0.448855
      28A     -0.441415    29A     -0.433797

  @DF-RHF Final Energy:  -310.20746797951489

   => Energetics <=

    Nuclear Repulsion Energy =            317.5916914384513916
    One-Electron Energy =               -1049.9457802466001795
    Two-Electron Energy =                 422.1466208286331039
    DFT Exchange-Correlation Energy =       0.0000000000000000
    Empirical Dispersion Energy =           0.0000000000000000
    PCM Polarization Energy =               0.0000000000000000
    EFP Energy =                            0.0000000000000000
    Total Energy =                       -310.2074679795157408

  Mulliken Charges: (a.u.)
   Center  Symbol    Alpha    Beta     Spin     Total
       1     H     0.28127  0.28127  0.00000  0.43746
       2     O     4.37180  4.37180  0.00000 -0.74361
       3     C     2.99034  2.99034  0.00000  0.01932
       4     C     3.16258  3.16258  0.00000 -0.32515
       5     H     0.43327  0.43327  0.00000  0.13346
       6     H     0.43298  0.43298  0.00000  0.13403
       7     C     3.16371  3.16371  0.00000 -0.32742
       8     H     0.41308  0.41308  0.00000  0.17384
       9     H     0.41427  0.41427  0.00000  0.17145
      10     C     3.15518  3.15518  0.00000 -0.31037
      11     H     0.42109  0.42109  0.00000  0.15782
      12     H     0.42062  0.42062  0.00000  0.15877
      13     C     3.15333  3.15333  0.00000 -0.30665
      14     H     0.41936  0.41936  0.00000  0.16128
      15     H     0.41977  0.41977  0.00000  0.16045
      16     C     3.24105  3.24105  0.00000 -0.48211
      17     H     0.42171  0.42171  0.00000  0.15658
      18     H     0.42355  0.42355  0.00000  0.15290
      19     H     0.42092  0.42092  0.00000  0.15816
      20     H     0.42087  0.42087  0.00000  0.15827
      21     H     0.41924  0.41924  0.00000  0.16152

   Total alpha = 29.00000, Total beta = 29.00000, Total charge =  0.00000
