  ==> Input File <==

--------------------------------------------------------------------------
set {
	reference rhf
	basis 6-31G*
}

set_num_threads( 4 )
memory 2 gb

molecule MOL {
0 1

H	 -3.042581	 -0.665861	 0.004336
O	 -2.245037	 -1.176175	 0.000806
C	 -1.162163	 -0.365336	 0.001020
C	 -0.568226	 0.081500	 -1.165559
C	 -0.651657	 0.010681	 1.237476
H	 -0.961157	 -0.211301	 -2.124645
C	 0.542522	 0.909274	 -1.082248
H	 -1.136522	 -0.356827	 2.123457
C	 0.455232	 0.837230	 1.319495
H	 1.008328	 1.256683	 -1.987439
C	 1.054598	 1.286498	 0.142682
C	 0.996765	 1.266221	 2.663299
H	 1.917821	 1.926702	 0.190791
H	 2.080237	 1.216097	 2.682419
H	 0.616801	 0.639614	 3.461330
H	 0.713171	 2.291696	 2.883120

	symmetry c1
}
set optking {
	frozen_dihedral = ("
		5 3 2 1
	")
}

ee = optimize('scf')
oeprop('DIPOLE', 'QUADRUPOLE', 'MULLIKEN_CHARGES')
f=open( 'psi4out.xyz', 'w' )
f.write( "16  " )
f.write( str(ee) + "\n" )
f.write( MOL.save_string_xyz() )
f.close()
--------------------------------------------------------------------------

    Molecular point group: c1
  Charge       = 0
  Multiplicity = 1
  Basis Set: 6-31G*
  Basis Set:
  @DF-RHF Final Energy:  -344.58975201162770
    Total Energy =                       -344.5897520116278656
    Molecular point group: c1
  Basis Set: 6-31G*
  Basis Set:
  Basis Set: 6-31G*
  Basis Set:
  @DF-RHF Final Energy:  -344.59059611767566
    Total Energy =                       -344.5905961176756023
  Basis Set: 6-31G*
  Basis Set:
  Basis Set: 6-31G*
  Basis Set:
  @DF-RHF Final Energy:  -344.59065750210198
    Total Energy =                       -344.5906575021020330
  Basis Set: 6-31G*
  Basis Set:
  Basis Set: 6-31G*
  Basis Set:
  @DF-RHF Final Energy:  -344.59066347003596
    Total Energy =                       -344.5906634700357927
  Basis Set: 6-31G*
  Basis Set:
  Charge       = 0
  Multiplicity = 1
  Basis Set: 6-31G*
  Basis Set:

    Orbital Energies (a.u.)
    -----------------------

    Doubly Occupied:

       1A    -20.574290     2A    -11.286215     3A    -11.241254
       4A    -11.232546     5A    -11.222128     6A    -11.222091
       7A    -11.221486     8A    -11.221026     9A     -1.388898
      10A     -1.149947    11A     -1.043139    12A     -1.003162
      13A     -0.936459    14A     -0.827370    15A     -0.805338
      16A     -0.715818    17A     -0.675808    18A     -0.653510
      19A     -0.618159    20A     -0.588520    21A     -0.575677
      22A     -0.567287    23A     -0.550537    24A     -0.510074
      25A     -0.502519    26A     -0.479602    27A     -0.461380
      28A     -0.329308    29A     -0.318405

  @DF-RHF Final Energy:  -344.59066442994015

   => Energetics <=

    Nuclear Repulsion Energy =            344.9444208236694749
    One-Electron Energy =               -1151.2262624967158899
    Two-Electron Energy =                 461.6911772431060399
    DFT Exchange-Correlation Energy =       0.0000000000000000
    Empirical Dispersion Energy =           0.0000000000000000
    PCM Polarization Energy =               0.0000000000000000
    EFP Energy =                            0.0000000000000000
    Total Energy =                       -344.5906644299403752
    Molecular point group: c1
  Basis Set: 6-31G*
  Basis Set:

  -Total Gradient:
     Atom            X                  Y                   Z
    ------   -----------------  -----------------  -----------------
       1       -0.000024858651     0.000003807190    -0.000077600978
       2       -0.000120765980    -0.000098457266     0.000117919721
       3        0.000193997637     0.000146308830    -0.000226436237
       4       -0.000132410254    -0.000075187576     0.000036843336
       5        0.000031001383    -0.000055488950     0.000094237689
       6       -0.000018562027    -0.000022743994     0.000005838500
       7        0.000081221516     0.000093314880     0.000082649280
       8        0.000025859007     0.000008361133    -0.000027078548
       9       -0.000117297902     0.000011661897     0.000044529167
      10       -0.000009515668    -0.000008572318     0.000012895924
      11        0.000023699117    -0.000026927971    -0.000112105525
      12        0.000041070460     0.000011765028    -0.000012529676
      13        0.000003816566     0.000004159208     0.000041424167
      14        0.000008349025    -0.000000837741     0.000020804812
      15        0.000000091729     0.000008177506    -0.000000864900
      16        0.000014304044     0.000000660143    -0.000000526734

  **** Optimization is complete! (in 5 steps) ****
    Final optimized geometry and variables:
    Molecular point group: c1

    Geometry (in Angstrom), charge = 0, multiplicity = 1:

    H           -2.805329697583    -1.023857406786    -0.452471258921
    O           -2.000853995159    -1.525181262548    -0.456048782072
    C           -0.920262454296    -0.681904402403    -0.400619720398
    C           -0.326675248554    -0.245714021788    -1.569775811451
    C           -0.406712898444    -0.309904395320     0.832012240374
    H           -0.728679840290    -0.557939970554    -2.516148022122
    C            0.787066197476     0.576516450697    -1.492723778064
    H           -0.883200961045    -0.681971676181     1.721469633556
    C            0.706653198040     0.514109387013     0.915448481161
    H            1.258631690879     0.918826375228    -2.396771104652
    C            1.299183444071     0.954550973431    -0.264748405728
    C            1.258034342544     0.939237224165     2.256930814617
    H            2.166716743912     1.589986988118    -0.220543453702
    H            2.341278119576     0.882382728227     2.271432893281
    H            0.879342803638     0.312620219421     3.055889169053
    H            0.982165404299     1.965751740423     2.482445503646

  Mulliken Charges: (a.u.)
   Center  Symbol    Alpha    Beta     Spin     Total
       1     H     0.27143  0.27143  0.00000  0.45714
       2     O     4.38915  4.38915  0.00000 -0.77829
       3     C     2.81525  2.81525  0.00000  0.36950
       4     C     3.12307  3.12307  0.00000 -0.24613
       5     C     3.13554  3.13554  0.00000 -0.27108
       6     H     0.39524  0.39524  0.00000  0.20952
       7     C     3.09374  3.09374  0.00000 -0.18747
       8     H     0.39718  0.39718  0.00000  0.20565
       9     C     2.97435  2.97435  0.00000  0.05130
      10     H     0.39858  0.39858  0.00000  0.20284
      11     C     3.11677  3.11677  0.00000 -0.23355
      12     C     3.25416  3.25416  0.00000 -0.50832
      13     H     0.40235  0.40235  0.00000  0.19531
      14     H     0.41128  0.41128  0.00000  0.17744
      15     H     0.41193  0.41193  0.00000  0.17613
      16     H     0.40999  0.40999  0.00000  0.18001

   Total alpha = 29.00000, Total beta = 29.00000, Total charge = -0.00000
