  ==> Input File <==

--------------------------------------------------------------------------
set {
	reference rhf
	basis 6-31G*
}

set_num_threads( 4 )
memory 2 gb

molecule MOL {
0 1

H	 -3.118223	 3.068123	 -0.512288
C	 -3.526385	 2.141926	 -0.088985
C	 -2.660244	 0.921717	 -0.272021
O	 -4.578394	 2.150500	 0.463241
C	 -1.220012	 1.144545	 0.209990
H	 -3.128221	 0.089858	 0.241512
H	 -2.650130	 0.693525	 -1.337141
C	 -0.252658	 0.041456	 -0.226725
H	 -0.873521	 2.100229	 -0.171974
H	 -1.211708	 1.231594	 1.295398
C	 1.180775	 0.282413	 0.250794
H	 -0.266029	 -0.034465	 -1.312038
H	 -0.597733	 -0.921000	 0.146291
C	 2.148627	 -0.814315	 -0.201312
H	 1.516199	 1.249228	 -0.115937
H	 1.192670	 0.346017	 1.338083
C	 3.580890	 -0.659131	 0.322722
H	 2.166869	 -0.852443	 -1.289387
H	 1.762857	 -1.776509	 0.128956
C	 4.324889	 0.564933	 -0.213704
H	 4.142010	 -1.551473	 0.056605
H	 3.564836	 -0.624694	 1.410140
H	 4.342616	 0.565491	 -1.300421
H	 3.866655	 1.493402	 0.110242
H	 5.353900	 0.572371	 0.132816

	symmetry c1
}
set optking {
	frozen_dihedral = ("
		6 3 5 8
	")
}

ee = optimize('scf')
oeprop('DIPOLE', 'QUADRUPOLE', 'MULLIKEN_CHARGES')
f=open( 'psi4out.xyz', 'w' )
f.write( "25  " )
f.write( str(ee) + "\n" )
f.write( MOL.save_string_xyz() )
f.close()
--------------------------------------------------------------------------

    Molecular point group: c1
  Charge       = 0
  Multiplicity = 1
  Basis Set: 6-31G*
  Basis Set:
  @DF-RHF Final Energy:  -387.12205163720841
    Total Energy =                       -387.1220516372086422
    Molecular point group: c1
  Basis Set: 6-31G*
  Basis Set:
  Basis Set: 6-31G*
  Basis Set:
  @DF-RHF Final Energy:  -387.12177319420744
    Total Energy =                       -387.1217731942069804
  Basis Set: 6-31G*
  Basis Set:
  Basis Set: 6-31G*
  Basis Set:
  @DF-RHF Final Energy:  -387.12145112207122
    Total Energy =                       -387.1214511220714485
  Basis Set: 6-31G*
  Basis Set:
  Basis Set: 6-31G*
  Basis Set:
  @DF-RHF Final Energy:  -387.12216443753192
    Total Energy =                       -387.1221644375318647
  Basis Set: 6-31G*
  Basis Set:
  @DF-RHF Final Energy:  -387.12219180764782
    Total Energy =                       -387.1221918076481643
  @DF-RHF Final Energy:  -387.12219483978976
    Total Energy =                       -387.1221948397895858
  @DF-RHF Final Energy:  -387.12219781086196
    Total Energy =                       -387.1221978108621897
  Basis Set: 6-31G*
  Basis Set:
  @DF-RHF Final Energy:  -387.12219460117285
    Total Energy =                       -387.1221946011721684
  Basis Set: 6-31G*
  Basis Set:
  Basis Set: 6-31G*
  Basis Set:
  @DF-RHF Final Energy:  -387.12219840492384
    Total Energy =                       -387.1221984049237790
  Basis Set: 6-31G*
  Basis Set:
  Basis Set: 6-31G*
  Basis Set:
  @DF-RHF Final Energy:  -387.12219951494575
    Total Energy =                       -387.1221995149462600
  Basis Set: 6-31G*
  Basis Set:
  Charge       = 0
  Multiplicity = 1
  Basis Set: 6-31G*
  Basis Set:

    Orbital Energies (a.u.)
    -----------------------

    Doubly Occupied:

       1A    -20.562095     2A    -11.326009     3A    -11.235852
       4A    -11.234616     5A    -11.226397     6A    -11.221059
       7A    -11.219536     8A    -11.218862     9A    -11.211888
      10A     -1.401911    11A     -1.104805    12A     -1.070742
      13A     -1.015218    14A     -0.944802    15A     -0.875326
      16A     -0.813495    17A     -0.794682    18A     -0.781518
      19A     -0.677853    20A     -0.656990    21A     -0.633435
      22A     -0.621408    23A     -0.611706    24A     -0.590724
      25A     -0.570656    26A     -0.554161    27A     -0.534309
      28A     -0.523175    29A     -0.513223    30A     -0.496126
      31A     -0.486426    32A     -0.480001    33A     -0.466407
      34A     -0.460315    35A     -0.451754    36A     -0.406886

  @DF-RHF Final Energy:  -387.12219957109863

   => Energetics <=

    Nuclear Repulsion Energy =            431.6682825108742350
    One-Electron Energy =               -1379.5922316046023752
    Two-Electron Energy =                 560.8017495226295068
    DFT Exchange-Correlation Energy =       0.0000000000000000
    Empirical Dispersion Energy =           0.0000000000000000
    PCM Polarization Energy =               0.0000000000000000
    EFP Energy =                            0.0000000000000000
    Total Energy =                       -387.1221995710986903
    Molecular point group: c1
  Basis Set: 6-31G*
  Basis Set:

  -Total Gradient:
     Atom            X                  Y                   Z
    ------   -----------------  -----------------  -----------------
       1        0.000010721506    -0.000003342071     0.000015925958
       2       -0.000037888165    -0.000003447335    -0.000044560326
       3        0.000790841867    -0.001074120300    -0.001839026116
       4       -0.000002708018     0.000005977629     0.000017461561
       5       -0.000447304663    -0.000552555991     0.001689642744
       6       -0.000556248919     0.001060045129     0.001156837256
       7        0.000001442863    -0.000003817169     0.000009332759
       8        0.000244028836     0.000595974505    -0.001028090532
       9       -0.000011813290    -0.000010040364     0.000009006585
      10       -0.000000842020     0.000004984916     0.000002679855
      11        0.000001891470    -0.000023974406     0.000007057992
      12       -0.000007816669    -0.000005857662    -0.000003240541
      13        0.000010723817     0.000006197786     0.000000399746
      14        0.000000855628     0.000004037184     0.000007555952
      15       -0.000006389874    -0.000002865606    -0.000004619193
      16        0.000011418315     0.000000087691     0.000004115993
      17        0.000001711842    -0.000006384068     0.000000157103
      18       -0.000001274375     0.000003007078     0.000000771193
      19       -0.000003505461     0.000001938243    -0.000000757070
      20       -0.000000440267     0.000004033609     0.000002211085
      21       -0.000002150853    -0.000001929645    -0.000001255711
      22        0.000004578599    -0.000001506896    -0.000000207089
      23        0.000003832536    -0.000001201614    -0.000000804290
      24       -0.000002666617     0.000001763592    -0.000003190155
      25       -0.000000998084     0.000002995767     0.000002595242

  **** Optimization is complete! (in 11 steps) ****
    Final optimized geometry and variables:
    Molecular point group: c1

    Geometry (in Angstrom), charge = 0, multiplicity = 1:

    H           -3.087460084425     2.384324177994    -0.606471999217
    C           -3.429323673289     1.469377552198    -0.107712617998
    C           -2.553249034522     0.260214892107    -0.315782786322
    O           -4.423758497858     1.480223013462     0.542695511827
    C           -1.111415187041     0.516551647533     0.144909621476
    H           -2.998838574299    -0.567547775706     0.223077763376
    H           -2.560571235441     0.024350991338    -1.378915494882
    C           -0.146006405883    -0.588893151191    -0.286268049047
    H           -0.764874659535     1.465780855654    -0.260511487448
    H           -1.095609106937     0.620514807238     1.226775634479
    C            1.286809048411    -0.356399131222     0.197182401029
    H           -0.153782263863    -0.664577955560    -1.372022130350
    H           -0.503293170588    -1.545675366829     0.089352348050
    C            2.249705656447    -1.459896631607    -0.249267418030
    H            1.630651981068     0.608117989245    -0.167753839386
    H            1.293120435374    -0.293107977089     1.284134549299
    C            3.678217832279    -1.318814125039     0.288767287949
    H            2.278717372326    -1.494096422728    -1.337288724851
    H            1.852642130154    -2.420046846655     0.073672389680
    C            4.436357084309    -0.096860462029    -0.233046806890
    H            4.235027976787    -2.213961874087     0.023131980832
    H            3.651434022664    -1.290509499792     1.376146422095
    H            4.468866487541    -0.092338865964    -1.319333873278
    H            3.979543272822     0.833254445114     0.088432083599
    H            5.460526728659    -0.096779846362     0.126933740829

  Mulliken Charges: (a.u.)
   Center  Symbol    Alpha    Beta     Spin     Total
       1     H     0.43223  0.43223  0.00000  0.13554
       2     C     2.83041  2.83041  0.00000  0.33918
       3     C     3.20744  3.20744  0.00000 -0.41487
       4     O     4.23705  4.23705  0.00000 -0.47411
       5     C     3.16568  3.16568  0.00000 -0.33135
       6     H     0.39910  0.39910  0.00000  0.20180
       7     H     0.40998  0.40998  0.00000  0.18004
       8     C     3.15152  3.15152  0.00000 -0.30304
       9     H     0.41960  0.41960  0.00000  0.16079
      10     H     0.41166  0.41166  0.00000  0.17668
      11     C     3.15468  3.15468  0.00000 -0.30936
      12     H     0.42185  0.42185  0.00000  0.15630
      13     H     0.41960  0.41960  0.00000  0.16079
      14     C     3.15306  3.15306  0.00000 -0.30613
      15     H     0.42091  0.42091  0.00000  0.15818
      16     H     0.42216  0.42216  0.00000  0.15567
      17     C     3.15270  3.15270  0.00000 -0.30541
      18     H     0.42388  0.42388  0.00000  0.15223
      19     H     0.42143  0.42143  0.00000  0.15714
      20     C     3.24146  3.24146  0.00000 -0.48291
      21     H     0.42012  0.42012  0.00000  0.15976
      22     H     0.42267  0.42267  0.00000  0.15466
      23     H     0.42219  0.42219  0.00000  0.15562
      24     H     0.42026  0.42026  0.00000  0.15948
      25     H     0.41834  0.41834  0.00000  0.16332

   Total alpha = 36.00000, Total beta = 36.00000, Total charge =  0.00000
