                              Psi4 1.0.54 Driver

  ==> Input File <==

--------------------------------------------------------------------------
set {
	reference rhf
	basis cc-pvtz
}

set_num_threads( 4 )
memory 2 gb

molecule MOL {
0 1

H	 2.190573	 -0.629143	 -0.208718
O	 1.355408	 -0.529451	 0.208662
C	 0.700177	 0.619554	 -0.266242
C	 -0.713111	 0.588314	 0.266177
H	 0.678680	 0.627133	 -1.351786
H	 1.199747	 1.521489	 0.077736
O	 -1.421673	 -0.521378	 -0.196983
H	 -1.244794	 1.469161	 -0.069059
H	 -0.685100	 0.604721	 1.352683
H	 -2.246491	 -0.227079	 -0.542073

	symmetry c1
}
set optking {
	frozen_dihedral = ("
		10 7 4 3
	")
}

ee,wfn = optimize('scf', return_wfn=True)
oeprop( wfn, 'DIPOLE', 'QUADRUPOLE', 'MULLIKEN_CHARGES')
f=open( 'psi4out.xyz', 'w' )
f.write( "10  " )
f.write( str(ee) + "\n" )
f.write( MOL.save_string_xyz() )
f.close()
--------------------------------------------------------------------------

    Molecular point group: c1
  Charge       = 0
  Multiplicity = 1
  Basis Set: CC-PVTZ
  Basis Set:
  @DF-RHF Final Energy:  -229.02066165806153
    Total Energy =                       -229.0206616580614138
    Molecular point group: c1
  Basis Set: CC-PVTZ
  Basis Set:
  Basis Set: CC-PVTZ
  Basis Set:
  @DF-RHF Final Energy:  -229.02172976296026
    Total Energy =                       -229.0217297629602342
  Basis Set: CC-PVTZ
  Basis Set:
  Basis Set: CC-PVTZ
  Basis Set:
  @DF-RHF Final Energy:  -229.00904382501014
    Total Energy =                       -229.0090438250101670
  Basis Set: CC-PVTZ
  Basis Set:
  Basis Set: CC-PVTZ
  Basis Set:
  @DF-RHF Final Energy:  -229.02203890280049
    Total Energy =                       -229.0220389028002330
  Basis Set: CC-PVTZ
  Basis Set:
  Basis Set: CC-PVTZ
  Basis Set:
  @DF-RHF Final Energy:  -229.02211738911066
    Total Energy =                       -229.0221173891106901
  Basis Set: CC-PVTZ
  Basis Set:
  Basis Set: CC-PVTZ
  Basis Set:
  @DF-RHF Final Energy:  -229.02212685753898
    Total Energy =                       -229.0221268575389217
  Basis Set: CC-PVTZ
  Basis Set:
  Charge       = 0
  Multiplicity = 1
  Basis Set: CC-PVTZ
  Basis Set:

    Orbital Energies (a.u.)
    -----------------------

    Doubly Occupied:

       1A    -20.545917     2A    -20.545386     3A    -11.268935
       4A    -11.267912     5A     -1.374540     6A     -1.355107
       7A     -1.003407     8A     -0.834849     9A     -0.724447
      10A     -0.694868    11A     -0.638059    12A     -0.598497
      13A     -0.580113    14A     -0.519669    15A     -0.492774
      16A     -0.446756    17A     -0.433952

  @DF-RHF Final Energy:  -229.02212780383317

   => Energetics <=

    Nuclear Repulsion Energy =            133.3209000458483899
    One-Electron Energy =                -578.0356816176026769
    Two-Electron Energy =                 215.6926537679212572
    DFT Exchange-Correlation Energy =       0.0000000000000000
    Empirical Dispersion Energy =           0.0000000000000000
    PCM Polarization Energy =               0.0000000000000000
    EFP Energy =                            0.0000000000000000
    Total Energy =                       -229.0221278038330581
    Molecular point group: c1
  Basis Set: CC-PVTZ
  Basis Set:

  -Total Gradient:
     Atom            X                  Y                   Z
    ------   -----------------  -----------------  -----------------
       1        0.000037134806     0.000017114876    -0.000004754154
       2       -0.000058548692    -0.000023007275    -0.000046709988
       3       -0.000209661124     0.000191385797    -0.000342603972
       4        0.000382648750    -0.000216119399     0.000377484804
       5        0.000009213949    -0.000018904476     0.000022548115
       6       -0.000008856873    -0.000007372446    -0.000022134754
       7       -0.000391508630     0.000023572622     0.000803204237
       8       -0.000003603325    -0.000004505949     0.000006455363
       9       -0.000003876357    -0.000008107236    -0.000024910688
      10        0.000247057494     0.000045943485    -0.000768578964

  **** Optimization is complete! (in 7 steps) ****
    Final optimized geometry and variables:
    Molecular point group: c1

    Geometry (in Angstrom), charge = 0, multiplicity = 1:

    H            2.294397425584    -0.119739991400    -0.371403764495
    O            1.519996697195    -0.113765854006     0.159510326910
    C            0.519879878318     0.650130560398    -0.450426921570
    C           -0.785716412944     0.424685469411     0.274055144974
    H            0.397139264588     0.373813397738    -1.493752646372
    H            0.764334338701     1.710052852182    -0.403881354776
    O           -1.267670059419    -0.872979342086     0.049646867383
    H           -1.498638914302     1.168591328883    -0.069727368260
    H           -0.630744322765     0.576223461398     1.336837802526
    H           -2.165824566569    -0.846229056907    -0.217520595134

  Mulliken Charges: (a.u.)
   Center  Symbol    Alpha    Beta     Spin     Total
       1     H     0.39536  0.39536  0.00000  0.20928
       2     O     4.19386  4.19386  0.00000 -0.38771
       3     C     2.95516  2.95516  0.00000  0.08967
       4     C     2.96597  2.96597  0.00000  0.06806
       5     H     0.47625  0.47625  0.00000  0.04749
       6     H     0.47923  0.47923  0.00000  0.04154
       7     O     4.19890  4.19890  0.00000 -0.39780
       8     H     0.47608  0.47608  0.00000  0.04783
       9     H     0.46654  0.46654  0.00000  0.06692
      10     H     0.39265  0.39265  0.00000  0.21471

   Total alpha = 17.00000, Total beta = 17.00000, Total charge = -0.00000

*** Psi4 exiting successfully. Buy a developer a beer!
