  ==> Input File <==

--------------------------------------------------------------------------
set {
	reference rhf
	basis 6-31G*
}

set_num_threads( 4 )
memory 2 gb

molecule MOL {
0 1

H	 3.729337	 -0.928513	 -0.071494
O	 2.826016	 -1.159218	 0.122261
C	 2.077727	 -0.067559	 -0.035091
C	 0.624473	 -0.343591	 0.253101
O	 2.542965	 0.974826	 -0.363729
C	 -0.265902	 0.883932	 0.072916
H	 0.324016	 -1.163849	 -0.390541
H	 0.565024	 -0.726111	 1.268924
C	 -1.728698	 0.646073	 0.462102
H	 -0.209144	 1.219470	 -0.958188
H	 0.135059	 1.692851	 0.673903
C	 -2.482460	 -0.343073	 -0.431425
H	 -2.245265	 1.602650	 0.432430
H	 -1.779332	 0.308348	 1.496285
C	 -3.960546	 -0.461025	 -0.060175
H	 -2.395034	 -0.026811	 -1.468912
H	 -2.024850	 -1.327147	 -0.371646
H	 -4.472726	 -1.168004	 -0.705284
H	 -4.465146	 0.496508	 -0.151489
H	 -4.081218	 -0.800940	 0.964585

	symmetry c1
}
set optking {
	frozen_dihedral = ("
		1 2 3 5
	")
}

ee = optimize('scf')
oeprop('DIPOLE', 'QUADRUPOLE', 'MULLIKEN_CHARGES')
f=open( 'psi4out.xyz', 'w' )
f.write( "20  " )
f.write( str(ee) + "\n" )
f.write( MOL.save_string_xyz() )
f.close()
--------------------------------------------------------------------------

    Molecular point group: c1
  Charge       = 0
  Multiplicity = 1
  Basis Set: 6-31G*
  Basis Set:
  @DF-RHF Final Energy:  -383.94876156573628
    Total Energy =                       -383.9487615657363335
    Molecular point group: c1
  Basis Set: 6-31G*
  Basis Set:
  Charge       = 0
  Multiplicity = 1
  Basis Set: 6-31G*
  Basis Set:

    Orbital Energies (a.u.)
    -----------------------

    Doubly Occupied:

       1A    -20.612525     2A    -20.551620     3A    -11.381184
       4A    -11.240228     5A    -11.222938     6A    -11.220696
       7A    -11.220107     8A    -11.212404     9A     -1.474592
      10A     -1.365644    11A     -1.096215    12A     -1.040971
      13A     -0.961256    14A     -0.868865    15A     -0.816206
      16A     -0.776886    17A     -0.699564    18A     -0.690037
      19A     -0.663927    20A     -0.635929    21A     -0.602782
      22A     -0.593912    23A     -0.575457    24A     -0.555760
      25A     -0.540161    26A     -0.513054    27A     -0.495652
      28A     -0.479245    29A     -0.470497    30A     -0.467507
      31A     -0.457281    32A     -0.443718

  @DF-RHF Final Energy:  -383.94876144557350

   => Energetics <=

    Nuclear Repulsion Energy =            375.9131281944597731
    One-Electron Energy =               -1267.8301395536614109
    Two-Electron Energy =                 507.9682499136279148
    DFT Exchange-Correlation Energy =       0.0000000000000000
    Empirical Dispersion Energy =           0.0000000000000000
    PCM Polarization Energy =               0.0000000000000000
    EFP Energy =                            0.0000000000000000
    Total Energy =                       -383.9487614455737230
    Molecular point group: c1
  Basis Set: 6-31G*
  Basis Set:

  -Total Gradient:
     Atom            X                  Y                   Z
    ------   -----------------  -----------------  -----------------
       1       -0.000000027172    -0.000001814804    -0.000005321903
       2        0.000014117811     0.000019447438     0.000082110856
       3       -0.000040257122    -0.000058801329    -0.000255623667
       4        0.000010633358     0.000017422238     0.000073610245
       5        0.000013937505     0.000020646428     0.000095701923
       6        0.000000647336     0.000001839444     0.000001350172
       7        0.000019741537     0.000006155489    -0.000000300393
       8       -0.000015956608    -0.000004339308     0.000006564906
       9       -0.000001080998    -0.000000889318     0.000000519402
      10        0.000001535995    -0.000000039418    -0.000000673580
      11       -0.000001152739     0.000001254405    -0.000000687650
      12        0.000000478061    -0.000000468109     0.000002659542
      13       -0.000002221181    -0.000001475558     0.000001122710
      14        0.000001887945    -0.000001557069    -0.000000201001
      15       -0.000001096279     0.000001730444    -0.000001308091
      16        0.000002494642    -0.000000355524     0.000001280182
      17       -0.000003838692     0.000000003454     0.000000473152
      18        0.000000046605     0.000000384984    -0.000000191392
      19       -0.000000790639     0.000000544737    -0.000000224947
      20        0.000000900634     0.000000311385    -0.000000860464

  **** Optimization is complete! (in 2 steps) ****
    Final optimized geometry and variables:
    Molecular point group: c1

    Geometry (in Angstrom), charge = 0, multiplicity = 1:

    H            3.729801698981    -0.927692563043    -0.070365276334
    O            2.826380736663    -1.158819417915     0.122404317284
    C            2.077721305190    -0.067545613956    -0.035814587714
    C            0.624594318829    -0.343773935374     0.252806252617
    O            2.542809490743     0.975057466894    -0.363988969570
    C           -0.265968557645     0.883693149505     0.073072748953
    H            0.324039236806    -1.163966607951    -0.390882843655
    H            0.565487133887    -0.726461531369     1.268587044398
    C           -1.728640694421     0.645597938523     0.462582201471
    H           -0.209503533881     1.219457767130    -0.957974373792
    H            0.135054346828     1.692530725814     0.674126371994
    C           -2.482533238328    -0.343454616329    -0.430939563321
    H           -2.245318090096     1.602119110872     0.433205002736
    H           -1.778986649942     0.307683590302     1.496719888769
    C           -3.960827054178    -0.460546591444    -0.060276575554
    H           -2.394518258130    -0.027549268882    -1.468486703516
    H           -2.025448738100    -1.327743715664    -0.370676572398
    H           -4.473043198591    -1.167643886646    -0.705221148458
    H           -4.464963384207     0.497167244039    -0.152328014192
    H           -4.082097176830    -0.799856291213     0.964612474061

  Mulliken Charges: (a.u.)
   Center  Symbol    Alpha    Beta     Spin     Total
       1     H     0.26785  0.26785  0.00000  0.46429
       2     O     4.35158  4.35158  0.00000 -0.70317
       3     C     2.62221  2.62221  0.00000  0.75558
       4     C     3.21288  3.21288  0.00000 -0.42575
       5     O     4.27927  4.27927  0.00000 -0.55855
       6     C     3.15440  3.15440  0.00000 -0.30880
       7     H     0.39685  0.39685  0.00000  0.20630
       8     H     0.39905  0.39905  0.00000  0.20190
       9     C     3.15553  3.15553  0.00000 -0.31106
      10     H     0.41224  0.41224  0.00000  0.17552
      11     H     0.40798  0.40798  0.00000  0.18403
      12     C     3.15486  3.15486  0.00000 -0.30972
      13     H     0.41787  0.41787  0.00000  0.16425
      14     H     0.42367  0.42367  0.00000  0.15265
      15     C     3.23923  3.23923  0.00000 -0.47845
      16     H     0.42147  0.42147  0.00000  0.15706
      17     H     0.42276  0.42276  0.00000  0.15449
      18     H     0.41834  0.41834  0.00000  0.16333
      19     H     0.42064  0.42064  0.00000  0.15872
      20     H     0.42131  0.42131  0.00000  0.15737

   Total alpha = 32.00000, Total beta = 32.00000, Total charge =  0.00000
