  ==> Input File <==

--------------------------------------------------------------------------
set {
	reference rhf
	basis 6-31G*
}

set_num_threads( 4 )
memory 2 gb

molecule MOL {
0 1

O	 -0.637359	 -0.769762	 1.637118
C	 0.474103	 -0.941975	 1.252337
C	 1.245376	 -0.013843	 0.345420
O	 1.199499	 -2.003810	 1.580873
C	 0.455112	 1.231400	 -0.050772
H	 2.168966	 0.236146	 0.856963
H	 1.537189	 -0.587171	 -0.530843
C	 -0.998893	 1.219485	 0.433193
H	 0.482531	 1.345121	 -1.130325
H	 0.957290	 2.103070	 0.354729
C	 -1.883438	 0.145884	 -0.207175
H	 -1.431207	 2.195402	 0.224832
H	 -1.019646	 1.105716	 1.516076
C	 -3.347647	 0.245583	 0.225435
H	 -1.822183	 0.231698	 -1.291012
H	 -1.510341	 -0.844814	 0.042401
C	 -4.239992	 -0.825570	 -0.404234
H	 -3.732888	 1.230466	 -0.033079
H	 -3.408585	 0.170602	 1.310038
C	 -5.701275	 -0.716658	 0.029921
H	 -4.179496	 -0.752714	 -1.488058
H	 -3.859041	 -1.810759	 -0.143352
H	 -6.308102	 -1.488908	 -0.432678
H	 -6.122175	 0.245478	 -0.248167
H	 -5.799072	 -0.820114	 1.106957
C	 0.591410	 -2.959503	 2.430440
H	 0.323876	 -2.511365	 3.376538
H	 1.327946	 -3.733847	 2.578477
H	 -0.295148	 -3.369409	 1.968349

	symmetry c1
}
set optking {
	frozen_dihedral = ("
		6 3 5 9
	")
}

ee = optimize('scf')
oeprop('DIPOLE', 'QUADRUPOLE', 'MULLIKEN_CHARGES')
f=open( 'psi4out.xyz', 'w' )
f.write( "29  " )
f.write( str(ee) + "\n" )
f.write( MOL.save_string_xyz() )
f.close()
--------------------------------------------------------------------------

    Molecular point group: c1
  Charge       = 0
  Multiplicity = 1
  Basis Set: 6-31G*
  Basis Set:
  @DF-RHF Final Energy:  -500.99128259657050
    Total Energy =                       -500.9912825965711818
    Molecular point group: c1
  Basis Set: 6-31G*
  Basis Set:
  Basis Set: 6-31G*
  Basis Set:
  @DF-RHF Final Energy:  -501.01157624787709
    Total Energy =                       -501.0115762478773149
  Basis Set: 6-31G*
  Basis Set:
  Basis Set: 6-31G*
  Basis Set:
  @DF-RHF Final Energy:  -501.02299072916048
    Total Energy =                       -501.0229907291609379
  Basis Set: 6-31G*
  Basis Set:
  Basis Set: 6-31G*
  Basis Set:
  @DF-RHF Final Energy:  -501.02822842012677
    Total Energy =                       -501.0282284201268794
  Basis Set: 6-31G*
  Basis Set:
  @DF-RHF Final Energy:  -501.02611888287731
    Total Energy =                       -501.0261188828771992
  @DF-RHF Final Energy:  -501.03084464995959
    Total Energy =                       -501.0308446499599313
  @DF-RHF Final Energy:  -501.03130594864240
    Total Energy =                       -501.0313059486420570
  @DF-RHF Final Energy:  -501.03160072634103
    Total Energy =                       -501.0316007263409119
  @DF-RHF Final Energy:  -501.03208396686341
    Total Energy =                       -501.0320839668640929
  @DF-RHF Final Energy:  -501.03267380655245
    Total Energy =                       -501.0326738065521113
  @DF-RHF Final Energy:  -501.03315372922145
    Total Energy =                       -501.0331537292215671
  @DF-RHF Final Energy:  -501.03361723754949
    Total Energy =                       -501.0336172375494925
  @DF-RHF Final Energy:  -501.03390669070575
    Total Energy =                       -501.0339066907055212
  @DF-RHF Final Energy:  -501.03410545944701
    Total Energy =                       -501.0341054594464367
  @DF-RHF Final Energy:  -501.03420292741578
    Total Energy =                       -501.0342029274156630
  @DF-RHF Final Energy:  -501.03423569078120
    Total Energy =                       -501.0342356907818839
  @DF-RHF Final Energy:  -501.03425555324395
    Total Energy =                       -501.0342555532429287
  Basis Set: 6-31G*
  Basis Set:
  @DF-RHF Final Energy:  -501.03426733937090
    Total Energy =                       -501.0342673393718087
  Basis Set: 6-31G*
  Basis Set:
  Basis Set: 6-31G*
  Basis Set:
  @DF-RHF Final Energy:  -501.03427270026941
    Total Energy =                       -501.0342727002698666
  Basis Set: 6-31G*
  Basis Set:
  Basis Set: 6-31G*
  Basis Set:
  @DF-RHF Final Energy:  -501.03427443472037
    Total Energy =                       -501.0342744347201460
  Basis Set: 6-31G*
  Basis Set:
  Charge       = 0
  Multiplicity = 1
  Basis Set: 6-31G*
  Basis Set:

    Orbital Energies (a.u.)
    -----------------------

    Doubly Occupied:

       1A    -20.606676     2A    -20.542687     3A    -11.372766
       4A    -11.281415     5A    -11.234882     6A    -11.227802
       7A    -11.213779     8A    -11.212828     9A    -11.211730
      10A    -11.211158    11A    -11.207288    12A     -1.470302
      13A     -1.361901    14A     -1.094288    15A     -1.063163
      16A     -1.016670    17A     -0.976692    18A     -0.929387
      19A     -0.862565    20A     -0.801419    21A     -0.787979
      22A     -0.766662    23A     -0.689867    24A     -0.681799
      25A     -0.671309    26A     -0.648967    27A     -0.626373
      28A     -0.613059    29A     -0.591092    30A     -0.577827
      31A     -0.561509    32A     -0.553898    33A     -0.533477
      34A     -0.525818    35A     -0.519763    36A     -0.506243
      37A     -0.496574    38A     -0.479142    39A     -0.470240
      40A     -0.462303    41A     -0.457830    42A     -0.451957
      43A     -0.437880    44A     -0.427461

  @DF-RHF Final Energy:  -501.03427461335775

   => Energetics <=

    Nuclear Repulsion Energy =            647.8324340947432347
    One-Electron Energy =               -1966.8565558331536067
    Two-Electron Energy =                 817.9898471250533021
    DFT Exchange-Correlation Energy =       0.0000000000000000
    Empirical Dispersion Energy =           0.0000000000000000
    PCM Polarization Energy =               0.0000000000000000
    EFP Energy =                            0.0000000000000000
    Total Energy =                       -501.0342746133571836
    Molecular point group: c1
  Basis Set: 6-31G*
  Basis Set:

  -Total Gradient:
     Atom            X                  Y                   Z
    ------   -----------------  -----------------  -----------------
       1       -0.000015300760     0.000012175467     0.000017410758
       2        0.000015582403    -0.000012822354    -0.000027084691
       3        0.001649737779    -0.000704490022    -0.004586872306
       4       -0.000019557286     0.000017909379    -0.000004246400
       5        0.003578198645     0.003072252230     0.000860855256
       6       -0.001925927080     0.000131226053     0.003747635879
       7        0.000011426226     0.000007187813    -0.000000076902
       8        0.000021684985    -0.000000860442     0.000044709916
       9       -0.003327266187    -0.002521521807    -0.000027078313
      10       -0.000007550132     0.000001595005    -0.000002051792
      11       -0.000001843682     0.000005251021    -0.000023198578
      12       -0.000005481797    -0.000006395572    -0.000006617300
      13        0.000001487798     0.000006578174    -0.000012248975
      14        0.000015864683    -0.000003685325     0.000005028744
      15        0.000006707695    -0.000001960591    -0.000002936686
      16       -0.000005290652     0.000003801434    -0.000000234492
      17       -0.000000222926     0.000004997288     0.000004602425
      18       -0.000003819085    -0.000001540863     0.000000790744
      19        0.000000001484     0.000000460076     0.000000365579
      20       -0.000002782285    -0.000002214521    -0.000001725625
      21        0.000001072989    -0.000001336088     0.000000176322
      22       -0.000000465653     0.000000614874     0.000001344906
      23       -0.000003320223     0.000000731021    -0.000000963198
      24        0.000001729655    -0.000000068730     0.000001821281
      25       -0.000000031684    -0.000001457146    -0.000000865105
      26        0.000032048734    -0.000007340892     0.000018686964
      27       -0.000008436693    -0.000006488675    -0.000000151501
      28       -0.000004676297     0.000001987807    -0.000002977392
      29       -0.000003570649     0.000005415385    -0.000004099519

  **** Optimization is complete! (in 21 steps) ****
    Final optimized geometry and variables:
    Molecular point group: c1

    Geometry (in Angstrom), charge = 0, multiplicity = 1:

    O            1.530847470943     0.116580523372     1.888812165133
    C            1.864756509732    -0.291002188001     0.821474564795
    C            2.448161010712     0.564509556261    -0.280491904448
    O            1.803751707757    -1.573660505091     0.489614441744
    C            1.559392804153     1.742468681465    -0.779784897122
    H            3.346225286449     0.975467566132     0.169226286920
    H            2.743479422120    -0.076631646862    -1.098209304335
    C            0.081658970052     1.754763991003    -0.362644218889
    H            1.581002862564     1.724453099735    -1.865278762226
    H            2.012513639690     2.675554400489    -0.467416745379
    C           -0.755859814238     0.637805772442    -0.993171353277
    H           -0.332467695529     2.711236638939    -0.674182904332
    H           -0.002636407668     1.720123247088     0.716871569624
    C           -2.222157374963     0.677489153873    -0.558956789227
    H           -0.698980017386     0.719834881552    -2.077759329992
    H           -0.339740206423    -0.335789890110    -0.745081302937
    C           -3.073655825315    -0.420926572035    -1.198158006844
    H           -2.645231324546     1.649361376134    -0.808129641590
    H           -2.277436258769     0.590543494769     0.524622740821
    C           -4.536536980484    -0.375293711335    -0.758035975007
    H           -3.020167348974    -0.334049436747    -2.281378640905
    H           -2.652756572679    -1.393133152775    -0.949826010067
    H           -5.114248888883    -1.165643359122    -1.227513479378
    H           -4.996224657467     0.572569567946    -1.023516852480
    H           -4.626015876481    -0.494494836473     0.318060632674
    C            1.317248871217    -2.468338638109     1.473902639778
    H            1.943003244387    -2.440665105658     2.354181483274
    H            1.347896846957    -3.447778661494     1.022690595406
    H            0.304128582385    -2.214044722755     1.750087615746

  Mulliken Charges: (a.u.)
   Center  Symbol    Alpha    Beta     Spin     Total
       1     O     4.28657  4.28657  0.00000 -0.57313
       2     C     2.61183  2.61183  0.00000  0.77634
       3     C     3.20816  3.20816  0.00000 -0.41632
       4     O     4.30407  4.30407  0.00000 -0.60814
       5     C     3.15345  3.15345  0.00000 -0.30690
       6     H     0.39829  0.39829  0.00000  0.20342
       7     H     0.39807  0.39807  0.00000  0.20386
       8     C     3.16892  3.16892  0.00000 -0.33785
       9     H     0.41703  0.41703  0.00000  0.16593
      10     H     0.41198  0.41198  0.00000  0.17605
      11     C     3.15875  3.15875  0.00000 -0.31750
      12     H     0.42096  0.42096  0.00000  0.15807
      13     H     0.40046  0.40046  0.00000  0.19907
      14     C     3.15064  3.15064  0.00000 -0.30128
      15     H     0.42481  0.42481  0.00000  0.15038
      16     H     0.42080  0.42080  0.00000  0.15840
      17     C     3.15120  3.15120  0.00000 -0.30240
      18     H     0.42409  0.42409  0.00000  0.15182
      19     H     0.42085  0.42085  0.00000  0.15829
      20     C     3.23929  3.23929  0.00000 -0.47857
      21     H     0.42349  0.42349  0.00000  0.15302
      22     H     0.42413  0.42413  0.00000  0.15173
      23     H     0.41989  0.41989  0.00000  0.16021
      24     H     0.42175  0.42175  0.00000  0.15651
      25     H     0.42151  0.42151  0.00000  0.15698
      26     C     3.09331  3.09331  0.00000 -0.18661
      27     H     0.40823  0.40823  0.00000  0.18354
      28     H     0.40826  0.40826  0.00000  0.18347
      29     H     0.40920  0.40920  0.00000  0.18160

   Total alpha = 44.00000, Total beta = 44.00000, Total charge = -0.00000
