  ==> Input File <==

--------------------------------------------------------------------------
set {
	reference rhf
	basis 6-31G*
}

set_num_threads( 4 )
memory 2 gb

molecule MOL {
0 1

O	 -2.439739	 -0.935931	 -0.423848
C	 -1.921153	 0.064240	 -0.045697
C	 -2.624470	 1.379923	 0.150949
O	 -0.632575	 0.154573	 0.251549
H	 -2.168117	 2.136577	 -0.476876
H	 -3.669540	 1.273223	 -0.098610
H	 -2.519365	 1.700893	 1.180846
C	 0.160891	 -1.019931	 0.106212
C	 1.589627	 -0.672828	 0.480843
H	 0.089836	 -1.367806	 -0.916050
H	 -0.238459	 -1.792301	 0.749618
C	 1.898540	 0.824668	 0.431063
H	 2.245676	 -1.203982	 -0.205749
H	 1.796260	 -1.061201	 1.474688
C	 3.351535	 1.135597	 0.787617
H	 1.682152	 1.202233	 -0.566294
H	 1.236617	 1.350491	 1.111303
H	 3.544978	 2.202784	 0.746096
H	 4.038577	 0.648044	 0.101655
H	 3.590170	 0.795353	 1.791293

	symmetry c1
}
set optking {
	frozen_dihedral = ("
		12 9 8 10
	")
}

ee = optimize('scf')
oeprop('DIPOLE', 'QUADRUPOLE', 'MULLIKEN_CHARGES')
f=open( 'psi4out.xyz', 'w' )
f.write( "20  " )
f.write( str(ee) + "\n" )
f.write( MOL.save_string_xyz() )
f.close()
--------------------------------------------------------------------------

    Molecular point group: c1
  Charge       = 0
  Multiplicity = 1
  Basis Set: 6-31G*
  Basis Set:
  @DF-RHF Final Energy:  -383.93776608771316
    Total Energy =                       -383.9377660877132712
    Molecular point group: c1
  Basis Set: 6-31G*
  Basis Set:
  Basis Set: 6-31G*
  Basis Set:
  @DF-RHF Final Energy:  -383.93820445171525
    Total Energy =                       -383.9382044517150234
  Basis Set: 6-31G*
  Basis Set:
  Basis Set: 6-31G*
  Basis Set:
  @DF-RHF Final Energy:  -383.93897846361887
    Total Energy =                       -383.9389784636189233
  Basis Set: 6-31G*
  Basis Set:
  Basis Set: 6-31G*
  Basis Set:
  @DF-RHF Final Energy:  -383.93900841607052
    Total Energy =                       -383.9390084160703509
  Basis Set: 6-31G*
  Basis Set:
  @DF-RHF Final Energy:  -383.93910732274912
    Total Energy =                       -383.9391073227492370
  Basis Set: 6-31G*
  Basis Set:
  @DF-RHF Final Energy:  -383.93913787417938
    Total Energy =                       -383.9391378741790959
  Basis Set: 6-31G*
  Basis Set:
  Basis Set: 6-31G*
  Basis Set:
  @DF-RHF Final Energy:  -383.93913411086919
    Total Energy =                       -383.9391341108695315
  Basis Set: 6-31G*
  Basis Set:
  Basis Set: 6-31G*
  Basis Set:
  @DF-RHF Final Energy:  -383.93914140881111
    Total Energy =                       -383.9391414088111105
  Basis Set: 6-31G*
  Basis Set:
  Charge       = 0
  Multiplicity = 1
  Basis Set: 6-31G*
  Basis Set:

    Orbital Energies (a.u.)
    -----------------------

    Doubly Occupied:

       1A    -20.602723     2A    -20.544791     3A    -11.375174
       4A    -11.282469     5A    -11.233840     6A    -11.226032
       7A    -11.219219     8A    -11.212237     9A     -1.469112
      10A     -1.363211    11A     -1.082204    12A     -1.028206
      13A     -0.979818    14A     -0.881074    15A     -0.817848
      16A     -0.763430    17A     -0.690133    18A     -0.688422
      19A     -0.668021    20A     -0.633789    21A     -0.594542
      22A     -0.592881    23A     -0.573601    24A     -0.547745
      25A     -0.545403    26A     -0.534119    27A     -0.507309
      28A     -0.483293    29A     -0.475946    30A     -0.468546
      31A     -0.444404    32A     -0.439399

  @DF-RHF Final Energy:  -383.93914142083798

   => Energetics <=

    Nuclear Repulsion Energy =            386.3460734747389438
    One-Electron Energy =               -1288.6325441755682277
    Two-Electron Energy =                 518.3473292799908450
    DFT Exchange-Correlation Energy =       0.0000000000000000
    Empirical Dispersion Energy =           0.0000000000000000
    PCM Polarization Energy =               0.0000000000000000
    EFP Energy =                            0.0000000000000000
    Total Energy =                       -383.9391414208384958
    Molecular point group: c1
  Basis Set: 6-31G*
  Basis Set:

  -Total Gradient:
     Atom            X                  Y                   Z
    ------   -----------------  -----------------  -----------------
       1       -0.000001911603    -0.000000366722    -0.000000022714
       2        0.000011033196     0.000001226297    -0.000028189849
       3       -0.000002732921    -0.000005031053     0.000018843409
       4        0.000013842086    -0.000012226345    -0.000006159477
       5        0.000000571533    -0.000002192227    -0.000003166633
       6        0.000000387122    -0.000000509135    -0.000000042513
       7        0.000000165069     0.000003969657    -0.000001860519
       8       -0.001387989950     0.006726088316    -0.000598136109
       9        0.001859787357    -0.001975945987    -0.005029729103
      10        0.000674978415    -0.005187173763     0.001814348732
      11        0.000003871470     0.000008166038    -0.000010851039
      12       -0.001174811244     0.000442038616     0.003847603057
      13       -0.000000301938    -0.000000159746     0.000000719342
      14       -0.000001643856     0.000002192627     0.000001798639
      15        0.000002601521     0.000002134923    -0.000000656766
      16       -0.000004020391     0.000000667688    -0.000004197156
      17        0.000004641252    -0.000003965849     0.000000527191
      18        0.000001459165     0.000000419615    -0.000000323425
      19        0.000000105169     0.000000184613     0.000000243561
      20       -0.000000031450     0.000000482441    -0.000000748629

  **** Optimization is complete! (in 9 steps) ****
    Final optimized geometry and variables:
    Molecular point group: c1

    Geometry (in Angstrom), charge = 0, multiplicity = 1:

    O           -2.358674479456    -1.092158681025    -0.646793329800
    C           -1.874883225267    -0.074464056590    -0.269711048230
    C           -2.624280609004     1.214730612336    -0.067372046228
    O           -0.590157035207     0.061886883078     0.027291982789
    H           -2.195651696433     1.989358320509    -0.692719302174
    H           -3.665051918990     1.071550958781    -0.316629050365
    H           -2.530003287146     1.535263672226     0.963752714087
    C            0.240363011769    -1.081727477931    -0.119254061841
    C            1.682835145092    -0.747344671264     0.283949478207
    H            0.184137165586    -1.447305966019    -1.135636215585
    H           -0.154441049044    -1.872168901513     0.504745562433
    C            2.060645063234     0.735866588560     0.227414751272
    H            2.349932411078    -1.322465046514    -0.351999587197
    H            1.855996602351    -1.097830936881     1.298116393744
    C            3.533035301084     0.961451491742     0.569410177403
    H            1.853302605708     1.133467764591    -0.762800666775
    H            1.436094339687     1.292206760503     0.916047682558
    H            3.782297840933     2.017558158135     0.541338880015
    H            4.185423623956     0.449322826163    -0.132280617214
    H            3.766647621044     0.594018066958     1.564932778181

  Mulliken Charges: (a.u.)
   Center  Symbol    Alpha    Beta     Spin     Total
       1     O     4.28306  4.28306  0.00000 -0.56612
       2     C     2.61870  2.61870  0.00000  0.76260
       3     C     3.28162  3.28162  0.00000 -0.56324
       4     O     4.30875  4.30875  0.00000 -0.61749
       5     H     0.40046  0.40046  0.00000  0.19907
       6     H     0.39677  0.39677  0.00000  0.20646
       7     H     0.40070  0.40070  0.00000  0.19860
       8     C     2.99958  2.99958  0.00000  0.00085
       9     C     3.17478  3.17478  0.00000 -0.34957
      10     H     0.40977  0.40977  0.00000  0.18046
      11     H     0.40883  0.40883  0.00000  0.18234
      12     C     3.14759  3.14759  0.00000 -0.29519
      13     H     0.41617  0.41617  0.00000  0.16766
      14     H     0.41694  0.41694  0.00000  0.16612
      15     C     3.24173  3.24173  0.00000 -0.48345
      16     H     0.42056  0.42056  0.00000  0.15889
      17     H     0.41277  0.41277  0.00000  0.17447
      18     H     0.41776  0.41776  0.00000  0.16448
      19     H     0.42182  0.42182  0.00000  0.15636
      20     H     0.42164  0.42164  0.00000  0.15671

   Total alpha = 32.00000, Total beta = 32.00000, Total charge =  0.00000
