  ==> Input File <==

--------------------------------------------------------------------------
set {
	reference rhf
	basis cc-pvtz
}

set_num_threads( 4 )
memory 2 gb

molecule MOL {
0 1

H	 -2.155565	 -0.632159	 -0.634099
O	 -2.041679	 -0.058866	 0.103463
C	 -0.959304	 0.780994	 -0.094939
C	 0.354905	 0.037902	 -0.006215
H	 -0.985899	 1.279578	 -1.057596
H	 -0.969809	 1.529522	 0.682889
F	 0.412060	 -0.931028	 -0.902708
F	 1.359641	 0.856111	 -0.239961
F	 0.545380	 -0.506387	 1.171682

	symmetry c1
}
set optking {
	frozen_dihedral = ("
		1 2 3 5
	")
}

ee = optimize('scf')
oeprop('DIPOLE', 'QUADRUPOLE', 'MULLIKEN_CHARGES')
f=open( 'psi4out.xyz', 'w' )
f.write( "9  " )
f.write( str(ee) + "\n" )
f.write( MOL.save_string_xyz() )
f.close()
--------------------------------------------------------------------------

    Molecular point group: c1
  Charge       = 0
  Multiplicity = 1
  Basis Set: CC-PVTZ
  Basis Set:
  @DF-RHF Final Energy:  -450.84725359272124
    Total Energy =                       -450.8472535927210174
    Molecular point group: c1
  Basis Set: CC-PVTZ
  Basis Set:
  Basis Set: CC-PVTZ
  Basis Set:
  @DF-RHF Final Energy:  -450.84725535478015
    Total Energy =                       -450.8472553547799748
  Basis Set: CC-PVTZ
  Basis Set:
  Charge       = 0
  Multiplicity = 1
  Basis Set: CC-PVTZ
  Basis Set:

    Orbital Energies (a.u.)
    -----------------------

    Doubly Occupied:

       1A    -26.339024     2A    -26.339002     3A    -26.335104
       4A    -20.583882     5A    -11.493081     6A    -11.310131
       7A     -1.747234     8A     -1.644340     9A     -1.642287
      10A     -1.407392    11A     -1.050408    12A     -0.929392
      13A     -0.837400    14A     -0.835763    15A     -0.810348
      16A     -0.732916    17A     -0.718311    18A     -0.704115
      19A     -0.671376    20A     -0.665221    21A     -0.648747
      22A     -0.633131    23A     -0.617744    24A     -0.534784
      25A     -0.484681

  @DF-RHF Final Energy:  -450.84725569368868

   => Energetics <=

    Nuclear Repulsion Energy =            277.6830038769710427
    One-Electron Energy =               -1177.6288920149509067
    Two-Electron Energy =                 449.0986324442911837
    DFT Exchange-Correlation Energy =       0.0000000000000000
    Empirical Dispersion Energy =           0.0000000000000000
    PCM Polarization Energy =               0.0000000000000000
    EFP Energy =                            0.0000000000000000
    Total Energy =                       -450.8472556936886804
    Molecular point group: c1
  Basis Set: CC-PVTZ
  Basis Set:

  -Total Gradient:
     Atom            X                  Y                   Z
    ------   -----------------  -----------------  -----------------
       1       -0.000218176448     0.000259629958    -0.000147111898
       2        0.000322064946    -0.000399734118     0.000152780738
       3       -0.000308475111     0.000363389541     0.000114385090
       4        0.000042655904     0.000122311082     0.000032173065
       5        0.000175918934    -0.000247557094    -0.000133678986
       6        0.000013895846     0.000000453454     0.000001724956
       7        0.000002013205    -0.000017852192     0.000006137487
       8       -0.000015475489    -0.000031295404    -0.000020046361
       9       -0.000014421790    -0.000049345223    -0.000006364088

  **** Optimization is complete! (in 3 steps) ****
    Final optimized geometry and variables:
    Molecular point group: c1

    Geometry (in Angstrom), charge = 0, multiplicity = 1:

    H           -2.153084679300    -0.634714469556    -0.630003440588
    O           -2.040443750193    -0.058816758463     0.105437680244
    C           -0.958835598975     0.781559812447    -0.095061363387
    C            0.354865540775     0.037212349722    -0.006415457744
    H           -0.984745196234     1.276915748892    -1.059289446265
    H           -0.967878875847     1.531728172801     0.681214156197
    F            0.413682859784    -0.928708261590    -0.905554754134
    F            1.360383091686     0.856087005056    -0.235963328928
    F            0.543086695715    -0.510345496274     1.170321668973

  Mulliken Charges: (a.u.)
   Center  Symbol    Alpha    Beta     Spin     Total
       1     H     0.38644  0.38644  0.00000  0.22711
       2     O     4.19236  4.19236  0.00000 -0.38472
       3     C     2.99153  2.99153  0.00000  0.01694
       4     C     2.68358  2.68358  0.00000  0.63285
       5     H     0.46163  0.46163  0.00000  0.07674
       6     H     0.44721  0.44721  0.00000  0.10558
       7     F     4.61729  4.61729  0.00000 -0.23458
       8     F     4.61245  4.61245  0.00000 -0.22491
       9     F     4.60750  4.60750  0.00000 -0.21501

   Total alpha = 25.00000, Total beta = 25.00000, Total charge = -0.00000
