  ==> Input File <==

--------------------------------------------------------------------------
set {
	reference rhf
	basis 6-31G*
}

set_num_threads( 1 )
memory 2 gb

molecule MOL {
0 1

H	 1.820488	 -1.196681	 0.805392
C	 1.951159	 -0.223429	 0.317018
C	 0.692068	 0.589600	 0.160137
O	 3.028672	 0.122391	 -0.045616
C	 -0.558097	 -0.297372	 0.091132
H	 0.791645	 1.202255	 -0.728243
H	 0.616171	 1.253469	 1.020572
C	 -1.850991	 0.512573	 -0.019058
H	 -0.476753	 -0.965681	 -0.762987
H	 -0.604799	 -0.930658	 0.975228
C	 -3.096943	 -0.368295	 -0.099594
H	 -1.800724	 1.150330	 -0.898172
H	 -1.931651	 1.177355	 0.838044
H	 -3.060452	 -1.020287	 -0.967456
H	 -3.996858	 0.233488	 -0.175704
H	 -3.191959	 -0.995686	 0.782074

	symmetry c1
}
set optking {
	frozen_dihedral = ("
		9 5 8 12,
		6 3 5 9
	")
}

ee = energy('scf')
oeprop('DIPOLE', 'QUADRUPOLE', 'MULLIKEN_CHARGES')
f=open( 'psi4out.xyz', 'w' )
f.write( "16  " )
f.write( str(ee) + "\n" )
f.write( MOL.save_string_xyz() )
f.close()
--------------------------------------------------------------------------

    Molecular point group: c1

    Geometry (in Angstrom), charge = 0, multiplicity = 1:

       Center              X                  Y                   Z               Mass
    ------------   -----------------  -----------------  -----------------  -----------------
           H          1.795367491852    -1.248052887442     0.740776060059     1.007825032070
           C          1.926038491852    -0.274800887442     0.252402060059    12.000000000000
           C          0.666947491852     0.538228112558     0.095521060059    12.000000000000
           O          3.003551491852     0.071019112558    -0.110231939941    15.994914619560
           C         -0.583217508148    -0.348743887442     0.026516060059    12.000000000000
           H          0.766524491852     1.150883112558    -0.792858939941     1.007825032070
           H          0.591050491852     1.202097112558     0.955956060059     1.007825032070
           C         -1.876111508148     0.461201112558    -0.083673939941    12.000000000000
           H         -0.501873508148    -1.017052887442    -0.827602939941     1.007825032070
           H         -0.629919508148    -0.982029887442     0.910612060059     1.007825032070
           C         -3.122063508148    -0.419666887442    -0.164209939941    12.000000000000
           H         -1.825844508148     1.098958112558    -0.962787939941     1.007825032070
           H         -1.956771508148     1.125983112558     0.773428060059     1.007825032070
           H         -3.085572508148    -1.071658887442    -1.032071939941     1.007825032070
           H         -4.021978508148     0.182116112558    -0.240319939941     1.007825032070
           H         -3.217079508148    -1.047057887442     0.717458060059     1.007825032070

  Charge       = 0
  Multiplicity = 1
  Basis Set: 6-31G*
  Basis Set:

    Orbital Energies (a.u.)
    -----------------------

    Doubly Occupied:

       1A    -20.561903     2A    -11.326938     3A    -11.236012
       4A    -11.235170     5A    -11.229401     6A    -11.218666
       7A     -1.402095     8A     -1.097094     9A     -1.019352
      10A     -0.904846    11A     -0.811956    12A     -0.795994
      13A     -0.671307    14A     -0.652788    15A     -0.631600
      16A     -0.602662    17A     -0.587654    18A     -0.545218
      19A     -0.533938    20A     -0.500513    21A     -0.487844
      22A     -0.484967    23A     -0.478610    24A     -0.409618

  @DF-RHF Final Energy:  -270.01913720660804

   => Energetics <=

    Nuclear Repulsion Energy =            228.3651813204590439
    One-Electron Energy =                -817.9163299333732766
    Two-Electron Energy =                 319.5320114063064239
    DFT Exchange-Correlation Energy =       0.0000000000000000
    Empirical Dispersion Energy =           0.0000000000000000
    PCM Polarization Energy =               0.0000000000000000
    EFP Energy =                            0.0000000000000000
    Total Energy =                       -270.0191372066077520

  Mulliken Charges: (a.u.)
   Center  Symbol    Alpha    Beta     Spin     Total
       1     H     0.43089  0.43089  0.00000  0.13822
       2     C     2.83085  2.83085  0.00000  0.33830
       3     C     3.20777  3.20777  0.00000 -0.41554
       4     O     4.23998  4.23998  0.00000 -0.47996
       5     C     3.16558  3.16558  0.00000 -0.33117
       6     H     0.39815  0.39815  0.00000  0.20370
       7     H     0.40272  0.40272  0.00000  0.19457
       8     C     3.15164  3.15164  0.00000 -0.30327
       9     H     0.41631  0.41631  0.00000  0.16738
      10     H     0.41947  0.41947  0.00000  0.16107
      11     C     3.24021  3.24021  0.00000 -0.48043
      12     H     0.41904  0.41904  0.00000  0.16191
      13     H     0.42063  0.42063  0.00000  0.15875
      14     H     0.41980  0.41980  0.00000  0.16039
      15     H     0.41643  0.41643  0.00000  0.16714
      16     H     0.42053  0.42053  0.00000  0.15895

   Total alpha = 24.00000, Total beta = 24.00000, Total charge =  0.00000
