  ==> Input File <==

--------------------------------------------------------------------------
set {
	reference rhf
	basis cc-pvtz
}

set_num_threads( 4 )
memory 2 gb

molecule MOL {
0 1

H	 1.851405	 0.749983	 0.678328
C	 0.998680	 0.826000	 0.019699
O	 -0.000000	 0.000000	 0.518769
H	 0.675848	 1.864417	 -0.016701
H	 1.301427	 0.525311	 -0.981193
C	 -1.165153	 0.000000	 -0.236961
H	 -1.229451	 0.882440	 -0.870223
H	 -2.002557	 0.000000	 0.445289
H	 -1.229451	 -0.882440	 -0.870223

	symmetry c1
}
set optking {
	frozen_dihedral = ("
		2 3 6 7
	")
}

ee = optimize('scf')
oeprop('DIPOLE', 'QUADRUPOLE', 'MULLIKEN_CHARGES')
f=open( 'psi4out.xyz', 'w' )
f.write( "9  " )
f.write( str(ee) + "\n" )
f.write( MOL.save_string_xyz() )
f.close()
--------------------------------------------------------------------------

    Molecular point group: c1
  Charge       = 0
  Multiplicity = 1
  Basis Set: CC-PVTZ
  Basis Set:
  @DF-RHF Final Energy:  -154.12411660024600
    Total Energy =                       -154.1241166002461398
    Molecular point group: c1
  Basis Set: CC-PVTZ
  Basis Set:
  Basis Set: CC-PVTZ
  Basis Set:
  @DF-RHF Final Energy:  -154.12430365645002
    Total Energy =                       -154.1243036564500812
  Basis Set: CC-PVTZ
  Basis Set:
  Basis Set: CC-PVTZ
  Basis Set:
  @DF-RHF Final Energy:  -154.12436890204708
    Total Energy =                       -154.1243689020469674
  Basis Set: CC-PVTZ
  Basis Set:
  Charge       = 0
  Multiplicity = 1
  Basis Set: CC-PVTZ
  Basis Set:

    Orbital Energies (a.u.)
    -----------------------

    Doubly Occupied:

       1A    -20.547514     2A    -11.263566     3A    -11.262803
       4A     -1.378913     5A     -0.975838     6A     -0.872701
       7A     -0.659916     8A     -0.655216     9A     -0.645428
      10A     -0.556942    11A     -0.528506    12A     -0.475919
      13A     -0.415887

  @DF-RHF Final Energy:  -154.12436935630734

   => Energetics <=

    Nuclear Repulsion Energy =             84.6446236753782983
    One-Electron Energy =                -377.0596851434506789
    Two-Electron Energy =                 138.2906921117648551
    DFT Exchange-Correlation Energy =       0.0000000000000000
    Empirical Dispersion Energy =           0.0000000000000000
    PCM Polarization Energy =               0.0000000000000000
    EFP Energy =                            0.0000000000000000
    Total Energy =                       -154.1243693563075396
    Molecular point group: c1
  Basis Set: CC-PVTZ
  Basis Set:

  -Total Gradient:
     Atom            X                  Y                   Z
    ------   -----------------  -----------------  -----------------
       1        0.000030303919     0.000018184549    -0.000006444072
       2       -0.000599102124     0.001567753163     0.001110056019
       3        0.001259751616    -0.002555746760    -0.002194522229
       4       -0.000028126167    -0.000028342403     0.000001109246
       5       -0.000030696630     0.000000044767     0.000018362189
       6       -0.001822542959     0.002233538977     0.002911912872
       7        0.001211371510    -0.001243804753    -0.001835883136
       8       -0.000034863936     0.000005544376    -0.000002532777
       9        0.000013904771     0.000002828084    -0.000002058112

  **** Optimization is complete! (in 4 steps) ****
    Final optimized geometry and variables:
    Molecular point group: c1

    Geometry (in Angstrom), charge = 0, multiplicity = 1:

    H            1.914505882466     0.453737714436     0.596787390413
    C            1.067793521463     0.539463195061    -0.069006121980
    O            0.057626196222    -0.276721671746     0.424779127821
    H            0.756125612162     1.580588379209    -0.105593582497
    H            1.379948769042     0.238033667470    -1.066858167024
    C           -1.121068267466    -0.286873304220    -0.318332691509
    H           -1.202104019615     0.585918072829    -0.959315296820
    H           -1.963878474632    -0.307026121768     0.359493879608
    H           -1.164834047945    -1.167022527073    -0.954090342069

  Mulliken Charges: (a.u.)
   Center  Symbol    Alpha    Beta     Spin     Total
       1     H     0.44951  0.44951  0.00000  0.10098
       2     C     3.02106  3.02106  0.00000 -0.04213
       3     O     4.17162  4.17162  0.00000 -0.34325
       4     H     0.47248  0.47248  0.00000  0.05503
       5     H     0.47354  0.47354  0.00000  0.05292
       6     C     3.01753  3.01753  0.00000 -0.03507
       7     H     0.47519  0.47519  0.00000  0.04962
       8     H     0.45424  0.45424  0.00000  0.09153
       9     H     0.46482  0.46482  0.00000  0.07036

   Total alpha = 13.00000, Total beta = 13.00000, Total charge = -0.00000
