  ==> Input File <==

--------------------------------------------------------------------------
set {
	reference rhf
	basis 6-31G*
}

set_num_threads( 1 )
memory 2 gb

molecule MOL {
0 1

H	 -2.009307	 1.502754	 3.880611
O	 -1.310095	 0.933302	 3.592981
C	 -1.173363	 1.020826	 2.197906
C	 -0.045548	 0.097161	 1.772908
H	 -2.099391	 0.730802	 1.703269
H	 -0.950268	 2.043943	 1.898239
C	 0.198102	 0.111031	 0.262842
H	 -0.284910	 -0.909611	 2.104336
H	 0.856475	 0.393454	 2.301151
C	 1.331804	 -0.827780	 -0.158768
H	 -0.720372	 -0.164095	 -0.249880
H	 0.436822	 1.124355	 -0.057635
C	 2.723619	 -0.410569	 0.329459
H	 1.342964	 -0.912588	 -1.244120
H	 1.116806	 -1.824343	 0.220779
C	 3.243875	 0.895854	 -0.272975
H	 3.424222	 -1.207124	 0.091250
H	 2.714788	 -0.329854	 1.414619
H	 3.251977	 0.848779	 -1.358681
H	 2.637085	 1.747371	 0.016682
H	 4.259473	 1.094070	 0.055697

	symmetry c1
}
set optking {
	frozen_dihedral = ("
		2 3 4 8,
		8 4 7 10,
		16 13 10 14,
		1 2 3 5
	")
}

ee = energy('scf')
oeprop('DIPOLE', 'QUADRUPOLE', 'MULLIKEN_CHARGES')
f=open( 'psi4out.xyz', 'w' )
f.write( "21  " )
f.write( str(ee) + "\n" )
f.write( MOL.save_string_xyz() )
f.close()
--------------------------------------------------------------------------

    Molecular point group: c1

    Geometry (in Angstrom), charge = 0, multiplicity = 1:

       Center              X                  Y                   Z               Mass
    ------------   -----------------  -----------------  -----------------  -----------------
           H         -2.679921549345     1.211516451415     2.725847295282     1.007825032070
           O         -1.980709549345     0.642064451415     2.438217295282    15.994914619560
           C         -1.843977549345     0.729588451415     1.043142295282    12.000000000000
           C         -0.716162549345    -0.194076548585     0.618144295282    12.000000000000
           H         -2.770005549345     0.439564451415     0.548505295282     1.007825032070
           H         -1.620882549345     1.752705451415     0.743475295282     1.007825032070
           C         -0.472512549345    -0.180206548585    -0.891921704718    12.000000000000
           H         -0.955524549345    -1.200848548585     0.949572295282     1.007825032070
           H          0.185860450655     0.102216451415     1.146387295282     1.007825032070
           C          0.661189450655    -1.119017548585    -1.313531704718    12.000000000000
           H         -1.390986549345    -0.455332548585    -1.404643704718     1.007825032070
           H         -0.233792549345     0.833117451415    -1.212398704718     1.007825032070
           C          2.053004450655    -0.701806548585    -0.825304704718    12.000000000000
           H          0.672349450655    -1.203825548585    -2.398883704718     1.007825032070
           H          0.446191450655    -2.115580548585    -0.933984704718     1.007825032070
           C          2.573260450655     0.604616451415    -1.427738704718    12.000000000000
           H          2.753607450655    -1.498361548585    -1.063513704718     1.007825032070
           H          2.044173450655    -0.621091548585     0.259855295282     1.007825032070
           H          2.581362450655     0.557541451415    -2.513444704718     1.007825032070
           H          1.966470450655     1.456133451415    -1.138081704718     1.007825032070
           H          3.588858450655     0.802832451415    -1.099066704718     1.007825032070

  Charge       = 0
  Multiplicity = 1
  Basis Set: 6-31G*
  Basis Set:

    Orbital Energies (a.u.)
    -----------------------

    Doubly Occupied:

       1A    -20.551840     2A    -11.267051     3A    -11.215329
       4A    -11.213849     5A    -11.213206     6A    -11.209986
       7A    -11.207760     8A     -1.358656     9A     -1.087772
      10A     -1.029664    11A     -0.955330    12A     -0.874795
      13A     -0.818370    14A     -0.766617    15A     -0.690261
      16A     -0.660484    17A     -0.627219    18A     -0.615393
      19A     -0.572991    20A     -0.559846    21A     -0.554484
      22A     -0.526393    23A     -0.501246    24A     -0.490366
      25A     -0.479030    26A     -0.457271    27A     -0.448835
      28A     -0.447150    29A     -0.433626

  @DF-RHF Final Energy:  -310.21073760536666

   => Energetics <=

    Nuclear Repulsion Energy =            318.6537864967032760
    One-Electron Energy =               -1052.0593777097160455
    Two-Electron Energy =                 423.1948536076455980
    DFT Exchange-Correlation Energy =       0.0000000000000000
    Empirical Dispersion Energy =           0.0000000000000000
    PCM Polarization Energy =               0.0000000000000000
    EFP Energy =                            0.0000000000000000
    Total Energy =                       -310.2107376053671146

  Mulliken Charges: (a.u.)
   Center  Symbol    Alpha    Beta     Spin     Total
       1     H     0.28120  0.28120  0.00000  0.43760
       2     O     4.37178  4.37178  0.00000 -0.74357
       3     C     2.98907  2.98907  0.00000  0.02186
       4     C     3.16210  3.16210  0.00000 -0.32419
       5     H     0.43294  0.43294  0.00000  0.13411
       6     H     0.43312  0.43312  0.00000  0.13375
       7     C     3.16338  3.16338  0.00000 -0.32675
       8     H     0.41492  0.41492  0.00000  0.17016
       9     H     0.41298  0.41298  0.00000  0.17404
      10     C     3.15351  3.15351  0.00000 -0.30703
      11     H     0.42094  0.42094  0.00000  0.15813
      12     H     0.42210  0.42210  0.00000  0.15580
      13     C     3.15594  3.15594  0.00000 -0.31189
      14     H     0.42208  0.42208  0.00000  0.15584
      15     H     0.42117  0.42117  0.00000  0.15765
      16     C     3.24091  3.24091  0.00000 -0.48181
      17     H     0.42024  0.42024  0.00000  0.15953
      18     H     0.41946  0.41946  0.00000  0.16108
      19     H     0.42226  0.42226  0.00000  0.15547
      20     H     0.42116  0.42116  0.00000  0.15768
      21     H     0.41873  0.41873  0.00000  0.16254

   Total alpha = 29.00000, Total beta = 29.00000, Total charge = -0.00000
