  ==> Input File <==

--------------------------------------------------------------------------
set {
	reference rhf
	basis 6-31G*
}

set_num_threads( 1 )
memory 2 gb

molecule MOL {
0 1

H	 3.893188	 0.355400	 -0.101367
N	 3.092854	 -0.246221	 -0.068770
C	 1.865559	 0.531981	 0.018834
H	 3.199514	 -0.826043	 0.741946
C	 0.645745	 -0.382037	 -0.029944
H	 1.841966	 1.207024	 -0.831236
H	 1.815756	 1.155410	 0.915079
C	 -0.679275	 0.379305	 0.025956
H	 0.698998	 -0.976915	 -0.937203
H	 0.693479	 -1.083846	 0.802235
C	 -1.374018	 0.480448	 -1.333263
H	 -0.503153	 1.382071	 0.412337
H	 -1.349031	 -0.106216	 0.734153
C	 -2.695613	 1.245511	 -1.273457
H	 -0.707244	 0.966394	 -2.042124
H	 -1.553676	 -0.520187	 -1.720701
H	 -2.544454	 2.262217	 -0.921636
H	 -3.163328	 1.300574	 -2.251625
H	 -3.397377	 0.764133	 -0.598036

	symmetry c1
}
set optking {
	frozen_dihedral = ("
		6 3 5 9,
		12 8 11 15,
		1 2 3 6
	")
}

ee = energy('scf')
oeprop('DIPOLE', 'QUADRUPOLE', 'MULLIKEN_CHARGES')
f=open( 'psi4out.xyz', 'w' )
f.write( "19  " )
f.write( str(ee) + "\n" )
f.write( MOL.save_string_xyz() )
f.close()
--------------------------------------------------------------------------

    Molecular point group: c1

    Geometry (in Angstrom), charge = 0, multiplicity = 1:

       Center              X                  Y                   Z               Mass
    ------------   -----------------  -----------------  -----------------  -----------------
           H          3.716682654624     0.016260565372     0.333844705667     1.007825032070
           N          2.916348654624    -0.585360434628     0.366441705667    14.003074004780
           C          1.689053654624     0.192841565372     0.454045705667    12.000000000000
           H          3.023008654624    -1.165182434628     1.177157705667     1.007825032070
           C          0.469239654624    -0.721176434628     0.405267705667    12.000000000000
           H          1.665460654624     0.867884565372    -0.396024294333     1.007825032070
           H          1.639250654624     0.816270565372     1.350290705667     1.007825032070
           C         -0.855780345376     0.040165565372     0.461167705667    12.000000000000
           H          0.522492654624    -1.316054434628    -0.501991294333     1.007825032070
           H          0.516973654624    -1.422985434628     1.237446705667     1.007825032070
           C         -1.550523345376     0.141308565372    -0.898051294333    12.000000000000
           H         -0.679658345376     1.042931565372     0.847548705667     1.007825032070
           H         -1.525536345376    -0.445355434628     1.169364705667     1.007825032070
           C         -2.872118345376     0.906371565372    -0.838245294333    12.000000000000
           H         -0.883749345376     0.627254565372    -1.606912294333     1.007825032070
           H         -1.730181345376    -0.859326434628    -1.285489294333     1.007825032070
           H         -2.720959345376     1.923077565372    -0.486424294333     1.007825032070
           H         -3.339833345376     0.961434565372    -1.816413294333     1.007825032070
           H         -3.573882345376     0.424993565372    -0.162824294333     1.007825032070

  Charge       = 0
  Multiplicity = 1
  Basis Set: 6-31G*
  Basis Set:

    Orbital Energies (a.u.)
    -----------------------

    Doubly Occupied:

       1A    -15.532383     2A    -11.240155     3A    -11.213447
       4A    -11.211443     5A    -11.208130     6A    -11.206816
       7A     -1.176652     8A     -1.072903     9A     -0.997297
      10A     -0.899171    11A     -0.819801    12A     -0.784674
      13A     -0.660987    14A     -0.634537    15A     -0.623970
      16A     -0.588006    17A     -0.569806    18A     -0.548794
      19A     -0.526637    20A     -0.498530    21A     -0.486321
      22A     -0.465917    23A     -0.452664    24A     -0.447226
      25A     -0.381319

  @DF-RHF Final Energy:  -251.34721101880072

   => Energetics <=

    Nuclear Repulsion Energy =            247.6415491469914798
    One-Electron Energy =                -829.4825229238626889
    Two-Electron Energy =                 330.4937627580702610
    DFT Exchange-Correlation Energy =       0.0000000000000000
    Empirical Dispersion Energy =           0.0000000000000000
    PCM Polarization Energy =               0.0000000000000000
    EFP Energy =                            0.0000000000000000
    Total Energy =                       -251.3472110188009765

  Mulliken Charges: (a.u.)
   Center  Symbol    Alpha    Beta     Spin     Total
       1     H     0.33261  0.33261  0.00000  0.33478
       2     N     3.92205  3.92205  0.00000 -0.84411
       3     C     3.06235  3.06235  0.00000 -0.12471
       4     H     0.33529  0.33529  0.00000  0.32942
       5     C     3.15445  3.15445  0.00000 -0.30891
       6     H     0.42087  0.42087  0.00000  0.15826
       7     H     0.43403  0.43403  0.00000  0.13194
       8     C     3.15802  3.15802  0.00000 -0.31605
       9     H     0.41077  0.41077  0.00000  0.17847
      10     H     0.42530  0.42530  0.00000  0.14939
      11     C     3.15243  3.15243  0.00000 -0.30485
      12     H     0.42317  0.42317  0.00000  0.15366
      13     H     0.42109  0.42109  0.00000  0.15781
      14     C     3.23974  3.23974  0.00000 -0.47948
      15     H     0.42251  0.42251  0.00000  0.15499
      16     H     0.42147  0.42147  0.00000  0.15706
      17     H     0.42237  0.42237  0.00000  0.15527
      18     H     0.41946  0.41946  0.00000  0.16108
      19     H     0.42201  0.42201  0.00000  0.15597

   Total alpha = 25.00000, Total beta = 25.00000, Total charge =  0.00000
