  ==> Input File <==

--------------------------------------------------------------------------
set {
	reference rhf
	basis 6-31G*
}

set_num_threads( 4 )
memory 2 gb

molecule MOL {
0 1

H	 0.825165	 0.620884	 2.365083
C	 1.424834	 0.428938	 1.467111
C	 0.692068	 0.589600	 0.160137
O	 2.567601	 0.118940	 1.567686
C	 -0.558097	 -0.297372	 0.091132
H	 1.381117	 0.364981	 -0.645617
H	 0.398075	 1.634774	 0.070639
C	 -1.850991	 0.512573	 -0.019058
H	 -0.476753	 -0.965681	 -0.762987
H	 -0.604799	 -0.930658	 0.975228
C	 -3.096943	 -0.368295	 -0.099594
H	 -1.800724	 1.150330	 -0.898172
H	 -1.931651	 1.177355	 0.838044
H	 -3.060452	 -1.020287	 -0.967456
H	 -3.996858	 0.233488	 -0.175704
H	 -3.191959	 -0.995686	 0.782074

	symmetry c1
}
set optking {
	frozen_dihedral = ("
		6 3 5 9
	")
}

ee = optimize('scf')
oeprop('DIPOLE', 'QUADRUPOLE', 'MULLIKEN_CHARGES')
f=open( 'psi4out.xyz', 'w' )
f.write( "16  " )
f.write( str(ee) + "\n" )
f.write( MOL.save_string_xyz() )
f.close()
--------------------------------------------------------------------------

    Molecular point group: c1
  Charge       = 0
  Multiplicity = 1
  Basis Set: 6-31G*
  Basis Set:
  @DF-RHF Final Energy:  -270.01474047658746
    Total Energy =                       -270.0147404765875763
    Molecular point group: c1
  Basis Set: 6-31G*
  Basis Set:
  Basis Set: 6-31G*
  Basis Set:
  @DF-RHF Final Energy:  -270.01440973192473
    Total Energy =                       -270.0144097319247294
  Basis Set: 6-31G*
  Basis Set:
  Basis Set: 6-31G*
  Basis Set:
  @DF-RHF Final Energy:  -270.01209051282240
    Total Energy =                       -270.0120905128224535
  Basis Set: 6-31G*
  Basis Set:
  Basis Set: 6-31G*
  Basis Set:
  @DF-RHF Final Energy:  -270.01510243142707
    Total Energy =                       -270.0151024314272377
  Basis Set: 6-31G*
  Basis Set:
  @DF-RHF Final Energy:  -270.01513157651698
    Total Energy =                       -270.0151315765171489
  @DF-RHF Final Energy:  -270.01514013345621
    Total Energy =                       -270.0151401334561569
  Basis Set: 6-31G*
  Basis Set:
  @DF-RHF Final Energy:  -270.01514890343992
    Total Energy =                       -270.0151489034397514
  Basis Set: 6-31G*
  Basis Set:
  Basis Set: 6-31G*
  Basis Set:
  @DF-RHF Final Energy:  -270.01515256971550
    Total Energy =                       -270.0151525697155535
  Basis Set: 6-31G*
  Basis Set:
  Basis Set: 6-31G*
  Basis Set:
  @DF-RHF Final Energy:  -270.01515417310372
    Total Energy =                       -270.0151541731038378
  Basis Set: 6-31G*
  Basis Set:
  Charge       = 0
  Multiplicity = 1
  Basis Set: 6-31G*
  Basis Set:

    Orbital Energies (a.u.)
    -----------------------

    Doubly Occupied:

       1A    -20.562078     2A    -11.327135     3A    -11.236360
       4A    -11.235207     5A    -11.230627     6A    -11.219212
       7A     -1.402515     8A     -1.095179     9A     -1.018199
      10A     -0.906574    11A     -0.817214    12A     -0.793853
      13A     -0.668710    14A     -0.655376    15A     -0.618364
      16A     -0.607889    17A     -0.582031    18A     -0.555052
      19A     -0.535582    20A     -0.505874    21A     -0.484235
      22A     -0.482842    23A     -0.475244    24A     -0.409963

  @DF-RHF Final Energy:  -270.01515449061685

   => Energetics <=

    Nuclear Repulsion Energy =            229.1730317668239820
    One-Electron Energy =                -819.5257387600988750
    Two-Electron Energy =                 320.3375525026581272
    DFT Exchange-Correlation Energy =       0.0000000000000000
    Empirical Dispersion Energy =           0.0000000000000000
    PCM Polarization Energy =               0.0000000000000000
    EFP Energy =                            0.0000000000000000
    Total Energy =                       -270.0151544906167373
    Molecular point group: c1
  Basis Set: 6-31G*
  Basis Set:

  -Total Gradient:
     Atom            X                  Y                   Z
    ------   -----------------  -----------------  -----------------
       1       -0.000000108532     0.000000994028     0.000003102830
       2        0.000006249817     0.000001759175    -0.000007737176
       3        0.000246550276    -0.000417511911     0.000338032656
       4       -0.000004814077    -0.000000058971     0.000003246740
       5       -0.000242391550     0.000401527361    -0.000331831501
       6       -0.000167881896     0.000272711891    -0.000229430342
       7        0.000000240702     0.000006191123     0.000001500475
       8       -0.000003126090    -0.000000063254    -0.000003998708
       9        0.000165664874    -0.000261847959     0.000225295578
      10       -0.000002277668    -0.000003525594     0.000000725915
      11        0.000001047021    -0.000000668708     0.000001780971
      12        0.000001004189     0.000001573521    -0.000000419322
      13       -0.000000059341    -0.000000454126    -0.000000283763
      14       -0.000000595766     0.000000622644    -0.000000416873
      15        0.000000894724     0.000000069801     0.000000481388
      16       -0.000000396684    -0.000001319019    -0.000000048868

  **** Optimization is complete! (in 10 steps) ****
    Final optimized geometry and variables:
    Molecular point group: c1

    Geometry (in Angstrom), charge = 0, multiplicity = 1:

    H            0.935993614715     0.307625149826     1.829486032909
    C            1.571007105474     0.248172035987     0.936873751729
    C            0.843808455266     0.387287755198    -0.376683953741
    O            2.743229131018     0.091192656385     1.047082380678
    C           -0.433598250412    -0.481130306705    -0.450323078966
    H            1.543115420926     0.156033767936    -1.170228577028
    H            0.582199113369     1.439380423139    -0.480545042406
    C           -1.726273230752     0.330938276814    -0.557434098719
    H           -0.358392729166    -1.153080959321    -1.299191364163
    H           -0.495969322553    -1.124787974456     0.425639409874
    C           -2.974512033219    -0.546113803133    -0.630278875184
    H           -1.676011475246     0.966210023829    -1.438912396133
    H           -1.802642288809     1.000518084544     0.297066524433
    H           -2.941433474042    -1.203337288374    -1.494436784547
    H           -3.873109869516     0.057413878613    -0.707850671863
    H           -3.069356293569    -1.168785343198     0.254746342826

  Mulliken Charges: (a.u.)
   Center  Symbol    Alpha    Beta     Spin     Total
       1     H     0.43202  0.43202  0.00000  0.13595
       2     C     2.83137  2.83137  0.00000  0.33726
       3     C     3.21125  3.21125  0.00000 -0.42250
       4     O     4.23847  4.23847  0.00000 -0.47694
       5     C     3.16665  3.16665  0.00000 -0.33329
       6     H     0.39619  0.39619  0.00000  0.20762
       7     H     0.40457  0.40457  0.00000  0.19086
       8     C     3.15430  3.15430  0.00000 -0.30861
       9     H     0.41047  0.41047  0.00000  0.17906
      10     H     0.41683  0.41683  0.00000  0.16633
      11     C     3.24110  3.24110  0.00000 -0.48220
      12     H     0.41900  0.41900  0.00000  0.16199
      13     H     0.42207  0.42207  0.00000  0.15586
      14     H     0.41942  0.41942  0.00000  0.16116
      15     H     0.41633  0.41633  0.00000  0.16734
      16     H     0.41995  0.41995  0.00000  0.16009

   Total alpha = 24.00000, Total beta = 24.00000, Total charge = -0.00000
