  ==> Input File <==

--------------------------------------------------------------------------
set {
	reference rhf
	basis 6-31G*
}

set_num_threads( 4 )
memory 2 gb

molecule MOL {
0 1

H	 -4.236494	 0.538104	 0.039757
O	 -3.517110	 -0.026191	 -0.205115
C	 -2.306886	 0.532354	 0.237577
C	 -1.177863	 -0.397191	 -0.171080
H	 -2.156308	 1.517575	 -0.201710
H	 -2.315015	 0.655684	 1.319734
C	 0.198102	 0.111031	 0.262842
H	 -1.208843	 -0.518759	 -1.250427
H	 -1.368741	 -1.376554	 0.258909
C	 1.331804	 -0.827780	 -0.158768
H	 0.361943	 1.100838	 -0.156218
H	 0.217265	 0.229072	 1.345532
C	 2.723619	 -0.410569	 0.329459
H	 1.342964	 -0.912588	 -1.244120
H	 1.116806	 -1.824343	 0.220779
C	 3.687055	 0.012096	 -0.781162
H	 3.161802	 -1.244911	 0.871636
H	 2.624314	 0.399388	 1.049371
H	 3.796233	 -0.774428	 -1.523118
H	 3.349080	 0.906312	 -1.294317
H	 4.672446	 0.222596	 -0.376875

	symmetry c1
}
set optking {
	frozen_dihedral = ("
		16 13 10 14
	")
}

ee = optimize('scf')
oeprop('DIPOLE', 'QUADRUPOLE', 'MULLIKEN_CHARGES')
f=open( 'psi4out.xyz', 'w' )
f.write( "21  " )
f.write( str(ee) + "\n" )
f.write( MOL.save_string_xyz() )
f.close()
--------------------------------------------------------------------------

    Molecular point group: c1
  Charge       = 0
  Multiplicity = 1
  Basis Set: 6-31G*
  Basis Set:
  @DF-RHF Final Energy:  -310.20839769440329
    Total Energy =                       -310.2083976944035726
    Molecular point group: c1
  Basis Set: 6-31G*
  Basis Set:
  Basis Set: 6-31G*
  Basis Set:
  @DF-RHF Final Energy:  -310.20896855669827
    Total Energy =                       -310.2089685566983235
  Basis Set: 6-31G*
  Basis Set:
  Basis Set: 6-31G*
  Basis Set:
  @DF-RHF Final Energy:  -310.20905016502735
    Total Energy =                       -310.2090501650275201
  Basis Set: 6-31G*
  Basis Set:
  Basis Set: 6-31G*
  Basis Set:
  @DF-RHF Final Energy:  -310.20904668581710
    Total Energy =                       -310.2090466858168725
  Basis Set: 6-31G*
  Basis Set:
  Basis Set: 6-31G*
  Basis Set:
  @DF-RHF Final Energy:  -310.20905446644662
    Total Energy =                       -310.2090544664467302
  Basis Set: 6-31G*
  Basis Set:
  Charge       = 0
  Multiplicity = 1
  Basis Set: 6-31G*
  Basis Set:

    Orbital Energies (a.u.)
    -----------------------

    Doubly Occupied:

       1A    -20.551841     2A    -11.267111     3A    -11.216401
       4A    -11.214484     5A    -11.213079     6A    -11.210454
       7A    -11.208505     8A     -1.358662     9A     -1.084862
      10A     -1.033127    11A     -0.955998    12A     -0.868514
      13A     -0.804059    14A     -0.788609    15A     -0.692420
      16A     -0.661411    17A     -0.621986    18A     -0.604860
      19A     -0.585867    20A     -0.564335    21A     -0.540752
      22A     -0.522043    23A     -0.506621    24A     -0.486686
      25A     -0.478330    26A     -0.463250    27A     -0.454454
      28A     -0.441401    29A     -0.433994

  @DF-RHF Final Energy:  -310.20905474593582

   => Energetics <=

    Nuclear Repulsion Energy =            310.1662822555824164
    One-Electron Energy =               -1035.0824448337216381
    Two-Electron Energy =                 414.7071078322035191
    DFT Exchange-Correlation Energy =       0.0000000000000000
    Empirical Dispersion Energy =           0.0000000000000000
    PCM Polarization Energy =               0.0000000000000000
    EFP Energy =                            0.0000000000000000
    Total Energy =                       -310.2090547459356458
    Molecular point group: c1
  Basis Set: 6-31G*
  Basis Set:

  -Total Gradient:
     Atom            X                  Y                   Z
    ------   -----------------  -----------------  -----------------
       1        0.000005089637     0.000002380955     0.000002825773
       2        0.000000286486    -0.000010016535    -0.000002743096
       3        0.000010023480     0.000009765655    -0.000001976853
       4       -0.000008040374     0.000024589957    -0.000013129882
       5       -0.000003076708     0.000001208018    -0.000001692105
       6       -0.000001776613    -0.000000917012     0.000003466439
       7       -0.000029072445     0.000012510437     0.000025123061
       8       -0.000007899566     0.000001349620    -0.000008042236
       9        0.000012132251    -0.000002545473     0.000000705059
      10        0.000835462248    -0.002350280519     0.000146933308
      11       -0.000014818707    -0.000015052380     0.000003759705
      12       -0.000009055122    -0.000013711589     0.000006296191
      13       -0.000758078638     0.001932437698     0.000060389173
      14       -0.000474627739     0.001588376520    -0.000121798109
      15        0.000051635861    -0.000002188474     0.000041009373
      16        0.000428419040    -0.001104329693    -0.000123210201
      17       -0.000037157336    -0.000054795451    -0.000001658428
      18       -0.000026718278    -0.000010439362    -0.000018665064
      19        0.000006212708    -0.000015080001     0.000015492176
      20        0.000022717883    -0.000007774085     0.000000606868
      21       -0.000001658065     0.000014511714    -0.000013691154

  **** Optimization is complete! (in 6 steps) ****
    Final optimized geometry and variables:
    Molecular point group: c1

    Geometry (in Angstrom), charge = 0, multiplicity = 1:

    H           -4.275939902002     0.735165636836     0.056635724128
    O           -3.562789462994     0.165714122186    -0.194484255524
    C           -2.353888739480     0.672321772220     0.310047341209
    C           -1.234787105466    -0.263876232214    -0.110631900013
    H           -2.167278069810     1.673560859300    -0.075977000102
    H           -2.391956063707     0.743471930487     1.396217021632
    C            0.138616727312     0.189626307713     0.384537282238
    H           -1.237795943347    -0.334794347633    -1.194917845793
    H           -1.459803017259    -1.257452248904     0.267539610945
    C            1.268227882617    -0.757794657349    -0.030646444650
    H            0.352551028324     1.187564459470     0.003831713372
    H            0.125630208344     0.274162439549     1.470017521035
    C            2.665390201041    -0.280510386700     0.423976336237
    H            1.251453653522    -0.854323344318    -1.113770777057
    H            1.061067740098    -1.747266108437     0.367295405384
    C            3.563003419593     0.160316194788    -0.733151533239
    H            3.167139695068    -1.075592927377     0.968314364786
    H            2.560826048380     0.540907967106     1.128161228428
    H            3.743727900661    -0.661584317200    -1.419767214106
    H            3.106759506160     0.967978099988    -1.299460193434
    H            4.525946362468     0.511122309289    -0.374340257444

  Mulliken Charges: (a.u.)
   Center  Symbol    Alpha    Beta     Spin     Total
       1     H     0.28118  0.28118  0.00000  0.43763
       2     O     4.37175  4.37175  0.00000 -0.74350
       3     C     2.98976  2.98976  0.00000  0.02048
       4     C     3.15984  3.15984  0.00000 -0.31967
       5     H     0.43288  0.43288  0.00000  0.13424
       6     H     0.43283  0.43283  0.00000  0.13434
       7     C     3.16195  3.16195  0.00000 -0.32390
       8     H     0.41473  0.41473  0.00000  0.17054
       9     H     0.41483  0.41483  0.00000  0.17034
      10     C     3.15422  3.15422  0.00000 -0.30843
      11     H     0.42368  0.42368  0.00000  0.15265
      12     H     0.42316  0.42316  0.00000  0.15369
      13     C     3.15540  3.15540  0.00000 -0.31081
      14     H     0.41993  0.41993  0.00000  0.16015
      15     H     0.41953  0.41953  0.00000  0.16094
      16     C     3.23972  3.23972  0.00000 -0.47944
      17     H     0.42008  0.42008  0.00000  0.15985
      18     H     0.42066  0.42066  0.00000  0.15868
      19     H     0.42088  0.42088  0.00000  0.15823
      20     H     0.42243  0.42243  0.00000  0.15513
      21     H     0.42057  0.42057  0.00000  0.15886

   Total alpha = 29.00000, Total beta = 29.00000, Total charge = -0.00000
