  ==> Input File <==

--------------------------------------------------------------------------
set {
	reference rhf
	basis 6-31G*
}

set_num_threads( 4 )
memory 2 gb

molecule MOL {
0 1

H	 -1.733500	 1.125585	 -0.335859
N	 -1.852125	 0.165761	 -0.074816
C	 -0.563778	 -0.502042	 0.037919
H	 -2.408346	 -0.262404	 -0.790392
C	 0.575259	 0.508231	 -0.048326
H	 -0.482092	 -1.204004	 -0.786564
H	 -0.460411	 -1.085169	 0.956626
C	 1.954651	 -0.143624	 0.035137
H	 0.475158	 1.060484	 -0.977307
H	 0.469181	 1.234488	 0.755973
H	 2.103292	 -0.853109	 -0.774172
H	 2.742821	 0.599562	 -0.030094
H	 2.083613	 -0.679371	 0.971560

	symmetry c1
}
set optking {
	frozen_dihedral = ("
		1 2 3 6
	")
}

ee = optimize('scf')
oeprop('DIPOLE', 'QUADRUPOLE', 'MULLIKEN_CHARGES')
f=open( 'psi4out.xyz', 'w' )
f.write( "13  " )
f.write( str(ee) + "\n" )
f.write( MOL.save_string_xyz() )
f.close()
--------------------------------------------------------------------------

    Molecular point group: c1
  Charge       = 0
  Multiplicity = 1
  Basis Set: 6-31G*
  Basis Set:
  @DF-RHF Final Energy:  -173.27672165588095
    Total Energy =                       -173.2767216558809480
    Molecular point group: c1
  Basis Set: 6-31G*
  Basis Set:
  Basis Set: 6-31G*
  Basis Set:
  @DF-RHF Final Energy:  -173.27811621816045
    Total Energy =                       -173.2781162181604770
  Basis Set: 6-31G*
  Basis Set:
  Basis Set: 6-31G*
  Basis Set:
  @DF-RHF Final Energy:  -173.27833167275051
    Total Energy =                       -173.2783316727505110
  Basis Set: 6-31G*
  Basis Set:
  Basis Set: 6-31G*
  Basis Set:
  @DF-RHF Final Energy:  -173.27833681208574
    Total Energy =                       -173.2783368120857403
  Basis Set: 6-31G*
  Basis Set:
  Basis Set: 6-31G*
  Basis Set:
  @DF-RHF Final Energy:  -173.27833826493338
    Total Energy =                       -173.2783382649333248
  Basis Set: 6-31G*
  Basis Set:
  Charge       = 0
  Multiplicity = 1
  Basis Set: 6-31G*
  Basis Set:

    Orbital Energies (a.u.)
    -----------------------

    Doubly Occupied:

       1A    -15.528509     2A    -11.239558     3A    -11.219038
       4A    -11.212644     5A     -1.173155     6A     -1.038108
       7A     -0.899896     8A     -0.807179     9A     -0.656695
      10A     -0.632552    11A     -0.604612    12A     -0.553897
      13A     -0.547386    14A     -0.497381    15A     -0.481551
      16A     -0.471227    17A     -0.373740

  @DF-RHF Final Energy:  -173.27833867457275

   => Energetics <=

    Nuclear Repulsion Energy =            131.7677487501225073
    One-Electron Energy =                -494.2179205131501476
    Two-Electron Energy =                 189.1718330884550028
    DFT Exchange-Correlation Energy =       0.0000000000000000
    Empirical Dispersion Energy =           0.0000000000000000
    PCM Polarization Energy =               0.0000000000000000
    EFP Energy =                            0.0000000000000000
    Total Energy =                       -173.2783386745726375
    Molecular point group: c1
  Basis Set: 6-31G*
  Basis Set:

  -Total Gradient:
     Atom            X                  Y                   Z
    ------   -----------------  -----------------  -----------------
       1        0.000214551373     0.000456634097     0.001828690989
       2       -0.000420844971    -0.000928774331    -0.002020727957
       3        0.000896135710     0.001726094588    -0.000835835483
       4        0.000013316822    -0.000004106751     0.000002672146
       5       -0.000059672992    -0.000008825492     0.000005477642
       6       -0.000674212246    -0.001248982551     0.000999707565
       7       -0.000005845772    -0.000003255302     0.000015492672
       8        0.000023976428     0.000009821278    -0.000002841505
       9        0.000008551012    -0.000003482513     0.000011273241
      10        0.000006345321     0.000003480247    -0.000004757614
      11       -0.000009046947     0.000001512114    -0.000002163913
      12        0.000008001450    -0.000006980959    -0.000000415804
      13       -0.000001255189     0.000006865574     0.000003428022

  **** Optimization is complete! (in 6 steps) ****
    Final optimized geometry and variables:
    Molecular point group: c1

    Geometry (in Angstrom), charge = 0, multiplicity = 1:

    H           -1.799339043689     1.113678986347    -0.270318944579
    N           -1.873698800256     0.150805628546    -0.010884403066
    C           -0.567880465645    -0.502610865751     0.016604578860
    H           -2.503672655368    -0.290986851747    -0.648034329293
    C            0.580484279388     0.500294628958    -0.040604722095
    H           -0.466285044377    -1.216868665135    -0.799415063774
    H           -0.483045517327    -1.080798663081     0.933520993897
    C            1.952456400451    -0.158663206306     0.089964990261
    H            0.527033181197     1.051187450724    -0.977794524224
    H            0.447887221159     1.227790544313     0.757163083339
    H            2.122126260666    -0.875378153263    -0.708565344886
    H            2.746472923083     0.579648389139     0.044986566651
    H            2.045014779213    -0.686864612178     1.034257138839

  Mulliken Charges: (a.u.)
   Center  Symbol    Alpha    Beta     Spin     Total
       1     H     0.33157  0.33157  0.00000  0.33687
       2     N     3.93316  3.93316  0.00000 -0.86633
       3     C     3.04366  3.04366  0.00000 -0.08732
       4     H     0.33127  0.33127  0.00000  0.33745
       5     C     3.16743  3.16743  0.00000 -0.33486
       6     H     0.43081  0.43081  0.00000  0.13838
       7     H     0.42132  0.42132  0.00000  0.15736
       8     C     3.24245  3.24245  0.00000 -0.48491
       9     H     0.42443  0.42443  0.00000  0.15115
      10     H     0.41684  0.41684  0.00000  0.16632
      11     H     0.42099  0.42099  0.00000  0.15802
      12     H     0.41741  0.41741  0.00000  0.16518
      13     H     0.41866  0.41866  0.00000  0.16268

   Total alpha = 17.00000, Total beta = 17.00000, Total charge =  0.00000
