  ==> Input File <==

--------------------------------------------------------------------------
set {
	reference rhf
	basis cc-pvtz
}

set_num_threads( 4 )
memory 2 gb

molecule MOL {
0 1

H	 3.889604	 0.356866	 -0.089510
N	 3.091268	 -0.241216	 -0.065538
C	 1.860978	 0.530248	 0.016256
H	 3.192566	 -0.835836	 0.730398
C	 0.644130	 -0.381765	 -0.031064
H	 1.835721	 1.204666	 -0.833114
H	 1.808789	 1.151975	 0.911067
C	 -0.678115	 0.376691	 0.025731
H	 0.693998	 -0.977147	 -0.936845
H	 0.693309	 -1.082142	 0.800523
C	 -1.597699	 0.077515	 -1.154973
H	 -0.478422	 1.445298	 0.059740
H	 -1.196281	 0.135347	 0.951004
C	 -2.915725	 0.842509	 -1.097816
H	 -1.081697	 0.317505	 -2.080412
H	 -1.801898	 -0.989217	 -1.188977
H	 -2.746531	 1.914242	 -1.097824
H	 -3.543896	 0.607551	 -1.949404
H	 -3.472157	 0.597473	 -0.199107

	symmetry c1
}
set optking {
	frozen_dihedral = ("
		12 8 5 9
	")
}

ee = optimize('scf')
oeprop('DIPOLE', 'QUADRUPOLE', 'MULLIKEN_CHARGES')
f=open( 'psi4out.xyz', 'w' )
f.write( "19  " )
f.write( str(ee) + "\n" )
f.write( MOL.save_string_xyz() )
f.close()
--------------------------------------------------------------------------

    Molecular point group: c1
  Charge       = 0
  Multiplicity = 1
  Basis Set: CC-PVTZ
  Basis Set:
  @DF-RHF Final Energy:  -251.44296696755237
    Total Energy =                       -251.4429669675523655
    Molecular point group: c1
  Basis Set: CC-PVTZ
  Basis Set:
  Basis Set: CC-PVTZ
  Basis Set:
  @DF-RHF Final Energy:  -251.44317128076582
    Total Energy =                       -251.4431712807654549
  Basis Set: CC-PVTZ
  Basis Set:
  Basis Set: CC-PVTZ
  Basis Set:
  @DF-RHF Final Energy:  -251.44321977253233
    Total Energy =                       -251.4432197725323022
  Basis Set: CC-PVTZ
  Basis Set:
  Charge       = 0
  Multiplicity = 1
  Basis Set: CC-PVTZ
  Basis Set:

    Orbital Energies (a.u.)
    -----------------------

    Doubly Occupied:

       1A    -15.526477     2A    -11.238560     3A    -11.211855
       4A    -11.210308     5A    -11.207425     6A    -11.205033
       7A     -1.178443     8A     -1.072305     9A     -0.998150
      10A     -0.900780    11A     -0.816953    12A     -0.788440
      13A     -0.661953    14A     -0.636637    15A     -0.625278
      16A     -0.587087    17A     -0.570551    18A     -0.549648
      19A     -0.526564    20A     -0.500361    21A     -0.483150
      22A     -0.465823    23A     -0.453119    24A     -0.450548
      25A     -0.383973

  @DF-RHF Final Energy:  -251.44322016540909

   => Energetics <=

    Nuclear Repulsion Energy =            246.6575305681771795
    One-Electron Energy =                -827.7026501535295893
    Two-Electron Energy =                 329.6018994199433791
    DFT Exchange-Correlation Energy =       0.0000000000000000
    Empirical Dispersion Energy =           0.0000000000000000
    PCM Polarization Energy =               0.0000000000000000
    EFP Energy =                            0.0000000000000000
    Total Energy =                       -251.4432201654090022
    Molecular point group: c1
  Basis Set: CC-PVTZ
  Basis Set:

  -Total Gradient:
     Atom            X                  Y                   Z
    ------   -----------------  -----------------  -----------------
       1        0.000035554190    -0.000006367304    -0.000002025034
       2        0.000059543146    -0.000017741828    -0.000030411759
       3       -0.000039854680    -0.000001895496     0.000049228030
       4       -0.000002792018     0.000007501659     0.000003993451
       5        0.000423625307     0.000891441863    -0.000323564643
       6       -0.000006018329    -0.000009908360     0.000006347226
       7       -0.000008657082     0.000004641689    -0.000007954914
       8       -0.000086828762    -0.000164129148    -0.001031441374
       9       -0.000388772210    -0.000700907707     0.000444139549
      10        0.000017575890     0.000012320488    -0.000001695603
      11       -0.000002039276     0.000015737232    -0.000007268026
      12        0.000024226984    -0.000031556176     0.000896616632
      13       -0.000004552581     0.000000778109    -0.000007377010
      14       -0.000023783288    -0.000005909023     0.000006429097
      15        0.000006049840     0.000006390045     0.000011113494
      16        0.000010126765     0.000000346364    -0.000003401840
      17        0.000001572132    -0.000008169672    -0.000000714443
      18       -0.000012288021     0.000000443363    -0.000001006721
      19       -0.000002688010     0.000006983902    -0.000001006112

  **** Optimization is complete! (in 4 steps) ****
    Final optimized geometry and variables:
    Molecular point group: c1

    Geometry (in Angstrom), charge = 0, multiplicity = 1:

    H            3.798059246027     0.150327131465     0.297215212882
    N            2.999108744359    -0.447264184141     0.313459266133
    C            1.769039457404     0.322427729564     0.397598474750
    H            3.097559585396    -1.049866640103     1.103761785560
    C            0.550932104158    -0.588560604121     0.345313135903
    H            1.741703610267     1.000894496352    -0.448941883928
    H            1.713725636552     0.940658647820     1.294858709289
    C           -0.784905309748     0.177173345787     0.395454975596
    H            0.610495669332    -1.187949631125    -0.555998243274
    H            0.606535197802    -1.291122014567     1.172231592205
    C           -1.709347177913    -0.125281577068    -0.781404946526
    H           -0.593282814148     1.246667057766     0.427558070098
    H           -1.307762010435    -0.050900942735     1.319109737426
    C           -3.028195618678     0.637045287050    -0.720788987189
    H           -1.195366603532     0.113147385493    -1.708696671712
    H           -1.909960981172    -1.192687326321    -0.812260145975
    H           -2.861156111025     1.709208170111    -0.723184918443
    H           -3.659254990450     0.399249344030    -1.569509697204
    H           -3.580623239366     0.392562606306     0.180573511296

  Mulliken Charges: (a.u.)
   Center  Symbol    Alpha    Beta     Spin     Total
       1     H     0.43027  0.43027  0.00000  0.13946
       2     N     3.69015  3.69015  0.00000 -0.38030
       3     C     3.02464  3.02464  0.00000 -0.04928
       4     H     0.43086  0.43086  0.00000  0.13829
       5     C     3.08882  3.08882  0.00000 -0.17764
       6     H     0.45682  0.45682  0.00000  0.08636
       7     H     0.46741  0.46741  0.00000  0.06517
       8     C     3.10014  3.10014  0.00000 -0.20028
       9     H     0.44885  0.44885  0.00000  0.10229
      10     H     0.45572  0.45572  0.00000  0.08856
      11     C     3.08194  3.08194  0.00000 -0.16389
      12     H     0.45633  0.45633  0.00000  0.08735
      13     H     0.45115  0.45115  0.00000  0.09770
      14     C     3.15022  3.15022  0.00000 -0.30043
      15     H     0.45375  0.45375  0.00000  0.09250
      16     H     0.45329  0.45329  0.00000  0.09342
      17     H     0.45550  0.45550  0.00000  0.08899
      18     H     0.44862  0.44862  0.00000  0.10277
      19     H     0.45553  0.45553  0.00000  0.08893

   Total alpha = 25.00000, Total beta = 25.00000, Total charge = -0.00000
