  ==> Input File <==

--------------------------------------------------------------------------
set {
	reference rhf
	basis 6-31G*
}

set_num_threads( 1 )
memory 2 gb

molecule MOL {
0 1

O	 2.178463	 0.692230	 -0.923915
C	 1.705091	 0.115954	 0.001797
C	 0.381791	 -0.609817	 0.001258
O	 2.298942	 0.031804	 1.185602
C	 -0.823008	 0.326187	 0.001381
H	 0.371250	 -1.265087	 -0.865474
H	 0.370908	 -1.265746	 0.867490
C	 -2.149452	 -0.435131	 -0.000098
H	 -0.770201	 0.977095	 -0.865636
H	 -0.771220	 0.975655	 0.869608
C	 -3.368779	 0.488503	 -0.000883
H	 -2.193746	 -1.087250	 -0.871175
H	 -2.195311	 -1.087803	 0.870418
C	 -4.693822	 -0.272754	 -0.001129
H	 -3.325798	 1.139422	 -0.871284
H	 -3.326423	 1.139959	 0.869145
H	 -4.781274	 -0.907928	 -0.878124
H	 -5.538651	 0.408946	 -0.001420
H	 -4.781694	 -0.907783	 0.875984
C	 3.554893	 0.671404	 1.321451
H	 4.271087	 0.253501	 0.628666
H	 3.869065	 0.491947	 2.337800
H	 3.462655	 1.732539	 1.139817

	symmetry c1
}
set optking {
	frozen_dihedral = ("
		15 11 8 12,
		9 5 8 12,
		9 5 3 6,
		1 2 4 20
	")
}

ee = energy('scf')
oeprop('DIPOLE', 'QUADRUPOLE', 'MULLIKEN_CHARGES')
f=open( 'psi4out.xyz', 'w' )
f.write( "23  " )
f.write( str(ee) + "\n" )
f.write( MOL.save_string_xyz() )
f.close()
--------------------------------------------------------------------------

    Molecular point group: c1

    Geometry (in Angstrom), charge = 0, multiplicity = 1:

       Center              X                  Y                   Z               Mass
    ------------   -----------------  -----------------  -----------------  -----------------
           O          2.244282723795     0.572358896483    -1.109995275049    15.994914619560
           C          1.770910723795    -0.003917103517    -0.184283275049    12.000000000000
           C          0.447610723795    -0.729688103517    -0.184822275049    12.000000000000
           O          2.364761723795    -0.088067103517     0.999521724951    15.994914619560
           C         -0.757188276205     0.206315896483    -0.184699275049    12.000000000000
           H          0.437069723795    -1.384958103517    -1.051554275049     1.007825032070
           H          0.436727723795    -1.385617103517     0.681409724951     1.007825032070
           C         -2.083632276205    -0.555002103517    -0.186178275049    12.000000000000
           H         -0.704381276205     0.857223896483    -1.051716275049     1.007825032070
           H         -0.705400276205     0.855783896483     0.683527724951     1.007825032070
           C         -3.302959276205     0.368631896483    -0.186963275049    12.000000000000
           H         -2.127926276205    -1.207121103517    -1.057255275049     1.007825032070
           H         -2.129491276205    -1.207674103517     0.684337724951     1.007825032070
           C         -4.628002276205    -0.392625103517    -0.187209275049    12.000000000000
           H         -3.259978276205     1.019550896483    -1.057364275049     1.007825032070
           H         -3.260603276205     1.020087896483     0.683064724951     1.007825032070
           H         -4.715454276205    -1.027799103517    -1.064204275049     1.007825032070
           H         -5.472831276205     0.289074896483    -0.187500275049     1.007825032070
           H         -4.715874276205    -1.027654103517     0.689903724951     1.007825032070
           C          3.620712723795     0.551532896483     1.135370724951    12.000000000000
           H          4.336906723795     0.133629896483     0.442585724951     1.007825032070
           H          3.934884723795     0.372075896483     2.151719724951     1.007825032070
           H          3.528474723795     1.612667896483     0.953736724951     1.007825032070

  Charge       = 0
  Multiplicity = 1
  Basis Set: 6-31G*
  Basis Set:

    Orbital Energies (a.u.)
    -----------------------

    Doubly Occupied:

       1A    -20.604584     2A    -20.543038     3A    -11.371041
       4A    -11.280125     5A    -11.233169     6A    -11.228534
       7A    -11.221833     8A    -11.219616     9A    -11.211893
      10A     -1.468744    11A     -1.361341    12A     -1.097083
      13A     -1.045359    14A     -0.986542    15A     -0.933644
      16A     -0.847259    17A     -0.798782    18A     -0.771747
      19A     -0.693728    20A     -0.680145    21A     -0.672299
      22A     -0.652977    23A     -0.605615    24A     -0.597706
      25A     -0.578962    26A     -0.571698    27A     -0.541463
      28A     -0.532945    29A     -0.523975    30A     -0.508274
      31A     -0.488365    32A     -0.476062    33A     -0.469559
      34A     -0.466341    35A     -0.453482    36A     -0.429207

  @DF-RHF Final Energy:  -422.97397285669882

   => Energetics <=

    Nuclear Repulsion Energy =            452.9539209179332033
    One-Electron Energy =               -1473.5216227065391195
    Two-Electron Energy =                 597.5937289319092542
    DFT Exchange-Correlation Energy =       0.0000000000000000
    Empirical Dispersion Energy =           0.0000000000000000
    PCM Polarization Energy =               0.0000000000000000
    EFP Energy =                            0.0000000000000000
    Total Energy =                       -422.9739728566967187

  Mulliken Charges: (a.u.)
   Center  Symbol    Alpha    Beta     Spin     Total
       1     O     4.28553  4.28553  0.00000 -0.57106
       2     C     2.61352  2.61352  0.00000  0.77296
       3     C     3.20020  3.20020  0.00000 -0.40039
       4     O     4.30256  4.30256  0.00000 -0.60513
       5     C     3.16227  3.16227  0.00000 -0.32454
       6     H     0.40181  0.40181  0.00000  0.19638
       7     H     0.40189  0.40189  0.00000  0.19622
       8     C     3.15280  3.15280  0.00000 -0.30560
       9     H     0.40687  0.40687  0.00000  0.18625
      10     H     0.41476  0.41476  0.00000  0.17049
      11     C     3.15253  3.15253  0.00000 -0.30506
      12     H     0.42096  0.42096  0.00000  0.15807
      13     H     0.42176  0.42176  0.00000  0.15648
      14     C     3.23989  3.23989  0.00000 -0.47977
      15     H     0.42071  0.42071  0.00000  0.15857
      16     H     0.42188  0.42188  0.00000  0.15623
      17     H     0.42098  0.42098  0.00000  0.15804
      18     H     0.41804  0.41804  0.00000  0.16391
      19     H     0.42139  0.42139  0.00000  0.15722
      20     C     3.09318  3.09318  0.00000 -0.18636
      21     H     0.40872  0.40872  0.00000  0.18256
      22     H     0.40869  0.40869  0.00000  0.18262
      23     H     0.40905  0.40905  0.00000  0.18189

   Total alpha = 36.00000, Total beta = 36.00000, Total charge =  0.00000
