  ==> Input File <==

--------------------------------------------------------------------------
set {
	reference rhf
	basis 6-31G*
}

set_num_threads( 4 )
memory 2 gb

molecule MOL {
0 1

H	 2.853277	 -0.410476	 0.069132
O	 2.015176	 -0.862539	 0.072670
C	 1.050492	 0.053836	 0.000068
C	 -0.318135	 -0.576402	 0.000164
O	 1.285966	 1.216754	 -0.056227
C	 -1.454360	 0.441875	 -0.000474
H	 -0.374042	 -1.230163	 -0.866135
H	 -0.374274	 -1.229227	 0.867154
C	 -2.826123	 -0.230780	 0.000056
H	 -1.357605	 1.085198	 -0.868380
H	 -1.357504	 1.086451	 0.866496
H	 -2.959731	 -0.858053	 -0.876869
H	 -3.619374	 0.509403	 -0.000080
H	 -2.959371	 -0.857318	 0.877556

	symmetry c1
}
set optking {
	frozen_dihedral = ("
		2 3 4 7
	")
}

ee = optimize('scf')
oeprop('DIPOLE', 'QUADRUPOLE', 'MULLIKEN_CHARGES')
f=open( 'psi4out.xyz', 'w' )
f.write( "14  " )
f.write( str(ee) + "\n" )
f.write( MOL.save_string_xyz() )
f.close()
--------------------------------------------------------------------------

    Molecular point group: c1
  Charge       = 0
  Multiplicity = 1
  Basis Set: 6-31G*
  Basis Set:
  @DF-RHF Final Energy:  -305.88086385907400
    Total Energy =                       -305.8808638590739974
    Molecular point group: c1
  Basis Set: 6-31G*
  Basis Set:
  Basis Set: 6-31G*
  Basis Set:
  @DF-RHF Final Energy:  -305.88086365795334
    Total Energy =                       -305.8808636579531708
  Basis Set: 6-31G*
  Basis Set:
  Basis Set: 6-31G*
  Basis Set:
  @DF-RHF Final Energy:  -305.88085940478470
    Total Energy =                       -305.8808594047846441
  Basis Set: 6-31G*
  Basis Set:
  Charge       = 0
  Multiplicity = 1
  Basis Set: 6-31G*
  Basis Set:

    Orbital Energies (a.u.)
    -----------------------

    Doubly Occupied:

       1A    -20.613155     2A    -20.552218     3A    -11.381792
       4A    -11.241373     5A    -11.225655     6A    -11.217135
       7A     -1.475220     8A     -1.366308     9A     -1.083202
      10A     -0.979717    11A     -0.857319    12A     -0.791265
      13A     -0.700059    14A     -0.688915    15A     -0.667491
      16A     -0.615491    17A     -0.594071    18A     -0.572936
      19A     -0.545481    20A     -0.505245    21A     -0.491581
      22A     -0.482526    23A     -0.479016    24A     -0.444766

  @DF-RHF Final Energy:  -305.88086769875525

   => Energetics <=

    Nuclear Repulsion Energy =            239.9678048965861876
    One-Electron Energy =                -892.5534715581377441
    Two-Electron Energy =                 346.7047989627963602
    DFT Exchange-Correlation Energy =       0.0000000000000000
    Empirical Dispersion Energy =           0.0000000000000000
    PCM Polarization Energy =               0.0000000000000000
    EFP Energy =                            0.0000000000000000
    Total Energy =                       -305.8808676987552531
    Molecular point group: c1
  Basis Set: 6-31G*
  Basis Set:

  -Total Gradient:
     Atom            X                  Y                   Z
    ------   -----------------  -----------------  -----------------
       1        0.000000041893    -0.000000945594    -0.000006851927
       2        0.000004137170     0.000004033240     0.000113451037
       3       -0.000019257121     0.000032222746    -0.000095404541
       4        0.000071555524    -0.000157434947     0.000124162112
       5        0.000002758015    -0.000004796548    -0.000042268904
       6        0.000008822151    -0.000011389077    -0.000024832641
       7       -0.000070156702     0.000145607455    -0.000088992425
       8        0.000003999802    -0.000010799673     0.000017491579
       9       -0.000002999158     0.000001179450     0.000003524588
      10       -0.000004564328     0.000006584038    -0.000001432126
      11        0.000004312668    -0.000004992952    -0.000000110973
      12        0.000004003903     0.000003229177     0.000001008407
      13        0.000000034480    -0.000000287329    -0.000000141855
      14       -0.000002688304    -0.000002209986     0.000000397668

  **** Optimization is complete! (in 4 steps) ****
    Final optimized geometry and variables:
    Molecular point group: c1

    Geometry (in Angstrom), charge = 0, multiplicity = 1:

    H            2.853720620800    -0.410310682420     0.054491999926
    O            2.015693749375    -0.862369572840     0.066607976807
    C            1.050449300243     0.053707674096    -0.002076953867
    C           -0.318055940744    -0.576813817195     0.001741975088
    O            1.285447244982     1.216568057737    -0.061528280377
    C           -1.454184121732     0.441675127273    -0.002740537842
    H           -0.373569639584    -1.229141574713    -0.866048025454
    H           -0.375285357294    -1.229992799771     0.867942431628
    C           -2.826045133414    -0.230768935470    -0.006171242993
    H           -1.354219983057     1.084878497552    -0.870143872245
    H           -1.360317121568     1.086279199052     0.864766925377
    H           -2.956996900007    -0.857935410524    -0.883572280812
    H           -3.619192379982     0.509522784109    -0.008785176387
    H           -2.962168191411    -0.857375668966     0.870829111982

  Mulliken Charges: (a.u.)
   Center  Symbol    Alpha    Beta     Spin     Total
       1     H     0.26776  0.26776  0.00000  0.46448
       2     O     4.35112  4.35112  0.00000 -0.70225
       3     C     2.62332  2.62332  0.00000  0.75336
       4     C     3.20934  3.20934  0.00000 -0.41868
       5     O     4.27914  4.27914  0.00000 -0.55828
       6     C     3.15247  3.15247  0.00000 -0.30494
       7     H     0.39871  0.39871  0.00000  0.20259
       8     H     0.39889  0.39889  0.00000  0.20222
       9     C     3.24292  3.24292  0.00000 -0.48584
      10     H     0.40937  0.40937  0.00000  0.18126
      11     H     0.41084  0.41084  0.00000  0.17833
      12     H     0.42083  0.42083  0.00000  0.15834
      13     H     0.41445  0.41445  0.00000  0.17110
      14     H     0.42084  0.42084  0.00000  0.15831

   Total alpha = 24.00000, Total beta = 24.00000, Total charge = -0.00000
