  ==> Input File <==

--------------------------------------------------------------------------
set {
	reference rhf
	basis 6-31G*
}

set_num_threads( 1 )
memory 2 gb

molecule MOL {
0 1

O	 -1.371851	 1.150100	 -0.450167
C	 -1.083277	 0.139568	 0.115197
C	 0.323299	 -0.082943	 0.642902
C	 -2.086892	 -0.974713	 0.312589
C	 1.355627	 -0.005344	 -0.493127
H	 0.396251	 -1.044647	 1.143147
H	 0.528637	 0.693580	 1.371677
C	 2.786168	 -0.195604	 0.007473
H	 1.132807	 -0.760304	 -1.243899
H	 1.259610	 0.958506	 -0.981915
H	 3.495561	 -0.130713	 -0.811210
H	 2.912696	 -1.165395	 0.480041
H	 3.049284	 0.565503	 0.735850
H	 -1.682477	 -1.922639	 -0.030272
H	 -2.999304	 -0.749678	 -0.221826
H	 -2.306759	 -1.084409	 1.371282

	symmetry c1
}
set optking {
	frozen_dihedral = ("
		9 5 3 2
	")
}

ee = energy('scf')
oeprop('DIPOLE', 'QUADRUPOLE', 'MULLIKEN_CHARGES')
f=open( 'psi4out.xyz', 'w' )
f.write( "16  " )
f.write( str(ee) + "\n" )
f.write( MOL.save_string_xyz() )
f.close()
--------------------------------------------------------------------------

    Molecular point group: c1

    Geometry (in Angstrom), charge = 0, multiplicity = 1:

       Center              X                  Y                   Z               Mass
    ------------   -----------------  -----------------  -----------------  -----------------
           O         -1.365206006916     1.146721320691    -0.469302883717    15.994914619560
           C         -1.076632006916     0.136189320691     0.096061116283    12.000000000000
           C          0.329943993084    -0.086321679309     0.623766116283    12.000000000000
           C         -2.080247006916    -0.978091679309     0.293453116283    12.000000000000
           C          1.362271993084    -0.008722679309    -0.512262883717    12.000000000000
           H          0.402895993084    -1.048025679309     1.124011116283     1.007825032070
           H          0.535281993084     0.690201320691     1.352541116283     1.007825032070
           C          2.792812993084    -0.198982679309    -0.011662883717    12.000000000000
           H          1.139451993084    -0.763682679309    -1.263034883717     1.007825032070
           H          1.266254993084     0.955127320691    -1.001050883717     1.007825032070
           H          3.502205993084    -0.134091679309    -0.830345883717     1.007825032070
           H          2.919340993084    -1.168773679309     0.460905116283     1.007825032070
           H          3.055928993084     0.562124320691     0.716714116283     1.007825032070
           H         -1.675832006916    -1.926017679309    -0.049407883717     1.007825032070
           H         -2.992659006916    -0.753056679309    -0.240961883717     1.007825032070
           H         -2.300114006916    -1.087787679309     1.352146116283     1.007825032070

  Charge       = 0
  Multiplicity = 1
  Basis Set: 6-31G*
  Basis Set:

    Orbital Energies (a.u.)
    -----------------------

    Doubly Occupied:

       1A    -20.548268     2A    -11.325725     3A    -11.230460
       4A    -11.228824     5A    -11.228275     6A    -11.216668
       7A     -1.394387     8A     -1.079306     9A     -1.014223
      10A     -0.948522    11A     -0.825856    12A     -0.734318
      13A     -0.658519    14A     -0.648529    15A     -0.614738
      16A     -0.603445    17A     -0.573505    18A     -0.560129
      19A     -0.542557    20A     -0.511577    21A     -0.498150
      22A     -0.481544    23A     -0.471468    24A     -0.398645

  @DF-RHF Final Energy:  -270.03026768040672

   => Energetics <=

    Nuclear Repulsion Energy =            237.0193899182094412
    One-Electron Energy =                -835.4239912047405596
    Two-Electron Energy =                 328.3743336061240257
    DFT Exchange-Correlation Energy =       0.0000000000000000
    Empirical Dispersion Energy =           0.0000000000000000
    PCM Polarization Energy =               0.0000000000000000
    EFP Energy =                            0.0000000000000000
    Total Energy =                       -270.0302676804071211

  Mulliken Charges: (a.u.)
   Center  Symbol    Alpha    Beta     Spin     Total
       1     O     4.26347  4.26347  0.00000 -0.52693
       2     C     2.73568  2.73568  0.00000  0.52864
       3     C     3.20166  3.20166  0.00000 -0.40333
       4     C     3.28947  3.28947  0.00000 -0.57893
       5     C     3.15814  3.15814  0.00000 -0.31627
       6     H     0.41657  0.41657  0.00000  0.16686
       7     H     0.40198  0.40198  0.00000  0.19604
       8     C     3.24032  3.24032  0.00000 -0.48064
       9     H     0.41991  0.41991  0.00000  0.16017
      10     H     0.40251  0.40251  0.00000  0.19498
      11     H     0.41562  0.41562  0.00000  0.16877
      12     H     0.42188  0.42188  0.00000  0.15625
      13     H     0.41919  0.41919  0.00000  0.16162
      14     H     0.40967  0.40967  0.00000  0.18065
      15     H     0.39725  0.39725  0.00000  0.20550
      16     H     0.40670  0.40670  0.00000  0.18661

   Total alpha = 24.00000, Total beta = 24.00000, Total charge =  0.00000
