                              Psi4 1.0.54 Driver

  ==> Input File <==

--------------------------------------------------------------------------
set {
	reference rhf
	basis cc-pvtz
}

set_num_threads( 4 )
memory 2 gb

molecule MOL {
0 1

H	 3.083659	 -1.378387	 0.000000
O	 2.179005	 -1.633391	 0.000000
C	 1.366950	 -0.558201	 0.000000
C	 1.637224	 0.573977	 0.753529
C	 0.233232	 -0.609222	 -0.784921
H	 2.520844	 0.612024	 1.364427
C	 0.774650	 1.650935	 0.720597
H	 0.021709	 -1.482198	 -1.368029
C	 -0.625850	 0.474572	 -0.812058
H	 0.994015	 2.521537	 1.307755
C	 -0.361620	 1.607893	 -0.061998
C	 -1.850467	 0.432282	 -1.653427
H	 -1.034220	 2.443796	 -0.089631
O	 -2.171572	 -0.482623	 -2.331114
H	 -2.466867	 1.335451	 -1.609414

	symmetry c1
}
set optking {
	frozen_dihedral = ("
		4 3 2 1
	")
}

ee,wfn = optimize('scf', return_wfn=True)
oeprop( wfn, 'DIPOLE', 'QUADRUPOLE', 'MULLIKEN_CHARGES')
f=open( 'psi4out.xyz', 'w' )
f.write( "15  " )
f.write( str(ee) + "\n" )
f.write( MOL.save_string_xyz() )
f.close()
--------------------------------------------------------------------------

    Molecular point group: c1
  Charge       = 0
  Multiplicity = 1
  Basis Set: CC-PVTZ
  Basis Set:
  @DF-RHF Final Energy:  -418.43704972763715
    Total Energy =                       -418.4370497276372589
    Molecular point group: c1
  Basis Set: CC-PVTZ
  Basis Set:
  Basis Set: CC-PVTZ
  Basis Set:
  @DF-RHF Final Energy:  -418.43719503180444
    Total Energy =                       -418.4371950318048903
  Basis Set: CC-PVTZ
  Basis Set:
  Basis Set: CC-PVTZ
  Basis Set:
  @DF-RHF Final Energy:  -418.43725869215649
    Total Energy =                       -418.4372586921564334
  Basis Set: CC-PVTZ
  Basis Set:
  Basis Set: CC-PVTZ
  Basis Set:
  @DF-RHF Final Energy:  -418.43730858702759
    Total Energy =                       -418.4373085870275872
  Basis Set: CC-PVTZ
  Basis Set:
  Basis Set: CC-PVTZ
  Basis Set:
  @DF-RHF Final Energy:  -418.43731358331348
    Total Energy =                       -418.4373135833133119
  Basis Set: CC-PVTZ
  Basis Set:
  Charge       = 0
  Multiplicity = 1
  Basis Set: CC-PVTZ
  Basis Set:

    Orbital Energies (a.u.)
    -----------------------

    Doubly Occupied:

       1A    -20.590123     2A    -20.554449     3A    -11.327793
       4A    -11.308264     5A    -11.250650     6A    -11.250484
       7A    -11.247953     8A    -11.245950     9A    -11.238720
      10A     -1.420253    11A     -1.410252    12A     -1.174668
      13A     -1.052254    14A     -1.030802    15A     -0.901486
      16A     -0.849628    17A     -0.813444    18A     -0.741423
      19A     -0.704587    20A     -0.689657    21A     -0.646238
      22A     -0.641409    23A     -0.620437    24A     -0.610985
      25A     -0.564933    26A     -0.554207    27A     -0.543990
      28A     -0.512857    29A     -0.492693    30A     -0.426910
      31A     -0.357819    32A     -0.336654

  @DF-RHF Final Energy:  -418.43731414421501

   => Energetics <=

    Nuclear Repulsion Energy =            403.8585944352058164
    One-Electron Energy =               -1370.3678794885520347
    Two-Electron Energy =                 548.0719709091314371
    DFT Exchange-Correlation Energy =       0.0000000000000000
    Empirical Dispersion Energy =           0.0000000000000000
    PCM Polarization Energy =               0.0000000000000000
    EFP Energy =                            0.0000000000000000
    Total Energy =                       -418.4373141442148381
    Molecular point group: c1
  Basis Set: CC-PVTZ
  Basis Set:

  -Total Gradient:
     Atom            X                  Y                   Z
    ------   -----------------  -----------------  -----------------
       1        0.000143486362    -0.000000370063    -0.002224030191
       2       -0.000635523091    -0.000348386398     0.003423762731
       3        0.001427697652     0.001023503023    -0.002367441299
       4       -0.000875063842    -0.000700167927     0.001219322454
       5       -0.000056380225    -0.000009259434    -0.000048099296
       6        0.000000434348     0.000005752390     0.000019936974
       7       -0.000016838057     0.000049749533    -0.000089896035
       8       -0.000000009900     0.000004976739     0.000010066116
       9        0.000034324378    -0.000028353257    -0.000054739514
      10       -0.000001691261    -0.000005743015     0.000007541914
      11       -0.000012885993     0.000001729559     0.000105355332
      12       -0.000021669812     0.000007525647     0.000026929994
      13       -0.000001294890    -0.000000885235    -0.000008680609
      14        0.000005115045     0.000004437279    -0.000004748894
      15        0.000010299287    -0.000004508845    -0.000015279685

  **** Optimization is complete! (in 6 steps) ****
    Final optimized geometry and variables:
    Molecular point group: c1

    Geometry (in Angstrom), charge = 0, multiplicity = 1:

    H            2.947482923003    -1.494493307621     0.534407642178
    O            2.041542720162    -1.744770412408     0.500576619390
    C            1.234424329629    -0.657455441684     0.466953204456
    C            1.499056557923     0.468011397505     1.234568693334
    C            0.097177340186    -0.712086572352    -0.307282833618
    H            2.376601263109     0.493031902863     1.853716717530
    C            0.636886891617     1.543659121234     1.206913438654
    H           -0.113491613781    -1.583349996790    -0.893369242284
    C           -0.772845343141     0.366851370360    -0.320485503304
    H            0.852021865563     2.411713373927     1.799327043254
    C           -0.505785685425     1.496722448200     0.430304267319
    C           -2.003141537003     0.322266490590    -1.152205120899
    H           -1.182609343336     2.329768161106     0.411663000412
    O           -2.322998921055    -0.589722931510    -1.834422569541
    H           -2.625052910709     1.221293145183    -1.096603441686

  Mulliken Charges: (a.u.)
   Center  Symbol    Alpha    Beta     Spin     Total
       1     H     0.38552  0.38552  0.00000  0.22895
       2     O     4.17783  4.17783  0.00000 -0.35566
       3     C     2.85390  2.85390  0.00000  0.29221
       4     C     3.11762  3.11762  0.00000 -0.23524
       5     C     3.11824  3.11824  0.00000 -0.23649
       6     H     0.42394  0.42394  0.00000  0.15213
       7     C     3.06477  3.06477  0.00000 -0.12953
       8     H     0.40319  0.40319  0.00000  0.19362
       9     C     2.97321  2.97321  0.00000  0.05358
      10     H     0.41926  0.41926  0.00000  0.16148
      11     C     3.10474  3.10474  0.00000 -0.20949
      12     C     2.90906  2.90906  0.00000  0.18187
      13     H     0.42286  0.42286  0.00000  0.15428
      14     O     4.16929  4.16929  0.00000 -0.33857
      15     H     0.45658  0.45658  0.00000  0.08685

   Total alpha = 32.00000, Total beta = 32.00000, Total charge = -0.00000

*** Psi4 exiting successfully. Buy a developer a beer!
