  ==> Input File <==

--------------------------------------------------------------------------
set {
	reference rhf
	basis 6-31G*
}

set_num_threads( 1 )
memory 2 gb

molecule MOL {
0 1

O	 2.600899	 1.006540	 0.661933
C	 2.701189	 0.057885	 -0.047330
C	 2.129138	 -0.065202	 -1.438875
O	 3.347903	 -1.046386	 0.304773
C	 1.384837	 1.188007	 -1.894505
H	 2.952518	 -0.312545	 -2.100734
H	 1.473930	 -0.932601	 -1.443233
C	 0.708983	 1.041444	 -3.262071
H	 2.073454	 2.027410	 -1.912596
H	 0.633651	 1.433249	 -1.151539
C	 1.670292	 0.876606	 -4.442674
H	 0.098129	 1.924966	 -3.432273
H	 0.019635	 0.198711	 -3.237352
C	 0.953193	 0.845067	 -5.793886
H	 2.388651	 1.694979	 -4.435963
H	 2.248108	 -0.038006	 -4.330486
C	 1.903497	 0.675442	 -6.980597
H	 0.382688	 1.763693	 -5.919917
H	 0.227100	 0.033601	 -5.797356
C	 1.179822	 0.648771	 -8.326436
H	 2.630365	 1.484947	 -6.978064
H	 2.471530	 -0.244471	 -6.858608
H	 1.879648	 0.527463	 -9.147493
H	 0.629903	 1.570537	 -8.494161
H	 0.469441	 -0.171853	 -8.373447
C	 4.728119	 -1.109107	 -0.004993
H	 4.882018	 -1.033965	 -1.071845
H	 5.068212	 -2.067527	 0.355250
H	 5.265056	 -0.311663	 0.488280

	symmetry c1
}
set optking {
	frozen_dihedral = ("
		21 17 14 11,
		17 14 11 15,
		15 11 8 5,
		6 3 5 9,
		11 8 5 9,
		2 4 26 27,
		6 3 2 1
	")
}

ee = energy('scf')
oeprop('DIPOLE', 'QUADRUPOLE', 'MULLIKEN_CHARGES')
f=open( 'psi4out.xyz', 'w' )
f.write( "29  " )
f.write( str(ee) + "\n" )
f.write( MOL.save_string_xyz() )
f.close()
--------------------------------------------------------------------------

    Molecular point group: c1

    Geometry (in Angstrom), charge = 0, multiplicity = 1:

       Center              X                  Y                   Z               Mass
    ------------   -----------------  -----------------  -----------------  -----------------
           O          0.453728400592     0.646865314302     3.477663470393    15.994914619560
           C          0.554018400592    -0.301789685698     2.768400470393    12.000000000000
           C         -0.018032599408    -0.424876685698     1.376855470393    12.000000000000
           O          1.200732400592    -1.406060685698     3.120503470393    15.994914619560
           C         -0.762333599408     0.828332314302     0.921225470393    12.000000000000
           H          0.805347400592    -0.672219685698     0.714996470393     1.007825032070
           H         -0.673240599408    -1.292275685698     1.372497470393     1.007825032070
           C         -1.438187599408     0.681769314302    -0.446340529607    12.000000000000
           H         -0.073716599408     1.667735314302     0.903134470393     1.007825032070
           H         -1.513519599408     1.073574314302     1.664191470393     1.007825032070
           C         -0.476878599408     0.516931314302    -1.626943529607    12.000000000000
           H         -2.049041599408     1.565291314302    -0.616542529607     1.007825032070
           H         -2.127535599408    -0.160963685698    -0.421621529607     1.007825032070
           C         -1.193977599408     0.485392314302    -2.978155529607    12.000000000000
           H          0.241480400592     1.335304314302    -1.620232529607     1.007825032070
           H          0.100937400592    -0.397680685698    -1.514755529607     1.007825032070
           C         -0.243673599408     0.315767314302    -4.164866529607    12.000000000000
           H         -1.764482599408     1.404018314302    -3.104186529607     1.007825032070
           H         -1.920070599408    -0.326073685698    -2.981625529607     1.007825032070
           C         -0.967348599408     0.289096314302    -5.510705529607    12.000000000000
           H          0.483194400592     1.125272314302    -4.162333529607     1.007825032070
           H          0.324359400592    -0.604145685698    -4.042877529607     1.007825032070
           H         -0.267522599408     0.167788314302    -6.331762529607     1.007825032070
           H         -1.517267599408     1.210862314302    -5.678430529607     1.007825032070
           H         -1.677729599408    -0.531527685698    -5.557716529607     1.007825032070
           C          2.580948400592    -1.468781685698     2.810737470393    12.000000000000
           H          2.734847400592    -1.393639685698     1.743885470393     1.007825032070
           H          2.921041400592    -2.427201685698     3.170980470393     1.007825032070
           H          3.117885400592    -0.671337685698     3.304010470393     1.007825032070

  Charge       = 0
  Multiplicity = 1
  Basis Set: 6-31G*
  Basis Set:

    Orbital Energies (a.u.)
    -----------------------

    Doubly Occupied:

       1A    -20.586914     2A    -20.554690     3A    -11.373331
       4A    -11.295272     5A    -11.236336     6A    -11.220061
       7A    -11.218978     8A    -11.218292     9A    -11.217897
      10A    -11.216399    11A    -11.210721    12A     -1.463709
      13A     -1.367027    14A     -1.099390    15A     -1.067095
      16A     -1.016334    17A     -0.981178    18A     -0.938582
      19A     -0.866776    20A     -0.802735    21A     -0.793082
      22A     -0.764956    23A     -0.699353    24A     -0.682251
      25A     -0.673656    26A     -0.653025    27A     -0.628548
      28A     -0.618602    29A     -0.596620    30A     -0.588944
      31A     -0.569316    32A     -0.550776    33A     -0.546345
      34A     -0.530840    35A     -0.519869    36A     -0.503973
      37A     -0.489978    38A     -0.480190    39A     -0.474263
      40A     -0.465323    41A     -0.464217    42A     -0.453170
      43A     -0.442067    44A     -0.431363

  @DF-RHF Final Energy:  -501.02241840312797

   => Energetics <=

    Nuclear Repulsion Energy =            614.3957324432284395
    One-Electron Energy =               -1899.6910891554541649
    Two-Electron Energy =                 784.2729383090997999
    DFT Exchange-Correlation Energy =       0.0000000000000000
    Empirical Dispersion Energy =           0.0000000000000000
    PCM Polarization Energy =               0.0000000000000000
    EFP Energy =                            0.0000000000000000
    Total Energy =                       -501.0224184031260393

  Mulliken Charges: (a.u.)
   Center  Symbol    Alpha    Beta     Spin     Total
       1     O     4.25867  4.25867  0.00000 -0.51734
       2     C     2.61452  2.61452  0.00000  0.77096
       3     C     3.21377  3.21377  0.00000 -0.42753
       4     O     4.31053  4.31053  0.00000 -0.62105
       5     C     3.15462  3.15462  0.00000 -0.30924
       6     H     0.40671  0.40671  0.00000  0.18658
       7     H     0.39913  0.39913  0.00000  0.20175
       8     C     3.15631  3.15631  0.00000 -0.31263
       9     H     0.41442  0.41442  0.00000  0.17116
      10     H     0.40737  0.40737  0.00000  0.18527
      11     C     3.15482  3.15482  0.00000 -0.30964
      12     H     0.41809  0.41809  0.00000  0.16382
      13     H     0.42356  0.42356  0.00000  0.15288
      14     C     3.15024  3.15024  0.00000 -0.30048
      15     H     0.42307  0.42307  0.00000  0.15386
      16     H     0.42521  0.42521  0.00000  0.14959
      17     C     3.15144  3.15144  0.00000 -0.30288
      18     H     0.42284  0.42284  0.00000  0.15432
      19     H     0.42366  0.42366  0.00000  0.15269
      20     C     3.23939  3.23939  0.00000 -0.47877
      21     H     0.42294  0.42294  0.00000  0.15413
      22     H     0.42400  0.42400  0.00000  0.15200
      23     H     0.41917  0.41917  0.00000  0.16167
      24     H     0.42125  0.42125  0.00000  0.15749
      25     H     0.42163  0.42163  0.00000  0.15675
      26     C     3.09336  3.09336  0.00000 -0.18672
      27     H     0.42107  0.42107  0.00000  0.15786
      28     H     0.40095  0.40095  0.00000  0.19809
      29     H     0.40729  0.40729  0.00000  0.18543

   Total alpha = 44.00000, Total beta = 44.00000, Total charge = -0.00000
