  ==> Input File <==

--------------------------------------------------------------------------
set {
	reference rhf
	basis 6-31G*
}

set_num_threads( 1 )
memory 2 gb

molecule MOL {
0 1

H	 -2.519486	 -0.240903	 0.551868
N	 -1.852125	 0.165761	 -0.074816
C	 -0.563778	 -0.502042	 0.037919
H	 -1.769963	 1.132499	 0.177020
C	 0.575259	 0.508231	 -0.048326
H	 -0.482092	 -1.204004	 -0.786564
H	 -0.460411	 -1.085169	 0.956626
C	 1.954651	 -0.143624	 0.035137
H	 0.475158	 1.060484	 -0.977307
H	 0.469181	 1.234488	 0.755973
H	 2.103292	 -0.853109	 -0.774172
H	 2.742821	 0.599562	 -0.030094
H	 2.083613	 -0.679371	 0.971560

	symmetry c1
}
set optking {
	frozen_dihedral = ("
		6 3 5 9
	")
}

ee = energy('scf')
oeprop('DIPOLE', 'QUADRUPOLE', 'MULLIKEN_CHARGES')
f=open( 'psi4out.xyz', 'w' )
f.write( "13  " )
f.write( str(ee) + "\n" )
f.write( MOL.save_string_xyz() )
f.close()
--------------------------------------------------------------------------

    Molecular point group: c1

    Geometry (in Angstrom), charge = 0, multiplicity = 1:

       Center              X                  Y                   Z               Mass
    ------------   -----------------  -----------------  -----------------  -----------------
           H         -2.524918692860    -0.251671662583     0.550164571825     1.007825032070
           N         -1.857557692860     0.154992337417    -0.076519428175    14.003074004780
           C         -0.569210692860    -0.512810662583     0.036215571825    12.000000000000
           H         -1.775395692860     1.121730337417     0.175316571825     1.007825032070
           C          0.569826307140     0.497462337417    -0.050029428175    12.000000000000
           H         -0.487524692860    -1.214772662583    -0.788267428175     1.007825032070
           H         -0.465843692860    -1.095937662583     0.954922571825     1.007825032070
           C          1.949218307140    -0.154392662583     0.033433571825    12.000000000000
           H          0.469725307140     1.049715337417    -0.979010428175     1.007825032070
           H          0.463748307140     1.223719337417     0.754269571825     1.007825032070
           H          2.097859307140    -0.863877662583    -0.775875428175     1.007825032070
           H          2.737388307140     0.588793337417    -0.031797428175     1.007825032070
           H          2.078180307140    -0.690139662583     0.969856571825     1.007825032070

  Charge       = 0
  Multiplicity = 1
  Basis Set: 6-31G*
  Basis Set:

    Orbital Energies (a.u.)
    -----------------------

    Doubly Occupied:

       1A    -15.530182     2A    -11.239152     3A    -11.218423
       4A    -11.212510     5A     -1.176990     6A     -1.037484
       7A     -0.899258     8A     -0.807303     9A     -0.652197
      10A     -0.638442    11A     -0.603885    12A     -0.555525
      13A     -0.545244    14A     -0.497598    15A     -0.480141
      16A     -0.469595    17A     -0.378441

  @DF-RHF Final Energy:  -173.27862128171984

   => Energetics <=

    Nuclear Repulsion Energy =            132.0355909758554276
    One-Electron Energy =                -494.7436631321667164
    Two-Electron Energy =                 189.4294508745913390
    DFT Exchange-Correlation Energy =       0.0000000000000000
    Empirical Dispersion Energy =           0.0000000000000000
    PCM Polarization Energy =               0.0000000000000000
    EFP Energy =                            0.0000000000000000
    Total Energy =                       -173.2786212817199498

  Mulliken Charges: (a.u.)
   Center  Symbol    Alpha    Beta     Spin     Total
       1     H     0.33286  0.33286  0.00000  0.33428
       2     N     3.92718  3.92718  0.00000 -0.85437
       3     C     3.04762  3.04762  0.00000 -0.09523
       4     H     0.33340  0.33340  0.00000  0.33321
       5     C     3.16644  3.16644  0.00000 -0.33288
       6     H     0.42002  0.42002  0.00000  0.15995
       7     H     0.43229  0.43229  0.00000  0.13542
       8     C     3.24251  3.24251  0.00000 -0.48503
       9     H     0.41423  0.41423  0.00000  0.17153
      10     H     0.42585  0.42585  0.00000  0.14830
      11     H     0.41897  0.41897  0.00000  0.16207
      12     H     0.41756  0.41756  0.00000  0.16488
      13     H     0.42107  0.42107  0.00000  0.15786

   Total alpha = 17.00000, Total beta = 17.00000, Total charge =  0.00000
