  ==> Input File <==

--------------------------------------------------------------------------
set {
	reference rhf
	basis 6-31G*
}

set_num_threads( 4 )
memory 2 gb

molecule MOL {
0 1

H	 3.893188	 0.355400	 -0.101367
N	 3.092854	 -0.246221	 -0.068770
C	 1.865559	 0.531981	 0.018834
H	 3.199514	 -0.826043	 0.741946
C	 0.645745	 -0.382037	 -0.029944
H	 1.841966	 1.207024	 -0.831236
H	 1.815756	 1.155410	 0.915079
C	 -0.679275	 0.379305	 0.025956
H	 0.698998	 -0.976915	 -0.937203
H	 0.693479	 -1.083846	 0.802235
C	 -1.841572	 -0.470969	 0.542167
H	 -0.923390	 0.752027	 -0.967692
H	 -0.568928	 1.256802	 0.661306
C	 -3.164416	 0.292615	 0.592492
H	 -1.954558	 -1.347595	 -0.091848
H	 -1.601592	 -0.842702	 1.536089
H	 -3.449413	 0.648482	 -0.393637
H	 -3.968432	 -0.336540	 0.961717
H	 -3.093815	 1.156983	 1.246920

	symmetry c1
}
set optking {
	frozen_dihedral = ("
		12 8 5 9
	")
}

ee = optimize('scf')
oeprop('DIPOLE', 'QUADRUPOLE', 'MULLIKEN_CHARGES')
f=open( 'psi4out.xyz', 'w' )
f.write( "19  " )
f.write( str(ee) + "\n" )
f.write( MOL.save_string_xyz() )
f.close()
--------------------------------------------------------------------------

    Molecular point group: c1
  Charge       = 0
  Multiplicity = 1
  Basis Set: 6-31G*
  Basis Set:
  @DF-RHF Final Energy:  -251.35001815180871
    Total Energy =                       -251.3500181518086265
    Molecular point group: c1
  Basis Set: 6-31G*
  Basis Set:
  Basis Set: 6-31G*
  Basis Set:
  @DF-RHF Final Energy:  -251.35017440937378
    Total Energy =                       -251.3501744093738353
  Basis Set: 6-31G*
  Basis Set:
  Basis Set: 6-31G*
  Basis Set:
  @DF-RHF Final Energy:  -251.35024246603871
    Total Energy =                       -251.3502424660387078
  Basis Set: 6-31G*
  Basis Set:
  Basis Set: 6-31G*
  Basis Set:
  @DF-RHF Final Energy:  -251.35024476027510
    Total Energy =                       -251.3502447602754728
  Basis Set: 6-31G*
  Basis Set:
  Charge       = 0
  Multiplicity = 1
  Basis Set: 6-31G*
  Basis Set:

    Orbital Energies (a.u.)
    -----------------------

    Doubly Occupied:

       1A    -15.532371     2A    -11.239607     3A    -11.214017
       4A    -11.212706     5A    -11.209357     6A    -11.207462
       7A     -1.176526     8A     -1.072460     9A     -0.998017
      10A     -0.900030    11A     -0.812902    12A     -0.789117
      13A     -0.664291    14A     -0.642141    15A     -0.615185
      16A     -0.591724    17A     -0.561880    18A     -0.547589
      19A     -0.534377    20A     -0.494018    21A     -0.484255
      22A     -0.464797    23A     -0.460475    24A     -0.447983
      25A     -0.380968

  @DF-RHF Final Energy:  -251.35024555330466

   => Energetics <=

    Nuclear Repulsion Energy =            245.6843969730794583
    One-Electron Energy =                -825.5607736476659966
    Two-Electron Energy =                 328.5261311212818782
    DFT Exchange-Correlation Energy =       0.0000000000000000
    Empirical Dispersion Energy =           0.0000000000000000
    PCM Polarization Energy =               0.0000000000000000
    EFP Energy =                            0.0000000000000000
    Total Energy =                       -251.3502455533046032
    Molecular point group: c1
  Basis Set: 6-31G*
  Basis Set:

  -Total Gradient:
     Atom            X                  Y                   Z
    ------   -----------------  -----------------  -----------------
       1       -0.000003962695     0.000003475484    -0.000004000117
       2       -0.000004764487    -0.000008535430    -0.000016997789
       3        0.000004632982     0.000016530474     0.000070605927
       4       -0.000007919933     0.000006253716    -0.000000693103
       5       -0.002227329214    -0.003924153630     0.001848679899
       6        0.000004519501    -0.000015029674    -0.000000571727
       7        0.000010202419     0.000019085213     0.000004172791
       8        0.002472066581     0.004147483840     0.000425414152
       9        0.001452737172     0.002612676821    -0.001640059399
      10       -0.000007500926     0.000014523729    -0.000018041024
      11        0.000007029104    -0.000002100059     0.000029125021
      12       -0.001710437643    -0.002862924311    -0.000674853193
      13        0.000014386525    -0.000009796430    -0.000009829380
      14       -0.000000650976     0.000000655681    -0.000007366452
      15        0.000000630460     0.000008093315    -0.000003007543
      16       -0.000003559698    -0.000005243833     0.000003939810
      17       -0.000007060016     0.000001808669    -0.000003330442
      18        0.000003635409    -0.000000340229     0.000000421500
      19        0.000003345438    -0.000002463347    -0.000003608930

  **** Optimization is complete! (in 5 steps) ****
    Final optimized geometry and variables:
    Molecular point group: c1

    Geometry (in Angstrom), charge = 0, multiplicity = 1:

    H            3.872070827502     0.333474728675    -0.375854309961
    N            3.073347221241    -0.268883245186    -0.323359386141
    C            1.852040950314     0.505853336849    -0.159466676471
    H            3.215935295085    -0.870578584174     0.465703935278
    C            0.628952620478    -0.407567829180    -0.168764581085
    H            1.786977501554     1.199858525517    -0.992339825095
    H            1.845258385046     1.109229972075     0.751651222806
    C           -0.692406717023     0.367976001658    -0.111562891530
    H            0.675070862970    -1.000154345126    -1.077035771091
    H            0.694253836935    -1.096991905953     0.671423866272
    C           -1.868655829775    -0.486779660848     0.368557877619
    H           -0.928861460596     0.742609147390    -1.105300092163
    H           -0.592942399774     1.234038065079     0.540048195965
    C           -3.198462620569     0.265840461510     0.359292286295
    H           -1.949520747931    -1.371191701106    -0.260036013804
    H           -1.664118599574    -0.846212689767     1.374809588393
    H           -3.451791653810     0.602660036612    -0.642026828855
    H           -4.010017868081    -0.363653291450     0.711197021925
    H           -3.157562712953     1.141859314805     1.000793964047

  Mulliken Charges: (a.u.)
   Center  Symbol    Alpha    Beta     Spin     Total
       1     H     0.33248  0.33248  0.00000  0.33504
       2     N     3.92199  3.92199  0.00000 -0.84398
       3     C     3.06124  3.06124  0.00000 -0.12248
       4     H     0.33540  0.33540  0.00000  0.32920
       5     C     3.15268  3.15268  0.00000 -0.30536
       6     H     0.42093  0.42093  0.00000  0.15814
       7     H     0.43479  0.43479  0.00000  0.13041
       8     C     3.15538  3.15538  0.00000 -0.31075
       9     H     0.41160  0.41160  0.00000  0.17680
      10     H     0.42695  0.42695  0.00000  0.14609
      11     C     3.15181  3.15181  0.00000 -0.30361
      12     H     0.42169  0.42169  0.00000  0.15662
      13     H     0.42435  0.42435  0.00000  0.15130
      14     C     3.23949  3.23949  0.00000 -0.47898
      15     H     0.42202  0.42202  0.00000  0.15596
      16     H     0.42370  0.42370  0.00000  0.15261
      17     H     0.42173  0.42173  0.00000  0.15654
      18     H     0.41944  0.41944  0.00000  0.16111
      19     H     0.42232  0.42232  0.00000  0.15535

   Total alpha = 25.00000, Total beta = 25.00000, Total charge = -0.00000
