                              Psi4 1.0.54 Driver

  ==> Input File <==

--------------------------------------------------------------------------
set {
	reference rhf
	basis cc-pvtz
}

set_num_threads( 4 )
memory 2 gb

molecule MOL {
0 1

O	 -2.817697	 1.304178	 0.001046
C	 -2.664672	 0.129869	 0.003507
C	 -3.797908	 -0.860100	 -0.001145
O	 -1.481217	 -0.452708	 0.001092
H	 -4.408836	 -0.679689	 -0.875387
H	 -3.443486	 -1.878443	 -0.002770
H	 -4.412123	 -0.683688	 0.871605
C	 -0.332055	 0.384012	 -0.000250
C	 0.892252	 -0.506059	 -0.000295
H	 -0.360822	 1.020205	 -0.874146
H	 -0.359817	 1.021310	 0.872861
C	 0.648972	 -1.817720	 -0.741052
H	 1.180439	 -0.708043	 1.026262
H	 1.717326	 0.030410	 -0.457590
C	 1.870842	 -2.732038	 -0.754620
H	 -0.185240	 -2.343415	 -0.283108
H	 0.350172	 -1.605941	 -1.764694
C	 1.628523	 -4.042374	 -1.495775
H	 2.169329	 -2.945812	 0.267760
H	 2.705084	 -2.207843	 -1.212164
H	 0.821421	 -4.606256	 -1.040288
H	 2.513955	 -4.667225	 -1.487025
H	 1.361005	 -3.862546	 -2.531608

	symmetry c1
}
set optking {
	frozen_dihedral = ("
		13 9 8 10
	")
}

ee,wfn = optimize('scf', return_wfn=True)
oeprop( wfn, 'DIPOLE', 'QUADRUPOLE', 'MULLIKEN_CHARGES')
f=open( 'psi4out.xyz', 'w' )
f.write( "23  " )
f.write( str(ee) + "\n" )
f.write( MOL.save_string_xyz() )
f.close()
--------------------------------------------------------------------------

    Molecular point group: c1
  Charge       = 0
  Multiplicity = 1
  Basis Set: CC-PVTZ
  Basis Set:
  @DF-RHF Final Energy:  -423.12835701112022
    Total Energy =                       -423.1283570111199879
    Molecular point group: c1
  Basis Set: CC-PVTZ
  Basis Set:
  Basis Set: CC-PVTZ
  Basis Set:
  @DF-RHF Final Energy:  -423.12873589560638
    Total Energy =                       -423.1287358956063827
  Basis Set: CC-PVTZ
  Basis Set:
  Basis Set: CC-PVTZ
  Basis Set:
  @DF-RHF Final Energy:  -423.13074363678930
    Total Energy =                       -423.1307436367890205
  Basis Set: CC-PVTZ
  Basis Set:
  Basis Set: CC-PVTZ
  Basis Set:
  @DF-RHF Final Energy:  -423.13057894091918
    Total Energy =                       -423.1305789409188947
  Basis Set: CC-PVTZ
  Basis Set:
  Basis Set: CC-PVTZ
  Basis Set:
  @DF-RHF Final Energy:  -423.13083777978551
    Total Energy =                       -423.1308377797860203
  Basis Set: CC-PVTZ
  Basis Set:
  Basis Set: CC-PVTZ
  Basis Set:
  @DF-RHF Final Energy:  -423.13087901433971
    Total Energy =                       -423.1308790143400529
  Basis Set: CC-PVTZ
  Basis Set:
  Charge       = 0
  Multiplicity = 1
  Basis Set: CC-PVTZ
  Basis Set:

    Orbital Energies (a.u.)
    -----------------------

    Doubly Occupied:

       1A    -20.596922     2A    -20.530434     3A    -11.367339
       4A    -11.280058     5A    -11.231492     6A    -11.223677
       7A    -11.217051     8A    -11.215936     9A    -11.209250
      10A     -1.472377    11A     -1.365169    12A     -1.091535
      13A     -1.041993    14A     -1.003466    15A     -0.932452
      16A     -0.844906    17A     -0.807193    18A     -0.769301
      19A     -0.691715    20A     -0.689263    21A     -0.670432
      22A     -0.644609    23A     -0.607030    24A     -0.589189
      25A     -0.581486    26A     -0.568150    27A     -0.560857
      28A     -0.532265    29A     -0.528648    30A     -0.515152
      31A     -0.490931    32A     -0.474985    33A     -0.467838
      34A     -0.459856    35A     -0.449088    36A     -0.441703

  @DF-RHF Final Energy:  -423.13087924492817

   => Energetics <=

    Nuclear Repulsion Energy =            459.9248526035625559
    One-Electron Energy =               -1487.7839532540956498
    Two-Electron Energy =                 604.7282214056043586
    DFT Exchange-Correlation Energy =       0.0000000000000000
    Empirical Dispersion Energy =           0.0000000000000000
    PCM Polarization Energy =               0.0000000000000000
    EFP Energy =                            0.0000000000000000
    Total Energy =                       -423.1308792449286784
    Molecular point group: c1
  Basis Set: CC-PVTZ
  Basis Set:

  -Total Gradient:
     Atom            X                  Y                   Z
    ------   -----------------  -----------------  -----------------
       1       -0.000044368226     0.000073414515    -0.000031814200
       2        0.000086363083    -0.000122724781     0.000058650974
       3       -0.000012524424     0.000023158564    -0.000034968322
       4       -0.000104293799    -0.000005759777    -0.000031699002
       5       -0.000004450178     0.000004798078     0.000004850158
       6        0.000007641520    -0.000005360186    -0.000000560948
       7       -0.000000771225    -0.000000377700     0.000014729438
       8       -0.003081963914    -0.004419193227    -0.003806132403
       9       -0.003767090585    -0.004922242011     0.000933084762
      10        0.003203870528     0.004456526644     0.002999060745
      11        0.000027139358     0.000013406061     0.000003411314
      12       -0.000017459125    -0.000004170699     0.000045170381
      13        0.003687875222     0.004915436315    -0.000143114302
      14        0.000017049220     0.000005439770    -0.000002564099
      15       -0.000002226782    -0.000009337166     0.000005124870
      16       -0.000004137931    -0.000008260230     0.000014287682
      17       -0.000006953930    -0.000008789362    -0.000007268610
      18        0.000010337094     0.000016083495    -0.000017618950
      19       -0.000010304888    -0.000008559155     0.000002342424
      20        0.000014163487     0.000010795022     0.000005723185
      21       -0.000003645559     0.000000562409     0.000008278939
      22        0.000010631306    -0.000000708039    -0.000008137195
      23       -0.000004880256    -0.000004138541    -0.000010836845

  **** Optimization is complete! (in 7 steps) ****
    Final optimized geometry and variables:
    Molecular point group: c1

    Geometry (in Angstrom), charge = 0, multiplicity = 1:

    O           -2.133333651060     2.315102716703     0.273992274531
    C           -2.046351465789     1.136956488601     0.353974872199
    C           -3.233348652157     0.216423603236     0.444808342351
    O           -0.897473633878     0.488524323696     0.372142214480
    H           -3.852113608096     0.366252266856    -0.429766347554
    H           -2.937642960283    -0.818271466959     0.513785363854
    H           -3.817256421695     0.492817144990     1.312459991950
    C            0.293006995119     1.255941807024     0.293255727084
    C            1.510791998784     0.343790569337     0.349777645861
    H            0.290944034564     1.859393919774    -0.603876633370
    H            0.310114768759     1.952468734938     1.120346265867
    C            1.393177869862    -0.964015228830    -0.425237678226
    H            1.789576268036     0.165796899958     1.383510306545
    H            2.335501696206     0.922312920934    -0.059714947091
    C            2.697672298964    -1.755939160552    -0.442110671140
    H            0.606781407902    -1.572989344191     0.004508346613
    H            1.088943789536    -0.749776195195    -1.447038666184
    C            2.586881190190    -3.070368513874    -1.207218550984
    H            3.006765074885    -1.959608201578     0.579610564199
    H            3.483878867944    -1.148668632769    -0.882387383329
    H            1.834000008064    -3.716281967308    -0.768002273059
    H            3.527859775209    -3.608297891760    -1.201895308296
    H            2.310114231510    -2.898565271010    -2.242112934269

  Mulliken Charges: (a.u.)
   Center  Symbol    Alpha    Beta     Spin     Total
       1     O     4.20260  4.20260  0.00000 -0.40521
       2     C     2.81158  2.81158  0.00000  0.37684
       3     C     3.13955  3.13955  0.00000 -0.27910
       4     O     4.14515  4.14515  0.00000 -0.29030
       5     H     0.44195  0.44195  0.00000  0.11610
       6     H     0.44215  0.44215  0.00000  0.11571
       7     H     0.44177  0.44177  0.00000  0.11645
       8     C     2.99058  2.99058  0.00000  0.01885
       9     C     3.09506  3.09506  0.00000 -0.19011
      10     H     0.45119  0.45119  0.00000  0.09762
      11     H     0.44774  0.44774  0.00000  0.10452
      12     C     3.08326  3.08326  0.00000 -0.16653
      13     H     0.44993  0.44993  0.00000  0.10013
      14     H     0.45373  0.45373  0.00000  0.09255
      15     C     3.08637  3.08637  0.00000 -0.17275
      16     H     0.44635  0.44635  0.00000  0.10731
      17     H     0.45473  0.45473  0.00000  0.09054
      18     C     3.14960  3.14960  0.00000 -0.29920
      19     H     0.45419  0.45419  0.00000  0.09162
      20     H     0.45455  0.45455  0.00000  0.09090
      21     H     0.45498  0.45498  0.00000  0.09005
      22     H     0.44808  0.44808  0.00000  0.10384
      23     H     0.45492  0.45492  0.00000  0.09016

   Total alpha = 36.00000, Total beta = 36.00000, Total charge =  0.00000

*** Psi4 exiting successfully. Buy a developer a beer!
