                              Psi4 1.0.54 Driver

  ==> Input File <==

--------------------------------------------------------------------------
set {
	reference rhf
	basis cc-pvtz
}

set_num_threads( 4 )
memory 2 gb

molecule MOL {
0 1

H	 -3.258660	 -0.290394	 1.471450
C	 -3.307964	 -0.275695	 0.374072
C	 -2.653809	 0.914422	 -0.273689
O	 -3.855140	 -1.148880	 -0.205112
C	 -3.609367	 1.695420	 -1.180676
H	 -2.236938	 1.543138	 0.502372
H	 -1.829871	 0.529036	 -0.870270
C	 -4.733386	 2.400190	 -0.424328
H	 -3.033455	 2.428243	 -1.735325
H	 -4.033650	 1.021874	 -1.921294
C	 -5.670722	 3.182949	 -1.340009
H	 -4.299054	 3.073724	 0.309712
H	 -5.309793	 1.672190	 0.140647
C	 -6.786823	 3.896586	 -0.579557
H	 -5.088369	 3.902155	 -1.907419
H	 -6.111200	 2.504324	 -2.067158
C	 -7.799666	 4.627800	 -1.462381
H	 -6.348350	 4.602892	 0.121626
H	 -7.319371	 3.165213	 0.021934
C	 -7.233895	 5.819493	 -2.231053
H	 -8.613479	 4.975000	 -0.833451
H	 -8.239310	 3.922765	 -2.163054
H	 -6.781349	 6.538843	 -1.555973
H	 -6.479600	 5.519317	 -2.948421
H	 -8.017575	 6.330166	 -2.778798

	symmetry c1
}
set optking {
	frozen_dihedral = ("
		6 3 2 4
	")
}

ee,wfn = optimize('scf', return_wfn=True)
oeprop( wfn, 'DIPOLE', 'QUADRUPOLE', 'MULLIKEN_CHARGES')
f=open( 'psi4out.xyz', 'w' )
f.write( "25  " )
f.write( str(ee) + "\n" )
f.write( MOL.save_string_xyz() )
f.close()
--------------------------------------------------------------------------

    Molecular point group: c1
  Charge       = 0
  Multiplicity = 1
  Basis Set: CC-PVTZ
  Basis Set:
  @DF-RHF Final Energy:  -387.25822481965690
    Total Energy =                       -387.2582248196570163
    Molecular point group: c1
  Basis Set: CC-PVTZ
  Basis Set:
  Basis Set: CC-PVTZ
  Basis Set:
  @DF-RHF Final Energy:  -387.25755632615960
    Total Energy =                       -387.2575563261599427
  Basis Set: CC-PVTZ
  Basis Set:
  Basis Set: CC-PVTZ
  Basis Set:
  @DF-RHF Final Energy:  -387.25847175898173
    Total Energy =                       -387.2584717589818410
  Basis Set: CC-PVTZ
  Basis Set:
  Basis Set: CC-PVTZ
  Basis Set:
  @DF-RHF Final Energy:  -387.25859106700807
    Total Energy =                       -387.2585910670078420
  Basis Set: CC-PVTZ
  Basis Set:
  Basis Set: CC-PVTZ
  Basis Set:
  @DF-RHF Final Energy:  -387.25859225869345
    Total Energy =                       -387.2585922586932838
  Basis Set: CC-PVTZ
  Basis Set:
  Charge       = 0
  Multiplicity = 1
  Basis Set: CC-PVTZ
  Basis Set:

    Orbital Energies (a.u.)
    -----------------------

    Doubly Occupied:

       1A    -20.551729     2A    -11.322071     3A    -11.233507
       4A    -11.225679     5A    -11.219079     6A    -11.214553
       7A    -11.214398     8A    -11.213266     9A    -11.207293
      10A     -1.407290    11A     -1.100890    12A     -1.067165
      13A     -1.011835    14A     -0.942445    15A     -0.877198
      16A     -0.823235    17A     -0.780549    18A     -0.768737
      19A     -0.689077    20A     -0.652714    21A     -0.633090
      22A     -0.624267    23A     -0.600253    24A     -0.594010
      25A     -0.576367    26A     -0.547996    27A     -0.533985
      28A     -0.526799    29A     -0.504144    30A     -0.495683
      31A     -0.488587    32A     -0.476366    33A     -0.462978
      34A     -0.457104    35A     -0.440092    36A     -0.411617

  @DF-RHF Final Energy:  -387.25859239972277

   => Energetics <=

    Nuclear Repulsion Energy =            442.0332167536089969
    One-Electron Energy =               -1400.7915243642501082
    Two-Electron Energy =                 571.4997152109177705
    DFT Exchange-Correlation Energy =       0.0000000000000000
    Empirical Dispersion Energy =           0.0000000000000000
    PCM Polarization Energy =               0.0000000000000000
    EFP Energy =                            0.0000000000000000
    Total Energy =                       -387.2585923997233976
    Molecular point group: c1
  Basis Set: CC-PVTZ
  Basis Set:

  -Total Gradient:
     Atom            X                  Y                   Z
    ------   -----------------  -----------------  -----------------
       1        0.000030937618     0.000007106935     0.000094676904
       2       -0.001325020059     0.000852933507     0.000022376654
       3       -0.000850971465     0.000474829949     0.000113171804
       4        0.001049554633    -0.000733756715    -0.000139501728
       5        0.000056238586     0.000017316356     0.000049214348
       6        0.001046894768    -0.000574293160    -0.000077720057
       7        0.000028751008    -0.000011595759    -0.000034640941
       8        0.000001982298     0.000002238741     0.000003404927
       9       -0.000009904945    -0.000013146789    -0.000026071185
      10       -0.000005287955    -0.000006613294    -0.000012338651
      11       -0.000004811390     0.000000334673    -0.000004013261
      12       -0.000012765374    -0.000022437791     0.000000746595
      13       -0.000005781784     0.000014103369     0.000001139699
      14       -0.000006004890    -0.000002210449     0.000006348440
      15        0.000004112751     0.000004612707    -0.000013263848
      16       -0.000001319591    -0.000006804385     0.000002860658
      17       -0.000004677899     0.000016174637     0.000017410737
      18       -0.000008765970    -0.000004799065     0.000006259778
      19        0.000000556812    -0.000001339175    -0.000006708851
      20        0.000005308260    -0.000007180238    -0.000000569906
      21        0.000001381649     0.000005266701     0.000000255606
      22       -0.000003424462    -0.000001147042     0.000003911190
      23       -0.000004183211    -0.000001936154    -0.000000748093
      24        0.000016306911    -0.000005953261    -0.000001714393
      25        0.000000893701    -0.000001704299    -0.000004486424

  **** Optimization is complete! (in 6 steps) ****
    Final optimized geometry and variables:
    Molecular point group: c1

    Geometry (in Angstrom), charge = 0, multiplicity = 1:

    H            1.904423150234    -2.650355147671     2.309969685182
    C            1.829164223152    -2.590211492557     1.218028362674
    C            2.450791534697    -1.378041691222     0.560517794163
    O            1.304211590165    -3.462209958225     0.615395531613
    C            1.480427723825    -0.621256495585    -0.350058914540
    H            2.866016757650    -0.725469286738     1.320731439431
    H            3.284136658680    -1.749128933984    -0.028816760817
    C            0.340701859062     0.063769823760     0.400804677147
    H            2.042655882059     0.122280096567    -0.905590674802
    H            1.076195080503    -1.316613040466    -1.076123345423
    C           -0.607452719380     0.825115932415    -0.521811847958
    H            0.755491251023     0.750409611683     1.135404566150
    H           -0.226535897810    -0.677158111011     0.958087852349
    C           -1.743554653437     1.516237348783     0.229702357928
    H           -0.036728082379     1.555421582052    -1.086909565052
    H           -1.027474070072     0.134622632186    -1.249111187548
    C           -2.766082900983     2.223433676774    -0.661476622568
    H           -1.325618428484     2.233931633059     0.932284050662
    H           -2.264590402395     0.774538790675     0.828765541356
    C           -2.220012293131     3.423352485945    -1.431595474799
    H           -3.590659382374     2.556414351966    -0.038741887315
    H           -3.186698184599     1.506769845426    -1.361813544135
    H           -1.785982181491     4.154415878790    -0.756803814909
    H           -1.455715916726     3.135534167405    -2.143342570324
    H           -3.010655250389     3.915971698397    -1.985880409692

  Mulliken Charges: (a.u.)
   Center  Symbol    Alpha    Beta     Spin     Total
       1     H     0.45439  0.45439  0.00000  0.09122
       2     C     2.91392  2.91392  0.00000  0.17215
       3     C     3.09854  3.09854  0.00000 -0.19707
       4     O     4.16936  4.16936  0.00000 -0.33871
       5     C     3.09629  3.09629  0.00000 -0.19258
       6     H     0.44740  0.44740  0.00000  0.10521
       7     H     0.43705  0.43705  0.00000  0.12590
       8     C     3.09379  3.09379  0.00000 -0.18758
       9     H     0.44635  0.44635  0.00000  0.10729
      10     H     0.44198  0.44198  0.00000  0.11603
      11     C     3.09354  3.09354  0.00000 -0.18707
      12     H     0.45517  0.45517  0.00000  0.08967
      13     H     0.44964  0.44964  0.00000  0.10071
      14     C     3.09520  3.09520  0.00000 -0.19041
      15     H     0.45209  0.45209  0.00000  0.09583
      16     H     0.45139  0.45139  0.00000  0.09722
      17     C     3.09068  3.09068  0.00000 -0.18135
      18     H     0.45471  0.45471  0.00000  0.09058
      19     H     0.44856  0.44856  0.00000  0.10287
      20     C     3.15277  3.15277  0.00000 -0.30553
      21     H     0.44828  0.44828  0.00000  0.10344
      22     H     0.45382  0.45382  0.00000  0.09237
      23     H     0.45526  0.45526  0.00000  0.08949
      24     H     0.45385  0.45385  0.00000  0.09231
      25     H     0.44599  0.44599  0.00000  0.10802

   Total alpha = 36.00000, Total beta = 36.00000, Total charge = -0.00000

*** Psi4 exiting successfully. Buy a developer a beer!
