  ==> Input File <==

--------------------------------------------------------------------------
set {
	reference rhf
	basis 6-31G*
}

set_num_threads( 4 )
memory 2 gb

molecule MOL {
0 1

H	 -4.093300	 -0.311644	 -1.328267
O	 -3.452007	 0.283848	 -0.965577
C	 -3.181085	 -0.079926	 0.364119
C	 -1.765924	 0.277073	 0.805136
H	 -3.327791	 -1.152017	 0.410903
H	 -3.905698	 0.375695	 1.036898
C	 -0.677594	 -0.417312	 -0.014550
H	 -1.637766	 1.358238	 0.744969
H	 -1.659588	 0.017670	 1.857098
C	 0.738335	 -0.034840	 0.421385
H	 -0.814977	 -0.178223	 -1.064632
H	 -0.802730	 -1.495410	 0.071702
C	 1.822265	 -0.738362	 -0.399735
H	 0.853533	 1.043532	 0.342250
H	 0.871597	 -0.279636	 1.474438
C	 3.258060	 -0.455774	 0.057203
H	 1.718003	 -0.459167	 -1.447053
H	 1.651028	 -1.811884	 -0.354513
C	 3.709143	 0.994797	 -0.123830
H	 3.930637	 -1.101717	 -0.501982
H	 3.365259	 -0.739518	 1.102287
H	 3.601178	 1.310569	 -1.158127
H	 4.753787	 1.110486	 0.148516
H	 3.135362	 1.678896	 0.492569

	symmetry c1
}
set optking {
	frozen_dihedral = ("
		1 2 3 5
	")
}

ee = optimize('scf')
oeprop('DIPOLE', 'QUADRUPOLE', 'MULLIKEN_CHARGES')
f=open( 'psi4out.xyz', 'w' )
f.write( "24  " )
f.write( str(ee) + "\n" )
f.write( MOL.save_string_xyz() )
f.close()
--------------------------------------------------------------------------

    Molecular point group: c1
  Charge       = 0
  Multiplicity = 1
  Basis Set: 6-31G*
  Basis Set:
  @DF-RHF Final Energy:  -349.24526252085201
    Total Energy =                       -349.2452625208519521
    Molecular point group: c1
  Basis Set: 6-31G*
  Basis Set:
  Basis Set: 6-31G*
  Basis Set:
  @DF-RHF Final Energy:  -349.24660951597087
    Total Energy =                       -349.2466095159711017
  Basis Set: 6-31G*
  Basis Set:
  Basis Set: 6-31G*
  Basis Set:
  @DF-RHF Final Energy:  -349.24696917279311
    Total Energy =                       -349.2469691727931149
  Basis Set: 6-31G*
  Basis Set:
  Basis Set: 6-31G*
  Basis Set:
  @DF-RHF Final Energy:  -349.24697553064487
    Total Energy =                       -349.2469755306453294
  Basis Set: 6-31G*
  Basis Set:
  Basis Set: 6-31G*
  Basis Set:
  @DF-RHF Final Energy:  -349.24697656879709
    Total Energy =                       -349.2469765687970948
  Basis Set: 6-31G*
  Basis Set:
  Charge       = 0
  Multiplicity = 1
  Basis Set: 6-31G*
  Basis Set:

    Orbital Energies (a.u.)
    -----------------------

    Doubly Occupied:

       1A    -20.552369     2A    -11.268025     3A    -11.212059
       4A    -11.211656     5A    -11.209570     6A    -11.208765
       7A    -11.207360     8A    -11.205010     9A     -1.358796
      10A     -1.085635    11A     -1.046186    12A     -0.984289
      13A     -0.912694    14A     -0.844259    15A     -0.788672
      16A     -0.773718    17A     -0.705816    18A     -0.639387
      19A     -0.634610    20A     -0.608642    21A     -0.591286
      22A     -0.575536    23A     -0.556997    24A     -0.534736
      25A     -0.513923    26A     -0.504291    27A     -0.495285
      28A     -0.472815    29A     -0.465767    30A     -0.457390
      31A     -0.449530    32A     -0.448341    33A     -0.419474

  @DF-RHF Final Energy:  -349.24697613381977

   => Energetics <=

    Nuclear Repulsion Energy =            384.6048049664459541
    One-Electron Energy =               -1235.8177816784725565
    Two-Electron Energy =                 501.9660005782068879
    DFT Exchange-Correlation Energy =       0.0000000000000000
    Empirical Dispersion Energy =           0.0000000000000000
    PCM Polarization Energy =               0.0000000000000000
    EFP Energy =                            0.0000000000000000
    Total Energy =                       -349.2469761338197145
    Molecular point group: c1
  Basis Set: 6-31G*
  Basis Set:

  -Total Gradient:
     Atom            X                  Y                   Z
    ------   -----------------  -----------------  -----------------
       1        0.001146223233    -0.000910537340    -0.000507347851
       2       -0.001762653908     0.001139064370     0.000677406193
       3        0.001956449788    -0.000404609743    -0.000509068213
       4       -0.000033715001    -0.000039476550     0.000096061848
       5       -0.001321047100     0.000221402683     0.000265415389
       6        0.000016470097    -0.000014126942     0.000030875416
       7       -0.000019133767    -0.000042798073    -0.000007881837
       8       -0.000042748630     0.000011219544    -0.000006202858
       9        0.000028487327     0.000013723180    -0.000021246086
      10        0.000002331036    -0.000004940257    -0.000008645078
      11        0.000009648489    -0.000001105154     0.000000237033
      12       -0.000001075275     0.000009033643    -0.000002447588
      13        0.000006182914     0.000027133426    -0.000008014600
      14       -0.000025188197    -0.000027443617    -0.000009219266
      15        0.000006775364     0.000006420667     0.000005214193
      16       -0.000009869576     0.000000142640     0.000029566435
      17        0.000001903707     0.000023861872     0.000001441753
      18        0.000004845399    -0.000000226089    -0.000018324109
      19        0.000016446477     0.000001822481    -0.000010569276
      20       -0.000003698318    -0.000014428342     0.000011273075
      21       -0.000005920666     0.000014781138     0.000008347080
      22       -0.000004104945     0.000006802666    -0.000005134772
      23        0.000000441308    -0.000005741075    -0.000007625652
      24        0.000032950251    -0.000009975128    -0.000004111229

  **** Optimization is complete! (in 6 steps) ****
    Final optimized geometry and variables:
    Molecular point group: c1

    Geometry (in Angstrom), charge = 0, multiplicity = 1:

    H           -4.033579942253    -0.188527194319    -1.374698021759
    O           -3.399546527384     0.362541544814    -0.940882565113
    C           -3.179153804213    -0.096436261719     0.371144456841
    C           -1.769281911205     0.271984852053     0.801207600969
    H           -3.322759608326    -1.173836658761     0.429551580136
    H           -3.900492045027     0.359167235620     1.046476252586
    C           -0.679038635574    -0.427653968633    -0.011069603589
    H           -1.659457223100     1.349989753208     0.714461326413
    H           -1.659647055147     0.028508245060     1.856518847120
    C            0.734563815843    -0.032161260266     0.420850881794
    H           -0.817943826988    -0.195418008069    -1.062059374610
    H           -0.795839759115    -1.506469714692     0.087202386604
    C            1.823187863401    -0.733728035079    -0.395677564978
    H            0.840538463714     1.046057383805     0.332620617627
    H            0.870664680720    -0.267877114954     1.475735575017
    C            3.257231485573    -0.438501932491     0.058871871357
    H            1.716843916659    -0.461956501067    -1.444708056213
    H            1.659625244653    -1.808365004355    -0.343383164621
    C            3.700798349089     1.012189038518    -0.138851918478
    H            3.933733425552    -1.087494711706    -0.492106611968
    H            3.364949347288    -0.709352016793     1.107367871502
    H            3.591339362252     1.315422771441    -1.176685427486
    H            4.744815275884     1.136404064853     0.132373046956
    H            3.123072864531     1.700244155109     0.469205355359

  Mulliken Charges: (a.u.)
   Center  Symbol    Alpha    Beta     Spin     Total
       1     H     0.27994  0.27994  0.00000  0.44013
       2     O     4.37083  4.37083  0.00000 -0.74166
       3     C     2.99786  2.99786  0.00000  0.00429
       4     C     3.15928  3.15928  0.00000 -0.31856
       5     H     0.43304  0.43304  0.00000  0.13392
       6     H     0.42647  0.42647  0.00000  0.14706
       7     C     3.15442  3.15442  0.00000 -0.30883
       8     H     0.41457  0.41457  0.00000  0.17086
       9     H     0.42451  0.42451  0.00000  0.15099
      10     C     3.15387  3.15387  0.00000 -0.30773
      11     H     0.40940  0.40940  0.00000  0.18119
      12     H     0.42858  0.42858  0.00000  0.14285
      13     C     3.15210  3.15210  0.00000 -0.30419
      14     H     0.42073  0.42073  0.00000  0.15853
      15     H     0.42628  0.42628  0.00000  0.14743
      16     C     3.15213  3.15213  0.00000 -0.30425
      17     H     0.42365  0.42365  0.00000  0.15269
      18     H     0.42353  0.42353  0.00000  0.15294
      19     C     3.24095  3.24095  0.00000 -0.48190
      20     H     0.42177  0.42177  0.00000  0.15646
      21     H     0.42408  0.42408  0.00000  0.15184
      22     H     0.42208  0.42208  0.00000  0.15584
      23     H     0.42006  0.42006  0.00000  0.15988
      24     H     0.41988  0.41988  0.00000  0.16023

   Total alpha = 33.00000, Total beta = 33.00000, Total charge = -0.00000
