  ==> Input File <==

--------------------------------------------------------------------------
set {
	reference rhf
	basis cc-pvtz
}

set_num_threads( 4 )
memory 2 gb

molecule MOL {
0 1

H	 2.233564	 -1.182524	 -0.611699
N	 2.433987	 -0.362316	 -0.080024
C	 1.263552	 0.494993	 0.021953
H	 3.183463	 0.111045	 -0.539971
C	 -0.016533	 -0.325589	 -0.026925
H	 1.280915	 1.180773	 -0.818522
H	 1.263064	 1.106893	 0.925038
C	 -1.280353	 0.525521	 0.047747
H	 -0.016686	 -0.912532	 -0.939714
H	 -0.014099	 -1.037598	 0.796369
C	 -2.560681	 -0.301323	 -0.007747
H	 -1.279957	 1.241025	 -0.770189
H	 -1.270445	 1.110526	 0.963468
H	 -2.617064	 -0.872870	 -0.928010
H	 -3.439525	 0.331102	 0.043462
H	 -2.609427	 -1.002736	 0.818585

	symmetry c1
}
set optking {
	frozen_dihedral = ("
		1 2 3 6
	")
}

ee = optimize('scf')
oeprop('DIPOLE', 'QUADRUPOLE', 'MULLIKEN_CHARGES')
f=open( 'psi4out.xyz', 'w' )
f.write( "16  " )
f.write( str(ee) + "\n" )
f.write( MOL.save_string_xyz() )
f.close()
--------------------------------------------------------------------------

    Molecular point group: c1
  Charge       = 0
  Multiplicity = 1
  Basis Set: CC-PVTZ
  Basis Set:
  @DF-RHF Final Energy:  -212.39672684961383
    Total Energy =                       -212.3967268496137422
    Molecular point group: c1
  Basis Set: CC-PVTZ
  Basis Set:
  Basis Set: CC-PVTZ
  Basis Set:
  @DF-RHF Final Energy:  -212.39832046167453
    Total Energy =                       -212.3983204616745297
  Basis Set: CC-PVTZ
  Basis Set:
  Basis Set: CC-PVTZ
  Basis Set:
  @DF-RHF Final Energy:  -212.39851410962021
    Total Energy =                       -212.3985141096202369
  Basis Set: CC-PVTZ
  Basis Set:
  Basis Set: CC-PVTZ
  Basis Set:
  @DF-RHF Final Energy:  -212.39851936259191
    Total Energy =                       -212.3985193625919692
  Basis Set: CC-PVTZ
  Basis Set:
  Charge       = 0
  Multiplicity = 1
  Basis Set: CC-PVTZ
  Basis Set:

    Orbital Energies (a.u.)
    -----------------------

    Doubly Occupied:

       1A    -15.523603     2A    -11.237424     3A    -11.214942
       4A    -11.212297     5A    -11.207512     6A     -1.176211
       7A     -1.062577     8A     -0.960697     9A     -0.845816
      10A     -0.796512    11A     -0.654539    12A     -0.651046
      13A     -0.601115    14A     -0.577737    15A     -0.573039
      16A     -0.521853    17A     -0.508161    18A     -0.472056
      19A     -0.468055    20A     -0.462774    21A     -0.379068

  @DF-RHF Final Energy:  -212.39851998036374

   => Energetics <=

    Nuclear Repulsion Energy =            186.7002020068897536
    One-Electron Energy =                -655.9833776367495375
    Two-Electron Energy =                 256.8846556494958122
    DFT Exchange-Correlation Energy =       0.0000000000000000
    Empirical Dispersion Energy =           0.0000000000000000
    PCM Polarization Energy =               0.0000000000000000
    EFP Energy =                            0.0000000000000000
    Total Energy =                       -212.3985199803639716
    Molecular point group: c1
  Basis Set: CC-PVTZ
  Basis Set:

  -Total Gradient:
     Atom            X                  Y                   Z
    ------   -----------------  -----------------  -----------------
       1       -0.001035200664    -0.001403685082     0.002529767698
       2        0.001729257549     0.002299426958    -0.002703530573
       3       -0.002118915040    -0.002806479653    -0.001454207604
       4        0.000000026398    -0.000005591569    -0.000000160022
       5        0.000072156987     0.000040716057    -0.000003626928
       6        0.001391317737     0.001856056980     0.001614105834
       7       -0.000001386423     0.000007518302     0.000017571505
       8       -0.000032782971    -0.000008645665    -0.000001885612
       9        0.000008634330     0.000012959358     0.000006326910
      10        0.000000663474     0.000018627343    -0.000018630272
      11       -0.000021266770     0.000009950144     0.000017682119
      12        0.000015564616    -0.000013216961    -0.000002757529
      13        0.000000149012    -0.000003651798    -0.000004532728
      14        0.000004815754     0.000005894983     0.000000536174
      15       -0.000009045167    -0.000004979184     0.000002492448
      16       -0.000003988827    -0.000004900213     0.000000848580

  **** Optimization is complete! (in 5 steps) ****
    Final optimized geometry and variables:
    Molecular point group: c1

    Geometry (in Angstrom), charge = 0, multiplicity = 1:

    H            2.288260137231    -1.187406762101    -0.549521219903
    N            2.441558281238    -0.359293834385    -0.016075603005
    C            1.265423488620     0.498087145027    -0.006707642579
    H            3.246409824412     0.104226838134    -0.375746514156
    C           -0.015170754923    -0.320529747135    -0.034326566091
    H            1.265552300107     1.212408670487    -0.829586798050
    H            1.283781391454     1.091411622197     0.902907068753
    C           -1.276952463748     0.529738260469     0.074294459009
    H           -0.049544884003    -0.898244919953    -0.956081225273
    H            0.013994246311    -1.038177371182     0.780715939622
    C           -2.557900416761    -0.297272401827     0.041638908633
    H           -1.295528989201     1.253136306593    -0.736173099047
    H           -1.243718059426     1.104259553752     0.995530532538
    H           -2.638726897872    -0.857546215627    -0.883950492847
    H           -3.434948324591     0.334374658918     0.123003474603
    H           -2.585005540544    -1.008364668910     0.860450938264

  Mulliken Charges: (a.u.)
   Center  Symbol    Alpha    Beta     Spin     Total
       1     H     0.42988  0.42988  0.00000  0.14024
       2     N     3.69336  3.69336  0.00000 -0.38671
       3     C     3.01631  3.01631  0.00000 -0.03263
       4     H     0.42933  0.42933  0.00000  0.14134
       5     C     3.08603  3.08603  0.00000 -0.17206
       6     H     0.46899  0.46899  0.00000  0.06203
       7     H     0.46180  0.46180  0.00000  0.07641
       8     C     3.08834  3.08834  0.00000 -0.17668
       9     H     0.46048  0.46048  0.00000  0.07904
      10     H     0.44927  0.44927  0.00000  0.10145
      11     C     3.14915  3.14915  0.00000 -0.29831
      12     H     0.45552  0.45552  0.00000  0.08896
      13     H     0.45331  0.45331  0.00000  0.09337
      14     H     0.45549  0.45549  0.00000  0.08903
      15     H     0.44843  0.44843  0.00000  0.10314
      16     H     0.45431  0.45431  0.00000  0.09138

   Total alpha = 21.00000, Total beta = 21.00000, Total charge = -0.00000
