  ==> Input File <==

--------------------------------------------------------------------------
set {
	reference rhf
	basis 6-31G*
}

set_num_threads( 4 )
memory 2 gb

molecule MOL {
0 1

H	 -3.161837	 0.500524	 -0.000234
C	 -2.367097	 -0.232926	 -0.000000
O	 -1.158440	 0.455814	 -0.000122
H	 -2.468853	 -0.861886	 -0.882833
H	 -2.468942	 -0.861421	 0.883154
C	 -0.029776	 -0.365156	 0.000148
C	 1.212217	 0.508981	 0.000007
H	 -0.036772	 -1.013236	 -0.877259
H	 -0.036869	 -1.012778	 0.877897
C	 0.898677	 1.969797	 -0.320291
H	 1.687316	 0.432172	 0.973168
H	 1.914984	 0.108564	 -0.724206
H	 0.214867	 2.397336	 0.407746
H	 1.802241	 2.570112	 -0.314077
H	 0.443435	 2.071413	 -1.301532

	symmetry c1
}
set optking {
	frozen_dihedral = ("
		11 7 6 8
	")
}

ee = optimize('scf')
oeprop('DIPOLE', 'QUADRUPOLE', 'MULLIKEN_CHARGES')
f=open( 'psi4out.xyz', 'w' )
f.write( "15  " )
f.write( str(ee) + "\n" )
f.write( MOL.save_string_xyz() )
f.close()
--------------------------------------------------------------------------

    Molecular point group: c1
  Charge       = 0
  Multiplicity = 1
  Basis Set: 6-31G*
  Basis Set:
  @DF-RHF Final Energy:  -232.13058544021746
    Total Energy =                       -232.1305854402173168
    Molecular point group: c1
  Basis Set: 6-31G*
  Basis Set:
  Basis Set: 6-31G*
  Basis Set:
  @DF-RHF Final Energy:  -232.13125649925925
    Total Energy =                       -232.1312564992592797
  Basis Set: 6-31G*
  Basis Set:
  Basis Set: 6-31G*
  Basis Set:
  @DF-RHF Final Energy:  -232.13235351843588
    Total Energy =                       -232.1323535184357638
  Basis Set: 6-31G*
  Basis Set:
  Basis Set: 6-31G*
  Basis Set:
  @DF-RHF Final Energy:  -232.13239983051074
    Total Energy =                       -232.1323998305106215
  Basis Set: 6-31G*
  Basis Set:
  Basis Set: 6-31G*
  Basis Set:
  @DF-RHF Final Energy:  -232.13240153702466
    Total Energy =                       -232.1324015370245206
  Basis Set: 6-31G*
  Basis Set:
  Charge       = 0
  Multiplicity = 1
  Basis Set: 6-31G*
  Basis Set:

    Orbital Energies (a.u.)
    -----------------------

    Doubly Occupied:

       1A    -20.554695     2A    -11.267312     3A    -11.264891
       4A    -11.215607     5A    -11.200750     6A     -1.379733
       7A     -1.048418     8A     -0.948782     9A     -0.890464
      10A     -0.793644    11A     -0.671713    12A     -0.657256
      13A     -0.634878    14A     -0.600684    15A     -0.552532
      16A     -0.540411    17A     -0.505799    18A     -0.481434
      19A     -0.473205    20A     -0.460541    21A     -0.408771

  @DF-RHF Final Energy:  -232.13240365869552

   => Energetics <=

    Nuclear Repulsion Energy =            193.2653997585192656
    One-Electron Energy =                -697.6925670955781698
    Two-Electron Energy =                 272.2947636783631538
    DFT Exchange-Correlation Energy =       0.0000000000000000
    Empirical Dispersion Energy =           0.0000000000000000
    PCM Polarization Energy =               0.0000000000000000
    EFP Energy =                            0.0000000000000000
    Total Energy =                       -232.1324036586957504
    Molecular point group: c1
  Basis Set: 6-31G*
  Basis Set:

  -Total Gradient:
     Atom            X                  Y                   Z
    ------   -----------------  -----------------  -----------------
       1        0.000024742761     0.000015414899    -0.000000100121
       2        0.000034142547    -0.000006465870     0.000000787096
       3       -0.000121056175     0.000080535018     0.000000907929
       4        0.000004175906     0.000001733254    -0.000008653481
       5        0.000004454395     0.000001537320     0.000007719618
       6       -0.002169751972     0.003256109689    -0.003271243438
       7       -0.002574856317     0.003530503167     0.002434233606
       8        0.002286897806    -0.003306765965     0.002353116758
       9        0.000039739674    -0.000010871748     0.000005688302
      10       -0.000021292449     0.000010218082    -0.000013412326
      11        0.002492888342    -0.003587835793    -0.001516631521
      12        0.000010431590    -0.000010565078    -0.000002368507
      13        0.000000362964     0.000015676109    -0.000001037770
      14       -0.000009276962     0.000001345033    -0.000001564225
      15       -0.000001602106     0.000009431885     0.000012558081

  **** Optimization is complete! (in 6 steps) ****
    Final optimized geometry and variables:
    Molecular point group: c1

    Geometry (in Angstrom), charge = 0, multiplicity = 1:

    H           -2.886324226133    -0.055618929727     0.106148331148
    C           -2.063543992768    -0.756827321396     0.075837011533
    O           -0.883225991167    -0.021505071007     0.085570621266
    H           -2.149120403946    -1.361796674630    -0.825282560515
    H           -2.130238931385    -1.415989447630     0.939750618939
    C            0.272055540948    -0.802371375538     0.043434258789
    C            1.536241573733     0.075255648724     0.079679023508
    H            0.273826597381    -1.434867070770    -0.844100336080
    H            0.278043532774    -1.486306995479     0.892310772745
    C            1.312193274526     1.543464059632    -0.278686053122
    H            2.010077926369    -0.008625951935     1.053148430381
    H            2.254963498233    -0.349114464931    -0.617113508252
    H            0.646810275489     2.025514258878     0.425594372900
    H            2.259434222935     2.074221247471    -0.273215353099
    H            0.875085259154     1.645178625402    -1.265908598897

  Mulliken Charges: (a.u.)
   Center  Symbol    Alpha    Beta     Spin     Total
       1     H     0.41204  0.41204  0.00000  0.17592
       2     C     3.07917  3.07917  0.00000 -0.15835
       3     O     4.30396  4.30396  0.00000 -0.60793
       4     H     0.43003  0.43003  0.00000  0.13994
       5     H     0.43014  0.43014  0.00000  0.13973
       6     C     2.98537  2.98537  0.00000  0.02926
       7     C     3.17245  3.17245  0.00000 -0.34490
       8     H     0.43156  0.43156  0.00000  0.13689
       9     H     0.43103  0.43103  0.00000  0.13795
      10     C     3.23073  3.23073  0.00000 -0.46145
      11     H     0.41848  0.41848  0.00000  0.16305
      12     H     0.42094  0.42094  0.00000  0.15812
      13     H     0.41078  0.41078  0.00000  0.17844
      14     H     0.42470  0.42470  0.00000  0.15060
      15     H     0.41863  0.41863  0.00000  0.16275

   Total alpha = 21.00000, Total beta = 21.00000, Total charge = -0.00000
