  ==> Input File <==

--------------------------------------------------------------------------
set {
	reference rhf
	basis 6-31G*
}

set_num_threads( 4 )
memory 2 gb

molecule MOL {
0 1

H	 2.010677	 -1.118210	 -0.314351
C	 1.951159	 -0.223429	 0.317018
C	 0.692068	 0.589600	 0.160137
O	 2.841314	 0.045014	 1.057080
C	 -0.558097	 -0.297372	 0.091132
H	 0.791645	 1.202255	 -0.728243
H	 0.616171	 1.253469	 1.020572
C	 -1.850991	 0.512573	 -0.019058
H	 -0.476753	 -0.965681	 -0.762987
H	 -0.604799	 -0.930658	 0.975228
C	 -3.096943	 -0.368295	 -0.099594
H	 -1.800724	 1.150330	 -0.898172
H	 -1.931651	 1.177355	 0.838044
H	 -3.060452	 -1.020287	 -0.967456
H	 -3.996858	 0.233488	 -0.175704
H	 -3.191959	 -0.995686	 0.782074

	symmetry c1
}
set optking {
	frozen_dihedral = ("
		4 2 3 6
	")
}

ee = optimize('scf')
oeprop('DIPOLE', 'QUADRUPOLE', 'MULLIKEN_CHARGES')
f=open( 'psi4out.xyz', 'w' )
f.write( "16  " )
f.write( str(ee) + "\n" )
f.write( MOL.save_string_xyz() )
f.close()
--------------------------------------------------------------------------

    Molecular point group: c1
  Charge       = 0
  Multiplicity = 1
  Basis Set: 6-31G*
  Basis Set:
  @DF-RHF Final Energy:  -270.01936014178921
    Total Energy =                       -270.0193601417893774
    Molecular point group: c1
  Basis Set: 6-31G*
  Basis Set:
  Basis Set: 6-31G*
  Basis Set:
  @DF-RHF Final Energy:  -270.01944537290387
    Total Energy =                       -270.0194453729038742
  Basis Set: 6-31G*
  Basis Set:
  Basis Set: 6-31G*
  Basis Set:
  @DF-RHF Final Energy:  -270.01879956283653
    Total Energy =                       -270.0187995628365343
  Basis Set: 6-31G*
  Basis Set:
  Basis Set: 6-31G*
  Basis Set:
  @DF-RHF Final Energy:  -270.01972559972535
    Total Energy =                       -270.0197255997252910
  Basis Set: 6-31G*
  Basis Set:
  @DF-RHF Final Energy:  -270.01960405184769
    Total Energy =                       -270.0196040518479208
  Basis Set: 6-31G*
  Basis Set:
  @DF-RHF Final Energy:  -270.01973719433437
    Total Energy =                       -270.0197371943345956
  Basis Set: 6-31G*
  Basis Set:
  Basis Set: 6-31G*
  Basis Set:
  @DF-RHF Final Energy:  -270.01973838040357
    Total Energy =                       -270.0197383804034530
  Basis Set: 6-31G*
  Basis Set:
  Basis Set: 6-31G*
  Basis Set:
  @DF-RHF Final Energy:  -270.01973962796717
    Total Energy =                       -270.0197396279670556
  Basis Set: 6-31G*
  Basis Set:
  Charge       = 0
  Multiplicity = 1
  Basis Set: 6-31G*
  Basis Set:

    Orbital Energies (a.u.)
    -----------------------

    Doubly Occupied:

       1A    -20.562195     2A    -11.326918     3A    -11.236135
       4A    -11.235407     5A    -11.229469     6A    -11.218651
       7A     -1.402308     8A     -1.096795     9A     -1.018957
      10A     -0.905753    11A     -0.812116    12A     -0.795140
      13A     -0.674588    14A     -0.649558    15A     -0.630788
      16A     -0.602851    17A     -0.584980    18A     -0.548172
      19A     -0.530593    20A     -0.504279    21A     -0.488182
      22A     -0.483891    23A     -0.478503    24A     -0.409239

  @DF-RHF Final Energy:  -270.01973972796299

   => Energetics <=

    Nuclear Repulsion Energy =            228.4252920129319477
    One-Electron Energy =                -818.0391314689550200
    Two-Electron Energy =                 319.5940997280601437
    DFT Exchange-Correlation Energy =       0.0000000000000000
    Empirical Dispersion Energy =           0.0000000000000000
    PCM Polarization Energy =               0.0000000000000000
    EFP Energy =                            0.0000000000000000
    Total Energy =                       -270.0197397279628717
    Molecular point group: c1
  Basis Set: 6-31G*
  Basis Set:

  -Total Gradient:
     Atom            X                  Y                   Z
    ------   -----------------  -----------------  -----------------
       1        0.000000113447    -0.000000512909    -0.000000116875
       2       -0.000337195814    -0.000445775291     0.000789782883
       3       -0.000199134694    -0.000388028142    -0.000635675929
       4        0.000271628228     0.000376297597    -0.000496487946
       5       -0.000003078910    -0.000001209596     0.000009611918
       6        0.000266548638     0.000467579284     0.000346017934
       7        0.000002696631    -0.000001702176    -0.000003506040
       8        0.000003381324    -0.000003410973    -0.000013346722
       9       -0.000006192108     0.000002723585     0.000001096700
      10       -0.000000033922    -0.000004371954     0.000002610600
      11       -0.000001249298    -0.000000767514     0.000003807443
      12        0.000001233940     0.000001808288    -0.000001529171
      13        0.000001241280    -0.000002825097    -0.000001151856
      14       -0.000001314436     0.000002025665    -0.000001882564
      15       -0.000000299369     0.000000208651     0.000002599888
      16        0.000001655060    -0.000002039417    -0.000001830262

  **** Optimization is complete! (in 9 steps) ****
    Final optimized geometry and variables:
    Molecular point group: c1

    Geometry (in Angstrom), charge = 0, multiplicity = 1:

    H            2.021119366228    -1.133284091238    -0.612836645530
    C            1.963910844893    -0.258667952886     0.046180321737
    C            0.688037441074     0.540499207221    -0.047015459287
    O            2.877938286111     0.015070821726     0.754384141181
    C           -0.562124436701    -0.339916165325    -0.135574681496
    H            0.764246884546     1.161782983558    -0.939339966330
    H            0.647785648448     1.208795630058     0.805657003022
    C           -1.849632262546     0.473214128199    -0.277990723847
    H           -0.470017663426    -1.017710775514    -0.982255614917
    H           -0.627506777692    -0.965247624585     0.752465351636
    C           -3.098310575220    -0.403240290555    -0.362043022895
    H           -1.783535661551     1.096584177386    -1.166961526797
    H           -1.940069621756     1.152534856507     0.566164909614
    H           -3.052671445416    -1.070843425780    -1.217707941227
    H           -3.994111747439     0.201196094719    -0.461684804298
    H           -3.209074897203    -1.014552115432     0.528855991605

  Mulliken Charges: (a.u.)
   Center  Symbol    Alpha    Beta     Spin     Total
       1     H     0.43159  0.43159  0.00000  0.13682
       2     C     2.82926  2.82926  0.00000  0.34148
       3     C     3.20953  3.20953  0.00000 -0.41906
       4     O     4.23855  4.23855  0.00000 -0.47711
       5     C     3.16392  3.16392  0.00000 -0.32785
       6     H     0.40620  0.40620  0.00000  0.18760
       7     H     0.39877  0.39877  0.00000  0.20246
       8     C     3.15169  3.15169  0.00000 -0.30338
       9     H     0.41959  0.41959  0.00000  0.16081
      10     H     0.41478  0.41478  0.00000  0.17044
      11     C     3.24037  3.24037  0.00000 -0.48074
      12     H     0.42072  0.42072  0.00000  0.15856
      13     H     0.41856  0.41856  0.00000  0.16288
      14     H     0.42054  0.42054  0.00000  0.15893
      15     H     0.41636  0.41636  0.00000  0.16729
      16     H     0.41956  0.41956  0.00000  0.16089

   Total alpha = 24.00000, Total beta = 24.00000, Total charge = -0.00000
