                              Psi4 1.0.54 Driver

  ==> Input File <==

--------------------------------------------------------------------------
set {
	reference rhf
	basis cc-pvtz
}

set_num_threads( 4 )
memory 2 gb

molecule MOL {
0 1

O	 1.216069	 1.304886	 0.000886
C	 1.121787	 0.124983	 0.000110
C	 -0.170912	 -0.649867	 -0.000239
O	 2.167739	 -0.685178	 -0.000678
C	 -1.413045	 0.229353	 0.001040
H	 -0.152842	 -1.303390	 -0.866301
H	 -0.152313	 -1.305161	 0.864460
C	 -2.702562	 -0.586401	 0.000037
H	 -1.390709	 0.882046	 -0.864427
H	 -1.390584	 0.879792	 0.868202
C	 -3.953810	 0.284959	 -0.000978
H	 -2.717758	 -1.238522	 -0.869300
H	 -2.719143	 -1.238517	 0.869351
H	 -3.983691	 0.924448	 -0.876618
H	 -4.852989	 -0.320147	 -0.001779
H	 -3.985175	 0.924353	 0.874677
C	 3.449556	 -0.089977	 -0.000570
H	 3.585694	 0.522473	 -0.879546
H	 4.155805	 -0.904274	 -0.001389
H	 3.586173	 0.521118	 0.879272

	symmetry c1
}
set optking {
	frozen_dihedral = ("
		1 2 4 17
	")
}

ee,wfn = optimize('scf', return_wfn=True)
oeprop( wfn, 'DIPOLE', 'QUADRUPOLE', 'MULLIKEN_CHARGES')
f=open( 'psi4out.xyz', 'w' )
f.write( "20  " )
f.write( str(ee) + "\n" )
f.write( MOL.save_string_xyz() )
f.close()
--------------------------------------------------------------------------

    Molecular point group: c1
  Charge       = 0
  Multiplicity = 1
  Basis Set: CC-PVTZ
  Basis Set:
  @DF-RHF Final Energy:  -384.08327947327882
    Total Energy =                       -384.0832794732789353
    Molecular point group: c1
  Basis Set: CC-PVTZ
  Basis Set:
  Charge       = 0
  Multiplicity = 1
  Basis Set: CC-PVTZ
  Basis Set:

    Orbital Energies (a.u.)
    -----------------------

    Doubly Occupied:

       1A    -20.596431     2A    -20.534248     3A    -11.364723
       4A    -11.278574     5A    -11.233964     6A    -11.218445
       7A    -11.217303     8A    -11.208761     9A     -1.472333
      10A     -1.365913    11A     -1.090014    12A     -1.025535
      13A     -0.969972    14A     -0.886432    15A     -0.804595
      16A     -0.769588    17A     -0.699108    18A     -0.686905
      19A     -0.675909    20A     -0.647099    21A     -0.598991
      22A     -0.592525    23A     -0.580241    24A     -0.540466
      25A     -0.538622    26A     -0.524189    27A     -0.501237
      28A     -0.478982    29A     -0.474974    30A     -0.471677
      31A     -0.459358    32A     -0.440197

  @DF-RHF Final Energy:  -384.08327946649547

   => Energetics <=

    Nuclear Repulsion Energy =            381.7224618768967730
    One-Electron Energy =               -1279.7168657979525506
    Two-Electron Energy =                 513.9111244545601949
    DFT Exchange-Correlation Energy =       0.0000000000000000
    Empirical Dispersion Energy =           0.0000000000000000
    PCM Polarization Energy =               0.0000000000000000
    EFP Energy =                            0.0000000000000000
    Total Energy =                       -384.0832794664955827
    Molecular point group: c1
  Basis Set: CC-PVTZ
  Basis Set:

  -Total Gradient:
     Atom            X                  Y                   Z
    ------   -----------------  -----------------  -----------------
       1       -0.000005332518     0.000016458770     0.000013701111
       2        0.000009945527    -0.000013021209    -0.000038330597
       3        0.000004656540     0.000002319775     0.000029179558
       4       -0.000009316902    -0.000005605800     0.000009183355
       5        0.000000828867    -0.000000301377    -0.000015572718
       6       -0.000001020355     0.000006373269     0.000000685316
       7       -0.000001335859    -0.000007029320     0.000000591007
       8        0.000001680156    -0.000001874920    -0.000009572253
       9        0.000002484599    -0.000003545356    -0.000001128073
      10       -0.000000494847     0.000002712798    -0.000001629230
      11       -0.000005131547     0.000001014312     0.000012015943
      12       -0.000001439605     0.000002052343    -0.000003619804
      13        0.000002412325    -0.000004010135    -0.000002947484
      14        0.000001366381    -0.000003579568    -0.000000508091
      15       -0.000001319903     0.000001213962     0.000004214841
      16       -0.000002781666     0.000004756074     0.000000965080
      17        0.000011460299     0.000006070062     0.000002195896
      18       -0.000002982766    -0.000001216989     0.000000657825
      19       -0.000001655607    -0.000001712304     0.000000283496
      20       -0.000002023116    -0.000001074386    -0.000000365180

  **** Optimization is complete! (in 2 steps) ****
    Final optimized geometry and variables:
    Molecular point group: c1

    Geometry (in Angstrom), charge = 0, multiplicity = 1:

    O            1.216100726029     1.304985363451    -0.000220906095
    C            1.121827141120     0.125086729352    -0.000277912185
    C           -0.170869648880    -0.649798634696    -0.000741944524
    O            2.167725440079    -0.685162666809     0.000341300724
    C           -1.413049929659     0.229354063790    -0.000956569833
    H           -0.152315404600    -1.304064106022    -0.866227912227
    H           -0.152783449659    -1.304396724572     0.864503133086
    C           -2.702572201436    -0.586436832400    -0.000877346439
    H           -1.390618014917     0.880855417780    -0.867317280937
    H           -1.390704432862     0.881014146354     0.865291168331
    C           -3.953897405409     0.284862403746     0.001371256759
    H           -2.719193033168    -1.237496898947    -0.870985262398
    H           -2.717650312208    -1.239664874770     0.867631825725
    H           -3.985561178717     0.925139335013    -0.873628132392
    H           -4.853053518121    -0.320271723382     0.001811201675
    H           -3.983603838268     0.923483401739     0.877652711710
    C            3.449569703128    -0.090108872080     0.001101713211
    H            3.586540226082     0.521642043627    -0.878232991237
    H            4.155751715900    -0.904467629646     0.001544099452
    H            3.585477649971     0.521672802737     0.880580845295

  Mulliken Charges: (a.u.)
   Center  Symbol    Alpha    Beta     Spin     Total
       1     O     4.19683  4.19683  0.00000 -0.39367
       2     C     2.80656  2.80656  0.00000  0.38687
       3     C     3.10026  3.10026  0.00000 -0.20051
       4     O     4.14654  4.14654  0.00000 -0.29309
       5     C     3.08115  3.08115  0.00000 -0.16230
       6     H     0.44026  0.44026  0.00000  0.11947
       7     H     0.44026  0.44026  0.00000  0.11948
       8     C     3.08691  3.08691  0.00000 -0.17382
       9     H     0.44681  0.44681  0.00000  0.10638
      10     H     0.44682  0.44682  0.00000  0.10635
      11     C     3.14922  3.14922  0.00000 -0.29845
      12     H     0.45524  0.45524  0.00000  0.08951
      13     H     0.45527  0.45527  0.00000  0.08945
      14     H     0.45386  0.45386  0.00000  0.09227
      15     H     0.44838  0.44838  0.00000  0.10325
      16     H     0.45387  0.45387  0.00000  0.09226
      17     C     3.03770  3.03770  0.00000 -0.07541
      18     H     0.45434  0.45434  0.00000  0.09131
      19     H     0.44534  0.44534  0.00000  0.10931
      20     H     0.45435  0.45435  0.00000  0.09131

   Total alpha = 32.00000, Total beta = 32.00000, Total charge = -0.00000

*** Psi4 exiting successfully. Buy a developer a beer!
