  ==> Input File <==

--------------------------------------------------------------------------
set {
	reference rhf
	basis 6-31G*
}

set_num_threads( 1 )
memory 2 gb

molecule MOL {
0 1

H	 -1.733500	 1.125585	 -0.335859
N	 -1.852125	 0.165761	 -0.074816
C	 -0.563778	 -0.502042	 0.037919
H	 -2.408346	 -0.262404	 -0.790392
C	 0.575259	 0.508231	 -0.048326
H	 -0.482092	 -1.204004	 -0.786564
H	 -0.460411	 -1.085169	 0.956626
C	 1.954651	 -0.143624	 0.035137
H	 0.475158	 1.060484	 -0.977307
H	 0.469181	 1.234488	 0.755973
H	 2.103292	 -0.853109	 -0.774172
H	 2.742821	 0.599562	 -0.030094
H	 2.083613	 -0.679371	 0.971560

	symmetry c1
}
set optking {
	frozen_dihedral = ("
		6 3 5 9
	")
}

ee = energy('scf')
oeprop('DIPOLE', 'QUADRUPOLE', 'MULLIKEN_CHARGES')
f=open( 'psi4out.xyz', 'w' )
f.write( "13  " )
f.write( str(ee) + "\n" )
f.write( MOL.save_string_xyz() )
f.close()
--------------------------------------------------------------------------

    Molecular point group: c1

    Geometry (in Angstrom), charge = 0, multiplicity = 1:

       Center              X                  Y                   Z               Mass
    ------------   -----------------  -----------------  -----------------  -----------------
           H         -1.741450877833     1.115301112293    -0.305912779102     1.007825032070
           N         -1.860075877833     0.155477112293    -0.044869779102    14.003074004780
           C         -0.571728877833    -0.512325887707     0.067865220898    12.000000000000
           H         -2.416296877833    -0.272687887707    -0.760445779102     1.007825032070
           C          0.567308122167     0.497947112293    -0.018379779102    12.000000000000
           H         -0.490042877833    -1.214287887707    -0.756617779102     1.007825032070
           H         -0.468361877833    -1.095452887707     0.986572220898     1.007825032070
           C          1.946700122167    -0.153907887707     0.065083220898    12.000000000000
           H          0.467207122167     1.050200112293    -0.947360779102     1.007825032070
           H          0.461230122167     1.224204112293     0.785919220898     1.007825032070
           H          2.095341122167    -0.863392887707    -0.744225779102     1.007825032070
           H          2.734870122167     0.589278112293    -0.000147779102     1.007825032070
           H          2.075662122167    -0.689654887707     1.001506220898     1.007825032070

  Charge       = 0
  Multiplicity = 1
  Basis Set: 6-31G*
  Basis Set:

    Orbital Energies (a.u.)
    -----------------------

    Doubly Occupied:

       1A    -15.529382     2A    -11.240059     3A    -11.218958
       4A    -11.212839     5A     -1.177457     6A     -1.037639
       7A     -0.899130     8A     -0.808733     9A     -0.657262
      10A     -0.631715    11A     -0.605116    12A     -0.554198
      13A     -0.547797    14A     -0.498938    15A     -0.483164
      16A     -0.470964    17A     -0.375436

  @DF-RHF Final Energy:  -173.27672165468462

   => Energetics <=

    Nuclear Repulsion Energy =            132.1121801721895110
    One-Electron Energy =                -494.8801943139714581
    Two-Electron Energy =                 189.4912924870973825
    DFT Exchange-Correlation Energy =       0.0000000000000000
    Empirical Dispersion Energy =           0.0000000000000000
    PCM Polarization Energy =               0.0000000000000000
    EFP Energy =                            0.0000000000000000
    Total Energy =                       -173.2767216546845361

  Mulliken Charges: (a.u.)
   Center  Symbol    Alpha    Beta     Spin     Total
       1     H     0.33178  0.33178  0.00000  0.33643
       2     N     3.92868  3.92868  0.00000 -0.85736
       3     C     3.04446  3.04446  0.00000 -0.08892
       4     H     0.33257  0.33257  0.00000  0.33485
       5     C     3.16810  3.16810  0.00000 -0.33620
       6     H     0.43103  0.43103  0.00000  0.13795
       7     H     0.42159  0.42159  0.00000  0.15683
       8     C     3.24267  3.24267  0.00000 -0.48533
       9     H     0.42469  0.42469  0.00000  0.15063
      10     H     0.41690  0.41690  0.00000  0.16620
      11     H     0.42098  0.42098  0.00000  0.15805
      12     H     0.41765  0.41765  0.00000  0.16470
      13     H     0.41891  0.41891  0.00000  0.16217

   Total alpha = 17.00000, Total beta = 17.00000, Total charge = -0.00000
