  ==> Input File <==

--------------------------------------------------------------------------
set {
	reference rhf
	basis 6-31G*
}

set_num_threads( 4 )
memory 2 gb

molecule MOL {
0 1

H	 -1.147375	 -0.320692	 0.746795
N	 -0.712432	 0.000013	 -0.096310
C	 0.734192	 -0.000004	 0.040609
H	 -1.051738	 0.927199	 -0.263809
H	 1.139899	 -0.873598	 -0.456463
H	 1.139939	 0.873831	 -0.456100
H	 1.096456	 -0.000300	 1.069655

	symmetry c1
}
set optking {
	frozen_dihedral = ("
		1 2 3 7
	")
}

ee = optimize('scf')
oeprop('DIPOLE', 'QUADRUPOLE', 'MULLIKEN_CHARGES')
f=open( 'psi4out.xyz', 'w' )
f.write( "7  " )
f.write( str(ee) + "\n" )
f.write( MOL.save_string_xyz() )
f.close()
--------------------------------------------------------------------------

    Molecular point group: c1
  Charge       = 0
  Multiplicity = 1
  Basis Set: 6-31G*
  Basis Set:
  @DF-RHF Final Energy:   -95.20678659743749
    Total Energy =                        -95.2067865974374428
    Molecular point group: c1
  Basis Set: 6-31G*
  Basis Set:
  Basis Set: 6-31G*
  Basis Set:
  @DF-RHF Final Energy:   -95.20697125751919
    Total Energy =                        -95.2069712575191431
  Basis Set: 6-31G*
  Basis Set:
  Basis Set: 6-31G*
  Basis Set:
  @DF-RHF Final Energy:   -95.20702341107466
    Total Energy =                        -95.2070234110746014
  Basis Set: 6-31G*
  Basis Set:
  Charge       = 0
  Multiplicity = 1
  Basis Set: 6-31G*
  Basis Set:

    Orbital Energies (a.u.)
    -----------------------

    Doubly Occupied:

       1A    -15.533862     2A    -11.237620     3A     -1.168984
       4A     -0.897572     5A     -0.663084     6A     -0.600459
       7A     -0.557011     8A     -0.519152     9A     -0.382573

  @DF-RHF Final Energy:   -95.20702405904787

   => Energetics <=

    Nuclear Repulsion Energy =             42.2520320080658252
    One-Electron Energy =                -211.7974802510591417
    Two-Electron Energy =                  74.3384241839454774
    DFT Exchange-Correlation Energy =       0.0000000000000000
    Empirical Dispersion Energy =           0.0000000000000000
    PCM Polarization Energy =               0.0000000000000000
    EFP Energy =                            0.0000000000000000
    Total Energy =                        -95.2070240590478249
    Molecular point group: c1
  Basis Set: 6-31G*
  Basis Set:

  -Total Gradient:
     Atom            X                  Y                   Z
    ------   -----------------  -----------------  -----------------
       1       -0.000116575603     0.002776222530     0.000986598527
       2        0.000158478228    -0.004306199848    -0.001172968347
       3       -0.000146101406     0.004355003228     0.000211549092
       4        0.000023320538    -0.000035654028    -0.000027297031
       5       -0.000011176684    -0.000001064179    -0.000000435612
       6        0.000063373277     0.000003226513     0.000005682734
       7        0.000028681650    -0.002791534216    -0.000003129362

  **** Optimization is complete! (in 4 steps) ****
    Final optimized geometry and variables:
    Molecular point group: c1

    Geometry (in Angstrom), charge = 0, multiplicity = 1:

    H           -1.150305126148    -0.344177878502     0.755117265458
    N           -0.716952020874    -0.020912622181    -0.086796642096
    C            0.737083695706    -0.017254075995     0.041878395875
    H           -1.058101078025     0.908241896761    -0.232441038834
    H            1.153918702140    -0.898206629632    -0.435345001717
    H            1.157810528615     0.849553482958    -0.453953029782
    H            1.081930186721    -0.019402247010     1.073965867040

  Mulliken Charges: (a.u.)
   Center  Symbol    Alpha    Beta     Spin     Total
       1     H     0.33252  0.33252  0.00000  0.33496
       2     N     3.92049  3.92049  0.00000 -0.84099
       3     C     3.14751  3.14751  0.00000 -0.29501
       4     H     0.33291  0.33291  0.00000  0.33419
       5     H     0.41623  0.41623  0.00000  0.16755
       6     H     0.42113  0.42113  0.00000  0.15774
       7     H     0.42922  0.42922  0.00000  0.14156

   Total alpha =  9.00000, Total beta =  9.00000, Total charge =  0.00000
