                              Psi4 1.0.54 Driver

  ==> Input File <==

--------------------------------------------------------------------------
set {
	reference rhf
	basis cc-pvtz
}

set_num_threads( 4 )
memory 2 gb

molecule MOL {
0 1

H	 5.269878	 0.195679	 1.068175
C	 4.673900	 -0.208485	 0.258034
C	 3.190199	 -0.204714	 0.610086
H	 4.865136	 0.391893	 -0.624684
H	 5.027838	 -1.214511	 0.056939
C	 2.319208	 -0.778154	 -0.505491
H	 2.876954	 0.809861	 0.827925
H	 3.035335	 -0.782733	 1.518235
C	 2.947264	 -1.964519	 -1.230041
H	 1.361886	 -1.079931	 -0.098928
H	 2.121065	 0.000997	 -1.235865
C	 2.995390	 -3.249302	 -0.420413
H	 2.376057	 -2.193599	 -2.126150
H	 3.949143	 -1.724295	 -1.573623
C	 3.935572	 -4.340169	 -0.895218
O	 2.310098	 -3.409254	 0.537744
C	 3.580117	 -4.903790	 -2.275198
H	 3.908919	 -5.126603	 -0.153159
H	 4.944482	 -3.936813	 -0.919711
C	 4.485989	 -6.063133	 -2.681387
H	 2.547277	 -5.241099	 -2.267444
H	 3.646079	 -4.122539	 -3.025730
C	 4.138195	 -6.638411	 -4.050043
H	 4.420670	 -6.846862	 -1.932672
H	 5.519204	 -5.726921	 -2.682427
H	 3.119870	 -7.011625	 -4.070237
H	 4.229544	 -5.886213	 -4.826518
H	 4.796293	 -7.460039	 -4.307229

	symmetry c1
}
set optking {
	frozen_dihedral = ("
		10 6 3 2
	")
}

ee,wfn = optimize('scf', return_wfn=True)
oeprop( wfn, 'DIPOLE', 'QUADRUPOLE', 'MULLIKEN_CHARGES')
f=open( 'psi4out.xyz', 'w' )
f.write( "28  " )
f.write( str(ee) + "\n" )
f.write( MOL.save_string_xyz() )
f.close()
--------------------------------------------------------------------------

    Molecular point group: c1
  Charge       = 0
  Multiplicity = 1
  Basis Set: CC-PVTZ
  Basis Set:
  @DF-RHF Final Energy:  -426.31305295897664
    Total Energy =                       -426.3130529589772095
    Molecular point group: c1
  Basis Set: CC-PVTZ
  Basis Set:
  Basis Set: CC-PVTZ
  Basis Set:
  @DF-RHF Final Energy:  -426.31298965562348
    Total Energy =                       -426.3129896556233689
  Basis Set: CC-PVTZ
  Basis Set:
  Basis Set: CC-PVTZ
  Basis Set:
  @DF-RHF Final Energy:  -426.31552345685623
    Total Energy =                       -426.3155234568555443
  Basis Set: CC-PVTZ
  Basis Set:
  Basis Set: CC-PVTZ
  Basis Set:
  @DF-RHF Final Energy:  -426.31391854493495
    Total Energy =                       -426.3139185449350634
  Basis Set: CC-PVTZ
  Basis Set:
  @DF-RHF Final Energy:  -426.31568820028360
    Total Energy =                       -426.3156882002834891
  @DF-RHF Final Energy:  -426.31577147131406
    Total Energy =                       -426.3157714713142923
  Basis Set: CC-PVTZ
  Basis Set:
  @DF-RHF Final Energy:  -426.31574567603354
    Total Energy =                       -426.3157456760341120
  Basis Set: CC-PVTZ
  Basis Set:
  Basis Set: CC-PVTZ
  Basis Set:
  @DF-RHF Final Energy:  -426.31578133812229
    Total Energy =                       -426.3157813381224059
  Basis Set: CC-PVTZ
  Basis Set:
  Basis Set: CC-PVTZ
  Basis Set:
  @DF-RHF Final Energy:  -426.31578424564964
    Total Energy =                       -426.3157842456497519
  Basis Set: CC-PVTZ
  Basis Set:
  Charge       = 0
  Multiplicity = 1
  Basis Set: CC-PVTZ
  Basis Set:

    Orbital Energies (a.u.)
    -----------------------

    Doubly Occupied:

       1A    -20.536739     2A    -11.316225     3A    -11.229664
       4A    -11.227056     5A    -11.226770     6A    -11.223636
       7A    -11.215560     8A    -11.214066     9A    -11.210050
      10A    -11.208153    11A     -1.396447    12A     -1.095875
      13A     -1.077666    14A     -1.022000    15A     -0.989439
      16A     -0.913257    17A     -0.881575    18A     -0.808909
      19A     -0.792846    20A     -0.719603    21A     -0.668995
      22A     -0.653764    23A     -0.638762    24A     -0.622364
      25A     -0.610890    26A     -0.597160    27A     -0.577889
      28A     -0.556590    29A     -0.544930    30A     -0.538688
      31A     -0.530283    32A     -0.508653    33A     -0.503867
      34A     -0.485326    35A     -0.478369    36A     -0.475975
      37A     -0.467463    38A     -0.463269    39A     -0.458588
      40A     -0.393077

  @DF-RHF Final Energy:  -426.31578495322594

   => Energetics <=

    Nuclear Repulsion Energy =            541.2939360718750095
    One-Electron Energy =               -1651.0585663913248027
    Two-Electron Energy =                 683.4488453662239635
    DFT Exchange-Correlation Energy =       0.0000000000000000
    Empirical Dispersion Energy =           0.0000000000000000
    PCM Polarization Energy =               0.0000000000000000
    EFP Energy =                            0.0000000000000000
    Total Energy =                       -426.3157849532257160
    Molecular point group: c1
  Basis Set: CC-PVTZ
  Basis Set:

  -Total Gradient:
     Atom            X                  Y                   Z
    ------   -----------------  -----------------  -----------------
       1        0.000006085220     0.000002694046     0.000006888948
       2        0.000470893736    -0.003010576222     0.001474368790
       3       -0.000273451839     0.003476311660    -0.001908867537
       4        0.000001879686    -0.000002172927    -0.000003124076
       5        0.000013159223    -0.000006253803    -0.000007221820
       6       -0.002164094649     0.003529543332    -0.000645029942
       7        0.000001760832    -0.000001321510     0.000008409753
       8       -0.000003160540    -0.000002944875     0.000011618766
       9        0.000028187045     0.000025135910    -0.000032806053
      10        0.001932628607    -0.003959284132     0.001054790940
      11        0.000001287186     0.000004072301     0.000010138021
      12       -0.000025901548    -0.000034737971     0.000113206211
      13       -0.000007395103    -0.000009456763     0.000004489563
      14       -0.000000644509     0.000003088735    -0.000001151634
      15       -0.000054485961    -0.000028604173    -0.000049984681
      16        0.000028235103     0.000002215008    -0.000061827786
      17        0.000011975459     0.000000560563    -0.000009814756
      18        0.000006196984    -0.000006845539     0.000001538964
      19        0.000012778401     0.000012840255     0.000008584946
      20        0.000012227092     0.000008088057     0.000012035409
      21        0.000033219807     0.000015650403    -0.000016516555
      22       -0.000005413646    -0.000026626525     0.000036001661
      23       -0.000002745830    -0.000019608436    -0.000006314934
      24        0.000005210691     0.000023586171    -0.000029506251
      25       -0.000030401272    -0.000015320028     0.000009850872
      26        0.000033070007     0.000013411423    -0.000012108954
      27        0.000000936012    -0.000026299313     0.000026861353
      28       -0.000032036196     0.000032854355     0.000005490784

  **** Optimization is complete! (in 10 steps) ****
    Final optimized geometry and variables:
    Molecular point group: c1

    Geometry (in Angstrom), charge = 0, multiplicity = 1:

    H            1.483973634716     3.770690226930     2.107515914300
    C            1.041018384678     3.198978685288     1.300428650083
    C           -0.464505813914     3.059461818783     1.513827755731
    H            1.273331450929     3.711051179023     0.371238291011
    H            1.537385281643     2.235813646392     1.281596778019
    C           -1.241815348504     2.377001874443     0.377074948783
    H           -0.895497355077     4.042381856100     1.672567628526
    H           -0.627643227551     2.503596244162     2.428831132952
    C           -0.558495812393     1.177607429976    -0.280574030629
    H           -2.184295044326     2.023550961603     0.775039356840
    H           -1.459136326916     3.100006797502    -0.402367615555
    C           -0.373230230680    -0.025440501674     0.626656415958
    H           -1.170601909002     0.837386261013    -1.112215100890
    H            0.397446339132     1.444821337808    -0.715950024007
    C            0.595298003655    -1.101343498474     0.174597929247
    O           -0.978382704011    -0.138514989392     1.644005658818
    C            0.151367521141    -1.828434315283    -1.099412023363
    H            0.691129630912    -1.805130810186     0.990320171102
    H            1.567604037908    -0.645469872132     0.008526793400
    C            1.093905893193    -2.967520639274    -1.478135070484
    H           -0.849706500665    -2.224321842086    -0.953155842376
    H            0.090918188381    -1.128253240419    -1.926444585336
    C            0.661276887651    -3.701674622741    -2.742569365461
    H            1.152883053774    -3.671589699997    -0.653654991442
    H            2.096661801842    -2.572246460013    -1.614761020076
    H           -0.325709014253    -4.135797988937    -2.624538689909
    H            0.626794094247    -3.030017190044    -3.593814894698
    H            1.348574776295    -4.504197293818    -2.982867891269

  Mulliken Charges: (a.u.)
   Center  Symbol    Alpha    Beta     Spin     Total
       1     H     0.44306  0.44306  0.00000  0.11388
       2     C     3.15811  3.15811  0.00000 -0.31622
       3     C     3.09478  3.09478  0.00000 -0.18955
       4     H     0.45491  0.45491  0.00000  0.09018
       5     H     0.45652  0.45652  0.00000  0.08696
       6     C     3.09268  3.09268  0.00000 -0.18535
       7     H     0.44799  0.44799  0.00000  0.10402
       8     H     0.44113  0.44113  0.00000  0.11773
       9     C     3.13944  3.13944  0.00000 -0.27887
      10     H     0.44308  0.44308  0.00000  0.11384
      11     H     0.44573  0.44573  0.00000  0.10853
      12     C     2.86383  2.86383  0.00000  0.27233
      13     H     0.43053  0.43053  0.00000  0.13894
      14     H     0.43882  0.43882  0.00000  0.12235
      15     C     3.09276  3.09276  0.00000 -0.18553
      16     O     4.17854  4.17854  0.00000 -0.35708
      17     C     3.10026  3.10026  0.00000 -0.20051
      18     H     0.43793  0.43793  0.00000  0.12415
      19     H     0.44865  0.44865  0.00000  0.10271
      20     C     3.08699  3.08699  0.00000 -0.17398
      21     H     0.44552  0.44552  0.00000  0.10895
      22     H     0.45052  0.45052  0.00000  0.09895
      23     C     3.14938  3.14938  0.00000 -0.29877
      24     H     0.44986  0.44986  0.00000  0.10027
      25     H     0.45356  0.45356  0.00000  0.09289
      26     H     0.45341  0.45341  0.00000  0.09318
      27     H     0.45519  0.45519  0.00000  0.08962
      28     H     0.44681  0.44681  0.00000  0.10638

   Total alpha = 40.00000, Total beta = 40.00000, Total charge = -0.00000

*** Psi4 exiting successfully. Buy a developer a beer!
