                              Psi4 1.0.54 Driver

  ==> Input File <==

--------------------------------------------------------------------------
set {
	reference rhf
	basis cc-pvtz
}

set_num_threads( 4 )
memory 2 gb

molecule MOL {
0 1

H	 2.798970	 0.465119	 -2.223047
O	 1.879946	 0.303174	 -2.335266
C	 1.217532	 0.409360	 -1.166763
C	 1.858962	 0.720602	 0.022513
C	 -0.145769	 0.196585	 -1.179336
H	 2.921034	 0.886039	 0.030492
C	 1.136941	 0.818246	 1.194736
H	 -0.644069	 -0.043954	 -2.096223
C	 -0.861704	 0.296439	 0.000000
H	 1.643900	 1.059624	 2.108822
C	 -0.227142	 0.606875	 1.190707
C	 -2.330689	 0.069587	 0.000000
H	 -0.791236	 0.682116	 2.100666
O	 -2.848621	 -0.993976	 0.000000
H	 -2.934306	 0.982410	 0.000000

	symmetry c1
}
set optking {
	frozen_dihedral = ("
		11 9 12 14
	")
}

ee,wfn = optimize('scf', return_wfn=True)
oeprop( wfn, 'DIPOLE', 'QUADRUPOLE', 'MULLIKEN_CHARGES')
f=open( 'psi4out.xyz', 'w' )
f.write( "15  " )
f.write( str(ee) + "\n" )
f.write( MOL.save_string_xyz() )
f.close()
--------------------------------------------------------------------------

    Molecular point group: c1
  Charge       = 0
  Multiplicity = 1
  Basis Set: CC-PVTZ
  Basis Set:
  @DF-RHF Final Energy:  -418.42726809855770
    Total Energy =                       -418.4272680985577608
    Molecular point group: c1
  Basis Set: CC-PVTZ
  Basis Set:
  Basis Set: CC-PVTZ
  Basis Set:
  @DF-RHF Final Energy:  -418.42679714635403
    Total Energy =                       -418.4267971463540334
  Basis Set: CC-PVTZ
  Basis Set:
  Basis Set: CC-PVTZ
  Basis Set:
  @DF-RHF Final Energy:  -418.42741184326081
    Total Energy =                       -418.4274118432606429
  Basis Set: CC-PVTZ
  Basis Set:
  Basis Set: CC-PVTZ
  Basis Set:
  @DF-RHF Final Energy:  -418.42760455085039
    Total Energy =                       -418.4276045508504467
  Basis Set: CC-PVTZ
  Basis Set:
  Basis Set: CC-PVTZ
  Basis Set:
  @DF-RHF Final Energy:  -418.42760697644667
    Total Energy =                       -418.4276069764468957
  Basis Set: CC-PVTZ
  Basis Set:
  Charge       = 0
  Multiplicity = 1
  Basis Set: CC-PVTZ
  Basis Set:

    Orbital Energies (a.u.)
    -----------------------

    Doubly Occupied:

       1A    -20.596321     2A    -20.564008     3A    -11.333188
       4A    -11.312046     5A    -11.256215     6A    -11.249564
       7A    -11.238712     8A    -11.236972     9A    -11.236488
      10A     -1.428252    11A     -1.418492    12A     -1.171983
      13A     -1.050676    14A     -1.027152    15A     -0.901505
      16A     -0.845691    17A     -0.821048    18A     -0.742632
      19A     -0.703480    20A     -0.682124    21A     -0.665616
      22A     -0.644170    23A     -0.616209    24A     -0.607292
      25A     -0.586612    26A     -0.546884    27A     -0.534808
      28A     -0.515577    29A     -0.498142    30A     -0.426786
      31A     -0.357388    32A     -0.328428

  @DF-RHF Final Energy:  -418.42760782017393

   => Energetics <=

    Nuclear Repulsion Energy =            403.0305865452200464
    One-Electron Energy =               -1368.6274709824160709
    Two-Electron Energy =                 547.1692766170222058
    DFT Exchange-Correlation Energy =       0.0000000000000000
    Empirical Dispersion Energy =           0.0000000000000000
    PCM Polarization Energy =               0.0000000000000000
    EFP Energy =                            0.0000000000000000
    Total Energy =                       -418.4276078201737619
    Molecular point group: c1
  Basis Set: CC-PVTZ
  Basis Set:

  -Total Gradient:
     Atom            X                  Y                   Z
    ------   -----------------  -----------------  -----------------
       1       -0.000003578667     0.000009689188     0.000005352738
       2       -0.000004578533     0.000021728251     0.000013542082
       3       -0.000006428418    -0.000107756524    -0.000030372437
       4       -0.000002060675     0.000051116455     0.000040664832
       5       -0.000020966800    -0.000010348218    -0.000023996644
       6       -0.000002461118    -0.000007512298    -0.000004021737
       7        0.000085914520     0.000006578444    -0.000030866895
       8        0.000028272346     0.000029753326     0.000031408163
       9       -0.000482642756     0.002900946886     0.000686537943
      10       -0.000008627317     0.000000004685    -0.000000949762
      11        0.000262632903    -0.002004560712     0.000271065042
      12        0.000119879804    -0.000833389341    -0.003405153672
      13        0.000012842575     0.000011307776    -0.000004548937
      14        0.000005062896    -0.000061190184     0.002460462371
      15        0.000016739247    -0.000006367739    -0.000009123088

  **** Optimization is complete! (in 6 steps) ****
    Final optimized geometry and variables:
    Molecular point group: c1

    Geometry (in Angstrom), charge = 0, multiplicity = 1:

    H            2.828383263006     0.224622073355    -1.927259776092
    O            1.906602359108     0.074885430979    -2.036196320009
    C            1.256128213336     0.175988943649    -0.862146125790
    C            1.900744877376     0.485696128113     0.320837140894
    C           -0.110733723525    -0.047823319433    -0.870720849043
    H            2.961886205998     0.655244597188     0.328247917747
    C            1.173954683567     0.572428225164     1.493243480507
    H           -0.591146119173    -0.302838211257    -1.794832335264
    C           -0.824201803585     0.049890628331     0.304998044243
    H            1.680527158763     0.805698291616     2.410046279585
    C           -0.188627190273     0.361307747053     1.496580432226
    C           -2.303178470901    -0.202336930692     0.298938163991
    H           -0.745931515239     0.429181119603     2.410924925083
    O           -2.786324258726    -1.279237728075     0.288685394078
    H           -2.936698142623     0.690208089566     0.329650759228

  Mulliken Charges: (a.u.)
   Center  Symbol    Alpha    Beta     Spin     Total
       1     H     0.38635  0.38635  0.00000  0.22730
       2     O     4.17130  4.17130  0.00000 -0.34261
       3     C     2.83597  2.83597  0.00000  0.32806
       4     C     3.14114  3.14114  0.00000 -0.28229
       5     C     3.13413  3.13413  0.00000 -0.26826
       6     H     0.43266  0.43266  0.00000  0.13468
       7     C     3.05370  3.05370  0.00000 -0.10739
       8     H     0.41683  0.41683  0.00000  0.16635
       9     C     2.92179  2.92179  0.00000  0.15642
      10     H     0.41973  0.41973  0.00000  0.16054
      11     C     3.11872  3.11872  0.00000 -0.23744
      12     C     2.93109  2.93109  0.00000  0.13782
      13     H     0.42457  0.42457  0.00000  0.15085
      14     O     4.15483  4.15483  0.00000 -0.30966
      15     H     0.45718  0.45718  0.00000  0.08564

   Total alpha = 32.00000, Total beta = 32.00000, Total charge = -0.00000

*** Psi4 exiting successfully. Buy a developer a beer!
