  ==> Input File <==

--------------------------------------------------------------------------
set {
	reference rhf
	basis cc-pvtz
}

set_num_threads( 4 )
memory 2 gb

molecule MOL {
0 1

H	 -3.401682	 -1.036167	 0.000000
O	 -3.113760	 -0.140926	 0.000000
C	 -1.775087	 -0.058754	 0.000000
C	 -1.109473	 1.143581	 -0.204415
C	 -1.062118	 -1.226817	 0.213276
H	 -1.669544	 2.045573	 -0.369212
C	 0.264866	 1.171640	 -0.194506
H	 -1.594845	 -2.143346	 0.368826
C	 0.313724	 -1.181680	 0.220196
H	 0.790207	 2.092861	 -0.350962
C	 0.993638	 0.009635	 0.017875
H	 0.867864	 -2.087273	 0.385563
C	 2.468141	 0.033438	 0.029615
O	 3.133947	 1.001041	 -0.133486
H	 2.940691	 -0.938899	 0.205847

	symmetry c1
}
set optking {
	frozen_dihedral = ("
		5 3 2 1
	")
}

ee = optimize('scf')
oeprop('DIPOLE', 'QUADRUPOLE', 'MULLIKEN_CHARGES')
f=open( 'psi4out.xyz', 'w' )
f.write( "15  " )
f.write( str(ee) + "\n" )
f.write( MOL.save_string_xyz() )
f.close()
--------------------------------------------------------------------------

    Molecular point group: c1
  Charge       = 0
  Multiplicity = 1
  Basis Set: CC-PVTZ
  Basis Set:
  @DF-RHF Final Energy:  -418.44033423015395
    Total Energy =                       -418.4403342301538942
    Molecular point group: c1
  Basis Set: CC-PVTZ
  Basis Set:
  Basis Set: CC-PVTZ
  Basis Set:
  @DF-RHF Final Energy:  -418.44219677570158
    Total Energy =                       -418.4421967757017455
  Basis Set: CC-PVTZ
  Basis Set:
  Basis Set: CC-PVTZ
  Basis Set:
  @DF-RHF Final Energy:  -418.44235780017868
    Total Energy =                       -418.4423578001784563
  Basis Set: CC-PVTZ
  Basis Set:
  Basis Set: CC-PVTZ
  Basis Set:
  @DF-RHF Final Energy:  -418.44216943330730
    Total Energy =                       -418.4421694333071855
  Basis Set: CC-PVTZ
  Basis Set:
  Basis Set: CC-PVTZ
  Basis Set:
  @DF-RHF Final Energy:  -418.44237991970277
    Total Energy =                       -418.4423799197030576
  Basis Set: CC-PVTZ
  Basis Set:
  Basis Set: CC-PVTZ
  Basis Set:
  @DF-RHF Final Energy:  -418.44238242604769
    Total Energy =                       -418.4423824260476295
  Basis Set: CC-PVTZ
  Basis Set:
  Charge       = 0
  Multiplicity = 1
  Basis Set: CC-PVTZ
  Basis Set:

    Orbital Energies (a.u.)
    -----------------------

    Doubly Occupied:

       1A    -20.604736     2A    -20.545539     3A    -11.322675
       4A    -11.322653     5A    -11.260660     6A    -11.251957
       7A    -11.242479     8A    -11.237157     9A    -11.236415
      10A     -1.437800    11A     -1.401822    12A     -1.175287
      13A     -1.046744    14A     -1.040407    15A     -0.897329
      16A     -0.861719    17A     -0.806044    18A     -0.761651
      19A     -0.699356    20A     -0.690948    21A     -0.642819
      22A     -0.629164    23A     -0.617078    24A     -0.611330
      25A     -0.585593    26A     -0.561632    27A     -0.555354
      28A     -0.509302    29A     -0.490288    30A     -0.421469
      31A     -0.362005    32A     -0.332401

  @DF-RHF Final Energy:  -418.44238289829286

   => Energetics <=

    Nuclear Repulsion Energy =            402.2747171603366496
    One-Electron Energy =               -1367.1105760094048946
    Two-Electron Energy =                 546.3934759507756098
    DFT Exchange-Correlation Energy =       0.0000000000000000
    Empirical Dispersion Energy =           0.0000000000000000
    PCM Polarization Energy =               0.0000000000000000
    EFP Energy =                            0.0000000000000000
    Total Energy =                       -418.4423828982926352
    Molecular point group: c1
  Basis Set: CC-PVTZ
  Basis Set:

  -Total Gradient:
     Atom            X                  Y                   Z
    ------   -----------------  -----------------  -----------------
       1       -0.000020432168     0.000003129108    -0.001230349557
       2       -0.000085271455     0.000056497320     0.002068071910
       3       -0.000010869710    -0.000177085674    -0.001797956832
       4        0.000052888020    -0.000006045347     0.000025699260
       5        0.000047250634     0.000110769188     0.000927456714
       6        0.000003553310     0.000000126467    -0.000001144842
       7        0.000011291813    -0.000009702954     0.000009849579
       8       -0.000004483585     0.000003709628     0.000001151721
       9       -0.000012507449    -0.000033157568     0.000025229961
      10        0.000001212268     0.000001129502    -0.000004212877
      11       -0.000005790304     0.000016401386    -0.000012309466
      12        0.000009477373     0.000007875642    -0.000005170915
      13       -0.000014492686     0.000007904030    -0.000007408508
      14        0.000036082806     0.000006902677     0.000001884837
      15       -0.000007908876     0.000011546596    -0.000000790988

  **** Optimization is complete! (in 7 steps) ****
    Final optimized geometry and variables:
    Molecular point group: c1

    Geometry (in Angstrom), charge = 0, multiplicity = 1:

    H           -3.463169159341    -1.028947824331     0.004956618724
    O           -3.108852751587    -0.157711377951    -0.001873567518
    C           -1.767447964882    -0.175929275859     0.004434521699
    C           -1.113080001153     1.035921312178    -0.196587757654
    C           -1.044007397368    -1.334155229636     0.221815010236
    H           -1.697439023399     1.919455661820    -0.359226269876
    C            0.256462631412     1.075376292891    -0.184040947985
    H           -1.552040824767    -2.266324066474     0.385568643928
    C            0.336404620713    -1.278111297561     0.227804481029
    H            0.774282281345     2.001175806503    -0.338837743586
    C            1.000431120266    -0.083735097237     0.027153243563
    H            0.897816680902    -2.178920724619     0.394616445006
    C            2.474796580405    -0.047150017340     0.039665804824
    O            3.132582260389     0.925665158306    -0.122422019190
    H            2.954606083676    -1.016285121217     0.215717948629

  Mulliken Charges: (a.u.)
   Center  Symbol    Alpha    Beta     Spin     Total
       1     H     0.38548  0.38548  0.00000  0.22904
       2     O     4.16641  4.16641  0.00000 -0.33281
       3     C     2.84438  2.84438  0.00000  0.31124
       4     C     3.10725  3.10725  0.00000 -0.21450
       5     C     3.13398  3.13398  0.00000 -0.26797
       6     H     0.41533  0.41533  0.00000  0.16934
       7     C     3.05990  3.05990  0.00000 -0.11980
       8     H     0.43175  0.43175  0.00000  0.13649
       9     C     3.07400  3.07400  0.00000 -0.14799
      10     H     0.40727  0.40727  0.00000  0.18546
      11     C     3.00243  3.00243  0.00000 -0.00485
      12     H     0.42121  0.42121  0.00000  0.15757
      13     C     2.91132  2.91132  0.00000  0.17737
      14     O     4.17826  4.17826  0.00000 -0.35652
      15     H     0.46104  0.46104  0.00000  0.07793

   Total alpha = 32.00000, Total beta = 32.00000, Total charge =  0.00000
