  ==> Input File <==

--------------------------------------------------------------------------
set {
	reference rhf
	basis cc-pvtz
}

set_num_threads( 4 )
memory 2 gb

molecule MOL {
0 1

H	 -1.200377	 1.617270	 2.993913
O	 -0.953784	 1.089448	 2.257264
C	 -0.350797	 1.887183	 1.271342
C	 0.027642	 1.012027	 0.090274
H	 0.545766	 2.360344	 1.663848
H	 -1.025706	 2.679502	 0.959588
C	 -1.138737	 0.285728	 -0.581921
H	 0.748343	 0.277700	 0.435036
H	 0.539147	 1.636772	 -0.637924
C	 -1.933983	 -0.631436	 0.343653
H	 -0.763151	 -0.285569	 -1.422081
H	 -1.808359	 1.035291	 -0.992333
H	 -2.789188	 -1.049673	 -0.174718
H	 -1.335629	 -1.461368	 0.700418
H	 -2.305435	 -0.092167	 1.209725

	symmetry c1
}
set optking {
	frozen_dihedral = ("
		8 4 7 11
	")
}

ee = optimize('scf')
oeprop('DIPOLE', 'QUADRUPOLE', 'MULLIKEN_CHARGES')
f=open( 'psi4out.xyz', 'w' )
f.write( "15  " )
f.write( str(ee) + "\n" )
f.write( MOL.save_string_xyz() )
f.close()
--------------------------------------------------------------------------

    Molecular point group: c1
  Charge       = 0
  Multiplicity = 1
  Basis Set: CC-PVTZ
  Basis Set:
  @DF-RHF Final Energy:  -232.23015344919969
    Total Energy =                       -232.2301534491995199
    Molecular point group: c1
  Basis Set: CC-PVTZ
  Basis Set:
  Basis Set: CC-PVTZ
  Basis Set:
  @DF-RHF Final Energy:  -232.23478579058221
    Total Energy =                       -232.2347857905822366
  Basis Set: CC-PVTZ
  Basis Set:
  Basis Set: CC-PVTZ
  Basis Set:
  @DF-RHF Final Energy:  -232.23565660078842
    Total Energy =                       -232.2356566007884453
  Basis Set: CC-PVTZ
  Basis Set:
  Basis Set: CC-PVTZ
  Basis Set:
  @DF-RHF Final Energy:  -232.23582508936582
    Total Energy =                       -232.2358250893658465
  Basis Set: CC-PVTZ
  Basis Set:
  Basis Set: CC-PVTZ
  Basis Set:
  @DF-RHF Final Energy:  -232.23586442245315
    Total Energy =                       -232.2358644224529485
  Basis Set: CC-PVTZ
  Basis Set:
  Basis Set: CC-PVTZ
  Basis Set:
  @DF-RHF Final Energy:  -232.23586871474416
    Total Energy =                       -232.2358687147442424
  Basis Set: CC-PVTZ
  Basis Set:
  Charge       = 0
  Multiplicity = 1
  Basis Set: CC-PVTZ
  Basis Set:

    Orbital Energies (a.u.)
    -----------------------

    Doubly Occupied:

       1A    -20.546599     2A    -11.266984     3A    -11.211873
       4A    -11.210359     5A    -11.194476     6A     -1.364663
       7A     -1.063830     8A     -0.971399     9A     -0.864856
      10A     -0.777790    11A     -0.706559    12A     -0.648731
      13A     -0.606541    14A     -0.576109    15A     -0.555726
      16A     -0.539702    17A     -0.508753    18A     -0.473316
      19A     -0.466877    20A     -0.453440    21A     -0.429766

  @DF-RHF Final Energy:  -232.23586909643549

   => Energetics <=

    Nuclear Repulsion Energy =            192.5676542741003061
    One-Electron Energy =                -696.7303452603343885
    Two-Electron Energy =                 271.9268218897987026
    DFT Exchange-Correlation Energy =       0.0000000000000000
    Empirical Dispersion Energy =           0.0000000000000000
    PCM Polarization Energy =               0.0000000000000000
    EFP Energy =                            0.0000000000000000
    Total Energy =                       -232.2358690964354082
    Molecular point group: c1
  Basis Set: CC-PVTZ
  Basis Set:

  -Total Gradient:
     Atom            X                  Y                   Z
    ------   -----------------  -----------------  -----------------
       1        0.000004051370    -0.000000804105     0.000011656950
       2       -0.000007708565     0.000022644863    -0.000009719829
       3        0.000008996646    -0.000012298878     0.000015219949
       4       -0.000871976565    -0.000327797122     0.001675873211
       5        0.000003609783     0.000003665861     0.000004804429
       6       -0.000004328376    -0.000004838397    -0.000000406085
       7        0.000021395909     0.001366582426    -0.001295846618
       8        0.000709382380     0.000071881563    -0.001224191836
       9        0.000001754799     0.000003910569    -0.000000125735
      10       -0.000003065561     0.000006394012     0.000017396189
      11        0.000140891861    -0.001117112934     0.000824172362
      12        0.000004084633    -0.000003454459     0.000004239282
      13       -0.000014324072    -0.000012969028    -0.000011305353
      14        0.000002545931     0.000004977090    -0.000009020565
      15        0.000004689826    -0.000000781460    -0.000002746351

  **** Optimization is complete! (in 7 steps) ****
    Final optimized geometry and variables:
    Molecular point group: c1

    Geometry (in Angstrom), charge = 0, multiplicity = 1:

    H           -0.085921797550     0.983732096402     2.365875670908
    O            0.123603462914     0.407731157472     1.654107991731
    C            0.499253096385     1.155498227562     0.526213887683
    C            0.862965367009     0.227693907534    -0.620016928779
    H            1.359876891416     1.775297859993     0.764342439939
    H           -0.307989732206     1.819893563745     0.222731715901
    C           -0.300033615312    -0.453269354687    -1.345967957675
    H            1.562858230877    -0.517724824188    -0.254765960777
    H            1.406502700351     0.822912351520    -1.349055829315
    C           -1.145860302199    -1.407267326381    -0.505088275121
    H            0.117444314434    -1.013585866024    -2.177343184400
    H           -0.940928530811     0.308908607904    -1.781856188522
    H           -1.883824412489    -1.901267237552    -1.128049142804
    H           -0.529181489922    -2.173148836753    -0.047720856925
    H           -1.664203530168    -0.892347335337     0.291053338744

  Mulliken Charges: (a.u.)
   Center  Symbol    Alpha    Beta     Spin     Total
       1     H     0.39598  0.39598  0.00000  0.20804
       2     O     4.19748  4.19748  0.00000 -0.39496
       3     C     2.97695  2.97695  0.00000  0.04610
       4     C     3.09509  3.09509  0.00000 -0.19019
       5     H     0.46181  0.46181  0.00000  0.07638
       6     H     0.47253  0.47253  0.00000  0.05494
       7     C     3.09080  3.09080  0.00000 -0.18160
       8     H     0.45090  0.45090  0.00000  0.09820
       9     H     0.45002  0.45002  0.00000  0.09997
      10     C     3.14145  3.14145  0.00000 -0.28289
      11     H     0.45099  0.45099  0.00000  0.09802
      12     H     0.45678  0.45678  0.00000  0.08644
      13     H     0.45318  0.45318  0.00000  0.09365
      14     H     0.45499  0.45499  0.00000  0.09002
      15     H     0.45105  0.45105  0.00000  0.09789

   Total alpha = 21.00000, Total beta = 21.00000, Total charge = -0.00000
