  ==> Input File <==

--------------------------------------------------------------------------
set {
	reference rhf
	basis 6-31G*
}

set_num_threads( 1 )
memory 2 gb

molecule MOL {
0 1

H	 -2.695746	 0.091566	 -1.502706
O	 -3.452007	 0.283848	 -0.965577
C	 -3.181085	 -0.079926	 0.364119
C	 -1.765924	 0.277073	 0.805136
H	 -3.327791	 -1.152017	 0.410903
H	 -3.905698	 0.375695	 1.036898
C	 -0.677594	 -0.417312	 -0.014550
H	 -1.637766	 1.358238	 0.744969
H	 -1.659588	 0.017670	 1.857098
C	 0.738335	 -0.034840	 0.421385
H	 -0.814977	 -0.178223	 -1.064632
H	 -0.802730	 -1.495410	 0.071702
C	 1.822265	 -0.738362	 -0.399735
H	 0.853533	 1.043532	 0.342250
H	 0.871597	 -0.279636	 1.474438
C	 3.258060	 -0.455774	 0.057203
H	 1.718003	 -0.459167	 -1.447053
H	 1.651028	 -1.811884	 -0.354513
C	 3.709143	 0.994797	 -0.123830
H	 3.930637	 -1.101717	 -0.501982
H	 3.365259	 -0.739518	 1.102287
H	 3.601178	 1.310569	 -1.158127
H	 4.753787	 1.110486	 0.148516
H	 3.135362	 1.678896	 0.492569

	symmetry c1
}
set optking {
	frozen_dihedral = ("
		20 16 13 17,
		17 13 10 7,
		13 10 7 11,
		11 7 4 3,
		7 4 3 2
	")
}

ee = energy('scf')
oeprop('DIPOLE', 'QUADRUPOLE', 'MULLIKEN_CHARGES')
f=open( 'psi4out.xyz', 'w' )
f.write( "24  " )
f.write( str(ee) + "\n" )
f.write( MOL.save_string_xyz() )
f.close()
--------------------------------------------------------------------------

    Molecular point group: c1

    Geometry (in Angstrom), charge = 0, multiplicity = 1:

       Center              X                  Y                   Z               Mass
    ------------   -----------------  -----------------  -----------------  -----------------
           H         -2.702038091998     0.101424157910    -1.498727043451     1.007825032070
           O         -3.458299091998     0.293706157910    -0.961598043451    15.994914619560
           C         -3.187377091998    -0.070067842090     0.368097956549    12.000000000000
           C         -1.772216091998     0.286931157910     0.809114956549    12.000000000000
           H         -3.334083091998    -1.142158842090     0.414881956549     1.007825032070
           H         -3.911990091998     0.385553157910     1.040876956549     1.007825032070
           C         -0.683886091998    -0.407453842090    -0.010571043451    12.000000000000
           H         -1.644058091998     1.368096157910     0.748947956549     1.007825032070
           H         -1.665880091998     0.027528157910     1.861076956549     1.007825032070
           C          0.732042908002    -0.024981842090     0.425363956549    12.000000000000
           H         -0.821269091998    -0.168364842090    -1.060653043451     1.007825032070
           H         -0.809022091998    -1.485551842090     0.075680956549     1.007825032070
           C          1.815972908002    -0.728503842090    -0.395756043451    12.000000000000
           H          0.847240908002     1.053390157910     0.346228956549     1.007825032070
           H          0.865304908002    -0.269777842090     1.478416956549     1.007825032070
           C          3.251767908002    -0.445915842090     0.061181956549    12.000000000000
           H          1.711710908002    -0.449308842090    -1.443074043451     1.007825032070
           H          1.644735908002    -1.802025842090    -0.350534043451     1.007825032070
           C          3.702850908002     1.004655157910    -0.119851043451    12.000000000000
           H          3.924344908002    -1.091858842090    -0.498003043451     1.007825032070
           H          3.358966908002    -0.729659842090     1.106265956549     1.007825032070
           H          3.594885908002     1.320427157910    -1.154148043451     1.007825032070
           H          4.747494908002     1.120344157910     0.152494956549     1.007825032070
           H          3.129069908002     1.688754157910     0.496547956549     1.007825032070

  Charge       = 0
  Multiplicity = 1
  Basis Set: 6-31G*
  Basis Set:

    Orbital Energies (a.u.)
    -----------------------

    Doubly Occupied:

       1A    -20.548120     2A    -11.266365     3A    -11.226359
       4A    -11.220900     5A    -11.220727     6A    -11.218962
       7A    -11.218201     8A    -11.211025     9A     -1.357008
      10A     -1.096408    11A     -1.053433    12A     -0.989581
      13A     -0.921554    14A     -0.856727    15A     -0.802292
      16A     -0.783367    17A     -0.678882    18A     -0.659655
      19A     -0.629127    20A     -0.619608    21A     -0.606599
      22A     -0.590866    23A     -0.563860    24A     -0.537848
      25A     -0.528668    26A     -0.515008    27A     -0.494727
      28A     -0.483934    29A     -0.480311    30A     -0.465583
      31A     -0.459661    32A     -0.439427    33A     -0.426458

  @DF-RHF Final Energy:  -349.24373133764635

   => Energetics <=

    Nuclear Repulsion Energy =            385.3808871579144011
    One-Electron Energy =               -1236.9065705715343029
    Two-Electron Energy =                 502.2819520759725265
    DFT Exchange-Correlation Energy =       0.0000000000000000
    Empirical Dispersion Energy =           0.0000000000000000
    PCM Polarization Energy =               0.0000000000000000
    EFP Energy =                            0.0000000000000000
    Total Energy =                       -349.2437313376473185

  Mulliken Charges: (a.u.)
   Center  Symbol    Alpha    Beta     Spin     Total
       1     H     0.27642  0.27642  0.00000  0.44717
       2     O     4.37750  4.37750  0.00000 -0.75501
       3     C     2.98728  2.98728  0.00000  0.02543
       4     C     3.17283  3.17283  0.00000 -0.34566
       5     H     0.43087  0.43087  0.00000  0.13826
       6     H     0.41580  0.41580  0.00000  0.16840
       7     C     3.16129  3.16129  0.00000 -0.32259
       8     H     0.41588  0.41588  0.00000  0.16824
       9     H     0.42046  0.42046  0.00000  0.15908
      10     C     3.15243  3.15243  0.00000 -0.30486
      11     H     0.43200  0.43200  0.00000  0.13601
      12     H     0.41932  0.41932  0.00000  0.16136
      13     C     3.15307  3.15307  0.00000 -0.30614
      14     H     0.41917  0.41917  0.00000  0.16165
      15     H     0.42196  0.42196  0.00000  0.15608
      16     C     3.15277  3.15277  0.00000 -0.30553
      17     H     0.42400  0.42400  0.00000  0.15200
      18     H     0.42186  0.42186  0.00000  0.15629
      19     C     3.24149  3.24149  0.00000 -0.48298
      20     H     0.42022  0.42022  0.00000  0.15957
      21     H     0.42296  0.42296  0.00000  0.15407
      22     H     0.42194  0.42194  0.00000  0.15611
      23     H     0.41852  0.41852  0.00000  0.16297
      24     H     0.41997  0.41997  0.00000  0.16006

   Total alpha = 33.00000, Total beta = 33.00000, Total charge =  0.00000
