  ==> Input File <==

--------------------------------------------------------------------------
set {
	reference rhf
	basis cc-pvtz
}

set_num_threads( 4 )
memory 2 gb

molecule MOL {
0 1

O	 -2.399000	 1.394000	 -0.294000
C	 -2.179000	 0.236000	 -0.105000
C	 -0.963000	 -0.435000	 -0.719000
C	 -3.077000	 -0.611000	 0.768000
C	 0.307000	 -0.110000	 0.085000
H	 -0.856000	 -0.060000	 -1.731000
H	 -1.105000	 -1.511000	 -0.770000
C	 1.558000	 -0.745000	 -0.527000
H	 0.410000	 0.968000	 0.132000
H	 0.192000	 -0.460000	 1.109000
C	 2.844000	 -0.512000	 0.276000
H	 1.693000	 -0.367000	 -1.539000
H	 1.397000	 -1.817000	 -0.620000
C	 3.299000	 0.947000	 0.335000
H	 3.637000	 -1.108000	 -0.168000
H	 2.710000	 -0.891000	 1.287000
H	 3.431000	 1.355000	 -0.663000
H	 4.249000	 1.032000	 0.854000
H	 2.586000	 1.576000	 0.857000
H	 -3.570000	 -1.366000	 0.162000
H	 -3.823000	 0.010000	 1.244000
H	 -2.497000	 -1.135000	 1.522000

	symmetry c1
}
ee = optimize('scf')
oeprop('DIPOLE', 'QUADRUPOLE', 'MULLIKEN_CHARGES')
f=open( 'psi4out.xyz', 'w' )
f.write( "22  " )
f.write( str(ee) + "\n" )
f.write( MOL.save_string_xyz() )
f.close()
--------------------------------------------------------------------------

    Molecular point group: c1
  Charge       = 0
  Multiplicity = 1
  Basis Set: CC-PVTZ
  Basis Set:
  @DF-RHF Final Energy:  -348.22335768537118
    Total Energy =                       -348.2233576853712975
    Molecular point group: c1
  Basis Set: CC-PVTZ
  Basis Set:
  Basis Set: CC-PVTZ
  Basis Set:
  @DF-RHF Final Energy:  -348.22345710902442
    Total Energy =                       -348.2234571090243662
  Basis Set: CC-PVTZ
  Basis Set:
  Basis Set: CC-PVTZ
  Basis Set:
  @DF-RHF Final Energy:  -348.22205949418202
    Total Energy =                       -348.2220594941821901
  Basis Set: CC-PVTZ
  Basis Set:
  Basis Set: CC-PVTZ
  Basis Set:
  @DF-RHF Final Energy:  -348.22349616400430
    Total Energy =                       -348.2234961640044730
  Basis Set: CC-PVTZ
  Basis Set:
  @DF-RHF Final Energy:  -348.22346613488611
    Total Energy =                       -348.2234661348859390
  Basis Set: CC-PVTZ
  Basis Set:
  @DF-RHF Final Energy:  -348.22350592500300
    Total Energy =                       -348.2235059250022573
  Basis Set: CC-PVTZ
  Basis Set:
  Basis Set: CC-PVTZ
  Basis Set:
  @DF-RHF Final Energy:  -348.22350768176358
    Total Energy =                       -348.2235076817631239
  Basis Set: CC-PVTZ
  Basis Set:
  Basis Set: CC-PVTZ
  Basis Set:
  @DF-RHF Final Energy:  -348.22350932144832
    Total Energy =                       -348.2235093214484323
  Basis Set: CC-PVTZ
  Basis Set:
  Charge       = 0
  Multiplicity = 1
  Basis Set: CC-PVTZ
  Basis Set:

    Orbital Energies (a.u.)
    -----------------------

    Doubly Occupied:

       1A    -20.536748     2A    -11.319293     3A    -11.227978
       4A    -11.227384     5A    -11.226916     6A    -11.220636
       7A    -11.219059     8A    -11.209465     9A     -1.396825
      10A     -1.097367    11A     -1.045720    12A     -1.000252
      13A     -0.938898    14A     -0.858651    15A     -0.787218
      16A     -0.734258    17A     -0.664337    18A     -0.646529
      19A     -0.628053    20A     -0.622526    21A     -0.598267
      22A     -0.584347    23A     -0.564230    24A     -0.541016
      25A     -0.536189    26A     -0.520653    27A     -0.499455
      28A     -0.490624    29A     -0.471697    30A     -0.464878
      31A     -0.462214    32A     -0.398490

  @DF-RHF Final Energy:  -348.22350992716758

   => Energetics <=

    Nuclear Repulsion Energy =            373.6380716209113189
    One-Electron Energy =               -1212.2428256820874140
    Two-Electron Energy =                 490.3812441340087958
    DFT Exchange-Correlation Energy =       0.0000000000000000
    Empirical Dispersion Energy =           0.0000000000000000
    PCM Polarization Energy =               0.0000000000000000
    EFP Energy =                            0.0000000000000000
    Total Energy =                       -348.2235099271672993
    Molecular point group: c1
  Basis Set: CC-PVTZ
  Basis Set:

  -Total Gradient:
     Atom            X                  Y                   Z
    ------   -----------------  -----------------  -----------------
       1        0.000020391179     0.000102660160     0.000003580562
       2       -0.000070371315    -0.000065530512    -0.000022751754
       3        0.000065399096    -0.000018184642     0.000032906017
       4       -0.000017392911    -0.000009995737     0.000024063989
       5       -0.000011556699     0.000026502485    -0.000007748295
       6        0.000015653979     0.000003517073    -0.000028249987
       7        0.000008984307     0.000003355658    -0.000011009892
       8       -0.000006980384    -0.000010095040    -0.000020687500
       9        0.000009723733     0.000002109435     0.000002823224
      10       -0.000020412828    -0.000010792914    -0.000002285603
      11        0.000003210702     0.000005596382     0.000011479314
      12       -0.000014384608    -0.000009421801    -0.000012954857
      13        0.000004003428    -0.000007489910     0.000005180403
      14        0.000005703971    -0.000005946884    -0.000001905673
      15        0.000013052241     0.000006389066     0.000002885949
      16        0.000003171552    -0.000001146400     0.000004804121
      17       -0.000006477772    -0.000000546681    -0.000001204757
      18        0.000011601795     0.000003678983     0.000000957811
      19       -0.000006347138    -0.000000844577     0.000004597196
      20       -0.000010157298    -0.000020856192     0.000005592731
      21       -0.000008535245    -0.000002360010     0.000012555408
      22        0.000011720219     0.000009402058    -0.000002628407

  **** Optimization is complete! (in 9 steps) ****
    Final optimized geometry and variables:
    Molecular point group: c1

    Geometry (in Angstrom), charge = 0, multiplicity = 1:

    O           -2.374408748082     1.338659856858    -0.336960743613
    C           -2.104891151864     0.204654911280    -0.107125524295
    C           -0.881910017894    -0.448129366989    -0.720508992137
    C           -2.949910013664    -0.638218861123     0.818225475067
    C            0.376694853134    -0.140025631379     0.100361171689
    H           -0.767741438414    -0.053838013738    -1.722312585842
    H           -1.023300241064    -1.521454146550    -0.790132287705
    C            1.630207120904    -0.772146325332    -0.501001078210
    H            0.486632205942     0.935266573542     0.162725175116
    H            0.248225380752    -0.501309892764     1.117841795861
    C            2.907848133958    -0.545875875940     0.309148554402
    H            1.772783779109    -0.391627903529    -1.509394280263
    H            1.468528741836    -1.842059398676    -0.599743520558
    C            3.373801820415     0.906638969718     0.372125480296
    H            3.699139742782    -1.146831200278    -0.127906189646
    H            2.764320855951    -0.923457872877     1.318191238932
    H            3.519798439994     1.311926210793    -0.623874658310
    H            4.316899244168     0.983757801276     0.900700401879
    H            2.661121978849     1.540650326984     0.885345891906
    H           -3.440321467597    -1.417144795532     0.243098798705
    H           -3.694376811562    -0.025850080780     1.303346155533
    H           -2.331085354639    -1.129828837049     1.560494948522

  Mulliken Charges: (a.u.)
   Center  Symbol    Alpha    Beta     Spin     Total
       1     O     4.17782  4.17782  0.00000 -0.35564
       2     C     2.85851  2.85851  0.00000  0.28298
       3     C     3.09713  3.09713  0.00000 -0.19425
       4     C     3.15523  3.15523  0.00000 -0.31047
       5     C     3.10426  3.10426  0.00000 -0.20853
       6     H     0.43903  0.43903  0.00000  0.12194
       7     H     0.44860  0.44860  0.00000  0.10281
       8     C     3.09668  3.09668  0.00000 -0.19336
       9     H     0.43856  0.43856  0.00000  0.12288
      10     H     0.45222  0.45222  0.00000  0.09556
      11     C     3.09076  3.09076  0.00000 -0.18153
      12     H     0.45085  0.45085  0.00000  0.09830
      13     H     0.44883  0.44883  0.00000  0.10235
      14     C     3.15174  3.15174  0.00000 -0.30348
      15     H     0.44762  0.44762  0.00000  0.10475
      16     H     0.45466  0.45466  0.00000  0.09068
      17     H     0.45377  0.45377  0.00000  0.09246
      18     H     0.44619  0.44619  0.00000  0.10763
      19     H     0.45239  0.45239  0.00000  0.09523
      20     H     0.44835  0.44835  0.00000  0.10330
      21     H     0.43606  0.43606  0.00000  0.12787
      22     H     0.45074  0.45074  0.00000  0.09851

   Total alpha = 32.00000, Total beta = 32.00000, Total charge =  0.00000
