  ==> Input File <==

--------------------------------------------------------------------------
set {
	reference rhf
	basis 6-31G*
}

set_num_threads( 4 )
memory 2 gb

molecule MOL {
0 1

H	 -3.135461	 -1.215070	 0.001379
O	 -2.310168	 -0.871793	 -0.309793
C	 -2.026376	 0.340750	 0.341611
C	 -0.673256	 0.843270	 -0.132153
H	 -2.792215	 1.080697	 0.115987
H	 -2.013526	 0.200402	 1.421792
C	 0.486613	 -0.083066	 0.235839
H	 -0.715586	 0.970948	 -1.210718
H	 -0.508072	 1.829858	 0.297090
C	 0.226205	 -0.886261	 1.511331
H	 1.389350	 0.507284	 0.354442
H	 0.671932	 -0.770325	 -0.588887
C	 1.382847	 -1.816297	 1.875862
H	 0.041756	 -0.201036	 2.336051
H	 -0.683347	 -1.471971	 1.392579
H	 2.299674	 -1.256034	 2.035310
H	 1.171382	 -2.370938	 2.785038
H	 1.570643	 -2.537121	 1.084877

	symmetry c1
}
set optking {
	frozen_dihedral = ("
		10 7 4 8
	")
}

ee = optimize('scf')
oeprop('DIPOLE', 'QUADRUPOLE', 'MULLIKEN_CHARGES')
f=open( 'psi4out.xyz', 'w' )
f.write( "18  " )
f.write( str(ee) + "\n" )
f.write( MOL.save_string_xyz() )
f.close()
--------------------------------------------------------------------------

    Molecular point group: c1
  Charge       = 0
  Multiplicity = 1
  Basis Set: 6-31G*
  Basis Set:
  @DF-RHF Final Energy:  -271.17215891502707
    Total Energy =                       -271.1721589150270120
    Molecular point group: c1
  Basis Set: 6-31G*
  Basis Set:
  Basis Set: 6-31G*
  Basis Set:
  @DF-RHF Final Energy:  -271.17363945292766
    Total Energy =                       -271.1736394529275458
  Basis Set: 6-31G*
  Basis Set:
  Basis Set: 6-31G*
  Basis Set:
  @DF-RHF Final Energy:  -271.17460113083598
    Total Energy =                       -271.1746011308359812
  Basis Set: 6-31G*
  Basis Set:
  Basis Set: 6-31G*
  Basis Set:
  @DF-RHF Final Energy:  -271.17470019363708
    Total Energy =                       -271.1747001936371362
  Basis Set: 6-31G*
  Basis Set:
  Basis Set: 6-31G*
  Basis Set:
  @DF-RHF Final Energy:  -271.17473124823596
    Total Energy =                       -271.1747312482360712
  Basis Set: 6-31G*
  Basis Set:
  Basis Set: 6-31G*
  Basis Set:
  @DF-RHF Final Energy:  -271.17473843696541
    Total Energy =                       -271.1747384369653560
  Basis Set: 6-31G*
  Basis Set:
  Charge       = 0
  Multiplicity = 1
  Basis Set: 6-31G*
  Basis Set:

    Orbital Energies (a.u.)
    -----------------------

    Doubly Occupied:

       1A    -20.554277     2A    -11.267330     3A    -11.212709
       4A    -11.208048     5A    -11.207367     6A    -11.203370
       7A     -1.360433     8A     -1.071822     9A     -1.005731
      10A     -0.912392    11A     -0.833096    12A     -0.765044
      13A     -0.705841    14A     -0.643799    15A     -0.626317
      16A     -0.582895    17A     -0.560831    18A     -0.552411
      19A     -0.535886    20A     -0.496426    21A     -0.491437
      22A     -0.462470    23A     -0.454304    24A     -0.444764
      25A     -0.429249

  @DF-RHF Final Energy:  -271.17473875287340

   => Energetics <=

    Nuclear Repulsion Energy =            255.4068716801037624
    One-Electron Energy =                -873.9867252542916276
    Two-Electron Energy =                 347.4051148213143279
    DFT Exchange-Correlation Energy =       0.0000000000000000
    Empirical Dispersion Energy =           0.0000000000000000
    PCM Polarization Energy =               0.0000000000000000
    EFP Energy =                            0.0000000000000000
    Total Energy =                       -271.1747387528735089
    Molecular point group: c1
  Basis Set: 6-31G*
  Basis Set:

  -Total Gradient:
     Atom            X                  Y                   Z
    ------   -----------------  -----------------  -----------------
       1        0.000001490745     0.000010324540    -0.000000179915
       2        0.000028083080     0.000017643908     0.000004645983
       3       -0.000014995824    -0.000025236100     0.000010036150
       4        0.003739009944     0.004205592104    -0.000699387527
       5        0.000010740154     0.000000580657    -0.000005401128
       6        0.000000986607     0.000009092444     0.000005274717
       7        0.001966451706     0.003638489021     0.003345129515
       8       -0.003769924399    -0.004599093549    -0.000297531995
       9       -0.000006469719    -0.000005542472     0.000002258189
      10       -0.001987201215    -0.003282623115    -0.002357531221
      11        0.000010092658     0.000001081560    -0.000001202732
      12       -0.000011537145     0.000005309707     0.000009209669
      13        0.000015639891     0.000008678861    -0.000011248924
      14       -0.000000995174     0.000008256902    -0.000004312658
      15        0.000013067201     0.000005459641    -0.000000288076
      16        0.000010701118    -0.000002509110     0.000005016647
      17       -0.000007149404     0.000004952704    -0.000004866937
      18        0.000002009775    -0.000000457705     0.000000380244

  **** Optimization is complete! (in 7 steps) ****
    Final optimized geometry and variables:
    Molecular point group: c1

    Geometry (in Angstrom), charge = 0, multiplicity = 1:

    H           -2.702145577435    -0.679669044604    -0.686296837294
    O           -1.837321465066    -0.384857379658    -0.933799465407
    C           -1.545524517950     0.827562181269    -0.283769405338
    C           -0.146664336031     1.267663596591    -0.690013998664
    H           -2.257325275702     1.595917188233    -0.580625580304
    H           -1.623105339707     0.713114362647     0.794375017258
    C            0.996779120676     0.305213034103    -0.305690940189
    H           -0.175048121953     1.360222918818    -1.771365366900
    H            0.027460754083     2.255153771783    -0.270697674219
    C            0.802552398310    -0.505561309661     0.978708893684
    H            1.920554672750     0.874991564753    -0.238248217676
    H            1.138037782047    -0.401102485320    -1.118669027582
    C            2.017705164225    -1.376925124820     1.297093862421
    H            0.615372086461     0.161684594606     1.818987782038
    H           -0.073499448103    -1.135367174227     0.875816999162
    H            2.909048553573    -0.773133554388     1.443522674097
    H            1.859356551321    -1.957052957666     2.201253509568
    H            2.220719243033    -2.073963510326     0.488910166066

  Mulliken Charges: (a.u.)
   Center  Symbol    Alpha    Beta     Spin     Total
       1     H     0.28069  0.28069  0.00000  0.43862
       2     O     4.36984  4.36984  0.00000 -0.73968
       3     C     3.00277  3.00277  0.00000 -0.00554
       4     C     3.16193  3.16193  0.00000 -0.32385
       5     H     0.42819  0.42819  0.00000  0.14362
       6     H     0.42939  0.42939  0.00000  0.14122
       7     C     3.14914  3.14914  0.00000 -0.29827
       8     H     0.41297  0.41297  0.00000  0.17406
       9     H     0.42276  0.42276  0.00000  0.15448
      10     C     3.15914  3.15914  0.00000 -0.31828
      11     H     0.42387  0.42387  0.00000  0.15226
      12     H     0.41581  0.41581  0.00000  0.16839
      13     C     3.23920  3.23920  0.00000 -0.47840
      14     H     0.42803  0.42803  0.00000  0.14393
      15     H     0.41112  0.41112  0.00000  0.17776
      16     H     0.42334  0.42334  0.00000  0.15332
      17     H     0.42093  0.42093  0.00000  0.15815
      18     H     0.42090  0.42090  0.00000  0.15821

   Total alpha = 25.00000, Total beta = 25.00000, Total charge = -0.00000
