  ==> Input File <==

--------------------------------------------------------------------------
set {
	reference rhf
	basis 6-31G*
}

set_num_threads( 4 )
memory 2 gb

molecule MOL {
0 1

H	 -0.186125	 -0.830362	 -0.875758
N	 -0.626943	 -0.667432	 -0.000092
C	 -1.979713	 -0.158776	 0.000050
C	 0.069410	 -0.934696	 1.131203
H	 -2.520245	 -0.492427	 -0.879443
H	 -1.934741	 0.918111	 -0.004428
H	 -2.517790	 -0.485056	 0.883818
C	 1.471466	 -1.460793	 0.897869
O	 -0.377902	 -0.771200	 2.232746
H	 2.063024	 -0.740225	 0.341816
H	 1.938914	 -1.644920	 1.853530
H	 1.444469	 -2.383973	 0.327476

	symmetry c1
}
set optking {
	frozen_dihedral = ("
		4 2 3 5
	")
}

ee = optimize('scf')
oeprop('DIPOLE', 'QUADRUPOLE', 'MULLIKEN_CHARGES')
f=open( 'psi4out.xyz', 'w' )
f.write( "12  " )
f.write( str(ee) + "\n" )
f.write( MOL.save_string_xyz() )
f.close()
--------------------------------------------------------------------------

    Molecular point group: c1
  Charge       = 0
  Multiplicity = 1
  Basis Set: 6-31G*
  Basis Set:
  @DF-RHF Final Energy:  -247.00470114371620
    Total Energy =                       -247.0047011437162041
    Molecular point group: c1
  Basis Set: 6-31G*
  Basis Set:
  Basis Set: 6-31G*
  Basis Set:
  @DF-RHF Final Energy:  -247.00541342498158
    Total Energy =                       -247.0054134249816116
  Basis Set: 6-31G*
  Basis Set:
  Basis Set: 6-31G*
  Basis Set:
  @DF-RHF Final Energy:  -247.00553026033515
    Total Energy =                       -247.0055302603349787
  Basis Set: 6-31G*
  Basis Set:
  Basis Set: 6-31G*
  Basis Set:
  @DF-RHF Final Energy:  -247.00546271298194
    Total Energy =                       -247.0054627129820233
  Basis Set: 6-31G*
  Basis Set:
  @DF-RHF Final Energy:  -247.00558448023656
    Total Energy =                       -247.0055844802366209
  @DF-RHF Final Energy:  -247.00560443927114
    Total Energy =                       -247.0056044392709964
  @DF-RHF Final Energy:  -247.00562145307219
    Total Energy =                       -247.0056214530721945
  @DF-RHF Final Energy:  -247.00562347208765
    Total Energy =                       -247.0056234720876773
  @DF-RHF Final Energy:  -247.00563125535484
    Total Energy =                       -247.0056312553550129
  @DF-RHF Final Energy:  -247.00562340960440
    Total Energy =                       -247.0056234096042544
  @DF-RHF Final Energy:  -247.00566874211543
    Total Energy =                       -247.0056687421152901
  @DF-RHF Final Energy:  -247.00570844427543
    Total Energy =                       -247.0057084442755126
  @DF-RHF Final Energy:  -247.00573260034705
    Total Energy =                       -247.0057326003470735
  Basis Set: 6-31G*
  Basis Set:
  @DF-RHF Final Energy:  -247.00573109829250
    Total Energy =                       -247.0057310982925287
  Basis Set: 6-31G*
  Basis Set:
  Basis Set: 6-31G*
  Basis Set:
  @DF-RHF Final Energy:  -247.00573084660451
    Total Energy =                       -247.0057308466043651
  Basis Set: 6-31G*
  Basis Set:
  Basis Set: 6-31G*
  Basis Set:
  @DF-RHF Final Energy:  -247.00574720361641
    Total Energy =                       -247.0057472036163517
  Basis Set: 6-31G*
  Basis Set:
  Charge       = 0
  Multiplicity = 1
  Basis Set: 6-31G*
  Basis Set:

    Orbital Energies (a.u.)
    -----------------------

    Doubly Occupied:

       1A    -20.514010     2A    -15.582854     3A    -11.342516
       4A    -11.254511     5A    -11.230070     6A     -1.383447
       7A     -1.228670     8A     -1.015208     9A     -0.932565
      10A     -0.787572    11A     -0.689212    12A     -0.648430
      13A     -0.632409    14A     -0.585520    15A     -0.579697
      16A     -0.554163    17A     -0.546019    18A     -0.504137
      19A     -0.412521    20A     -0.385167

  @DF-RHF Final Energy:  -247.00574730905453

   => Energetics <=

    Nuclear Repulsion Energy =            181.3937736448358464
    One-Electron Energy =                -695.1816436328457485
    Two-Electron Energy =                 266.7821226789554885
    DFT Exchange-Correlation Energy =       0.0000000000000000
    Empirical Dispersion Energy =           0.0000000000000000
    PCM Polarization Energy =               0.0000000000000000
    EFP Energy =                            0.0000000000000000
    Total Energy =                       -247.0057473090544136
    Molecular point group: c1
  Basis Set: 6-31G*
  Basis Set:

  -Total Gradient:
     Atom            X                  Y                   Z
    ------   -----------------  -----------------  -----------------
       1        0.000003573415    -0.000003932714    -0.000008058309
       2        0.000107016977     0.000231781922    -0.000044901050
       3        0.000029896106     0.000103387618    -0.000167598774
       4       -0.000066165769    -0.000188450288     0.000049116849
       5       -0.000069472936    -0.000150876207     0.000149573407
       6        0.000000858393    -0.000002036131     0.000000672820
       7       -0.000007962143     0.000004850517     0.000003336933
       8       -0.000003712044    -0.000000246869     0.000001885829
       9        0.000005225177     0.000000417323     0.000009889409
      10        0.000002577301     0.000004343778     0.000001016543
      11        0.000001713435    -0.000001376880     0.000001863526
      12       -0.000003547910     0.000002137931     0.000003202813

  **** Optimization is complete! (in 17 steps) ****
    Final optimized geometry and variables:
    Molecular point group: c1

    Geometry (in Angstrom), charge = 0, multiplicity = 1:

    H            0.012997595486    -0.260419561665    -1.715047603887
    N           -0.390618722407    -0.028983102328    -0.837636918565
    C           -1.699601342605     0.585106008976    -0.826135779815
    C            0.375467309209    -0.122883744584     0.273776532489
    H           -2.322006803105     0.120121698950    -1.580585832706
    H           -1.650546292346     1.652317942807    -1.019694379595
    H           -2.147829079361     0.432477830542     0.143007773798
    C            1.762676547268    -0.693645357792     0.063758678103
    O           -0.001725273716     0.231536728751     1.357247849752
    H            2.470457278390     0.126224960037    -0.004862995560
    H            2.026002024311    -1.290429407461     0.925933903344
    H            1.844049389820    -1.296732868371    -0.833155154725

  Mulliken Charges: (a.u.)
   Center  Symbol    Alpha    Beta     Spin     Total
       1     H     0.31027  0.31027  0.00000  0.37945
       2     N     3.89315  3.89315  0.00000 -0.78630
       3     C     3.13953  3.13953  0.00000 -0.27906
       4     C     2.62907  2.62907  0.00000  0.74186
       5     H     0.41671  0.41671  0.00000  0.16659
       6     H     0.41508  0.41508  0.00000  0.16984
       7     H     0.39083  0.39083  0.00000  0.21834
       8     C     3.29093  3.29093  0.00000 -0.58186
       9     O     4.30364  4.30364  0.00000 -0.60729
      10     H     0.39985  0.39985  0.00000  0.20031
      11     H     0.39407  0.39407  0.00000  0.21186
      12     H     0.41687  0.41687  0.00000  0.16626

   Total alpha = 20.00000, Total beta = 20.00000, Total charge =  0.00000
