                              Psi4 1.0.54 Driver

  ==> Input File <==

--------------------------------------------------------------------------
set {
	reference rhf
	basis cc-pvtz
}

set_num_threads( 4 )
memory 2 gb

molecule MOL {
0 1

H	 -1.835082	 1.385983	 0.000069
C	 -1.300516	 0.441153	 -0.000028
O	 -0.006604	 0.654344	 -0.000106
O	 -1.828920	 -0.612308	 0.000113
C	 0.544549	 1.384445	 1.092142
C	 2.033434	 1.498117	 0.866308
H	 0.318955	 0.861872	 2.010828
H	 0.072356	 2.355524	 1.136883
H	 2.492187	 0.518650	 0.819821
H	 2.484516	 2.050022	 1.682262
H	 2.244352	 2.019790	 -0.058538

	symmetry c1
}
set optking {
	frozen_dihedral = ("
		5 3 2 4
	")
}

ee,wfn = optimize('scf', return_wfn=True)
oeprop( wfn, 'DIPOLE', 'QUADRUPOLE', 'MULLIKEN_CHARGES')
f=open( 'psi4out.xyz', 'w' )
f.write( "11  " )
f.write( str(ee) + "\n" )
f.write( MOL.save_string_xyz() )
f.close()
--------------------------------------------------------------------------

    Molecular point group: c1
  Charge       = 0
  Multiplicity = 1
  Basis Set: CC-PVTZ
  Basis Set:
  @DF-RHF Final Energy:  -266.91465366569832
    Total Energy =                       -266.9146536656983812
    Molecular point group: c1
  Basis Set: CC-PVTZ
  Basis Set:
  Basis Set: CC-PVTZ
  Basis Set:
  @DF-RHF Final Energy:  -266.91568766870864
    Total Energy =                       -266.9156876687086424
  Basis Set: CC-PVTZ
  Basis Set:
  Basis Set: CC-PVTZ
  Basis Set:
  @DF-RHF Final Energy:  -266.91570453468159
    Total Energy =                       -266.9157045346814243
  Basis Set: CC-PVTZ
  Basis Set:
  Basis Set: CC-PVTZ
  Basis Set:
  @DF-RHF Final Energy:  -266.91592518287007
    Total Energy =                       -266.9159251828701827
  Basis Set: CC-PVTZ
  Basis Set:
  Basis Set: CC-PVTZ
  Basis Set:
  @DF-RHF Final Energy:  -266.91601279758243
    Total Energy =                       -266.9160127975824821
  Basis Set: CC-PVTZ
  Basis Set:
  Basis Set: CC-PVTZ
  Basis Set:
  @DF-RHF Final Energy:  -266.91602181922764
    Total Energy =                       -266.9160218192275806
  Basis Set: CC-PVTZ
  Basis Set:
  Basis Set: CC-PVTZ
  Basis Set:
  @DF-RHF Final Energy:  -266.91602288832019
    Total Energy =                       -266.9160228883201285
  Basis Set: CC-PVTZ
  Basis Set:
  Charge       = 0
  Multiplicity = 1
  Basis Set: CC-PVTZ
  Basis Set:

    Orbital Energies (a.u.)
    -----------------------

    Doubly Occupied:

       1A    -20.592513     2A    -20.556376     3A    -11.373445
       4A    -11.302843     5A    -11.229621     6A     -1.472417
       7A     -1.384856     8A     -1.052307     9A     -0.887605
      10A     -0.839547    11A     -0.743713    12A     -0.693972
      13A     -0.658019    14A     -0.633308    15A     -0.567871
      16A     -0.547214    17A     -0.539143    18A     -0.510492
      19A     -0.467610    20A     -0.456570

  @DF-RHF Final Energy:  -266.91602304420690

   => Energetics <=

    Nuclear Repulsion Energy =            176.9400310261391382
    One-Electron Energy =                -714.6932213133720779
    Two-Electron Energy =                 270.8371672430258741
    DFT Exchange-Correlation Energy =       0.0000000000000000
    Empirical Dispersion Energy =           0.0000000000000000
    PCM Polarization Energy =               0.0000000000000000
    EFP Energy =                            0.0000000000000000
    Total Energy =                       -266.9160230442070088
    Molecular point group: c1
  Basis Set: CC-PVTZ
  Basis Set:

  -Total Gradient:
     Atom            X                  Y                   Z
    ------   -----------------  -----------------  -----------------
       1        0.000003904006    -0.000007625549     0.000010407118
       2        0.000250845786    -0.002520844540    -0.007077478606
       3       -0.000263687936     0.005337614518    -0.000972808322
       4       -0.000136792587     0.000611227559     0.005536197972
       5        0.000146727402    -0.003419968493     0.002507443726
       6        0.000012852978     0.000006527736     0.000008600218
       7       -0.000018342566    -0.000005420833    -0.000011102125
       8        0.000002286840    -0.000004013946     0.000000778303
       9        0.000000743832     0.000003065023     0.000000388691
      10        0.000004149303    -0.000001736137    -0.000000251535
      11       -0.000002687055     0.000001174663    -0.000002175440

  **** Optimization is complete! (in 8 steps) ****
    Final optimized geometry and variables:
    Molecular point group: c1

    Geometry (in Angstrom), charge = 0, multiplicity = 1:

    H           -1.682064603351     0.785968535439    -0.505547924543
    C           -1.199628333330    -0.186780954474    -0.398822602642
    O            0.129019477537    -0.114664750132    -0.370058204016
    O           -1.802963145521    -1.186165812933    -0.307811028649
    C            0.696030183393     0.667478945196     0.667724197116
    C            2.174142950540     0.819343292154     0.398470116264
    H            0.522139019351     0.167890048248     1.613216046695
    H            0.208603124296     1.637934897791     0.701558504689
    H            2.652107714429    -0.150400027176     0.357431435812
    H            2.634769794637     1.399317607577     1.189273210188
    H            2.340254963318     1.325045126506    -0.543935260974

  Mulliken Charges: (a.u.)
   Center  Symbol    Alpha    Beta     Spin     Total
       1     H     0.47253  0.47253  0.00000  0.05494
       2     C     2.84022  2.84022  0.00000  0.31955
       3     O     4.14544  4.14544  0.00000 -0.29088
       4     O     4.16449  4.16449  0.00000 -0.32899
       5     C     2.97200  2.97200  0.00000  0.05599
       6     C     3.13314  3.13314  0.00000 -0.26627
       7     H     0.45646  0.45646  0.00000  0.08709
       8     H     0.46553  0.46553  0.00000  0.06893
       9     H     0.44514  0.44514  0.00000  0.10972
      10     H     0.45563  0.45563  0.00000  0.08874
      11     H     0.44941  0.44941  0.00000  0.10117

   Total alpha = 20.00000, Total beta = 20.00000, Total charge = -0.00000

*** Psi4 exiting successfully. Buy a developer a beer!
