  ==> Input File <==

--------------------------------------------------------------------------
set {
	reference rhf
	basis cc-pvtz
}

set_num_threads( 4 )
memory 2 gb

molecule MOL {
0 1

H	 -0.366580	 2.045936	 -0.305741
C	 0.351829	 1.335402	 0.083179
N	 -0.000018	 0.000080	 -0.334836
H	 1.327156	 1.599860	 -0.305475
H	 0.380566	 1.445403	 1.171445
C	 -1.194601	 -0.473787	 0.321518
C	 -0.093491	 -0.109265	 -1.770645
H	 -1.389307	 -1.500503	 0.038608
H	 -1.063470	 -0.442480	 1.395767
H	 -2.079426	 0.119273	 0.071650
H	 0.842606	 0.188360	 -2.225973
H	 -0.289618	 -1.136334	 -2.051338
H	 -0.887517	 0.514043	 -2.192690

	symmetry c1
}
set optking {
	frozen_dihedral = ("
		6 3 2 1
	")
}

ee = optimize('scf')
oeprop('DIPOLE', 'QUADRUPOLE', 'MULLIKEN_CHARGES')
f=open( 'psi4out.xyz', 'w' )
f.write( "13  " )
f.write( str(ee) + "\n" )
f.write( MOL.save_string_xyz() )
f.close()
--------------------------------------------------------------------------

    Molecular point group: c1
  Charge       = 0
  Multiplicity = 1
  Basis Set: CC-PVTZ
  Basis Set:
  @DF-RHF Final Energy:  -173.33311711419427
    Total Energy =                       -173.3331171141942662
    Molecular point group: c1
  Basis Set: CC-PVTZ
  Basis Set:
  Basis Set: CC-PVTZ
  Basis Set:
  @DF-RHF Final Energy:  -173.33376801026492
    Total Energy =                       -173.3337680102650040
  Basis Set: CC-PVTZ
  Basis Set:
  Basis Set: CC-PVTZ
  Basis Set:
  @DF-RHF Final Energy:  -173.33385291391227
    Total Energy =                       -173.3338529139122670
  Basis Set: CC-PVTZ
  Basis Set:
  Charge       = 0
  Multiplicity = 1
  Basis Set: CC-PVTZ
  Basis Set:

    Orbital Energies (a.u.)
    -----------------------

    Doubly Occupied:

       1A    -15.538909     2A    -11.234326     3A    -11.234308
       4A    -11.234234     5A     -1.226890     6A     -0.952796
       7A     -0.952395     8A     -0.806466     9A     -0.643038
      10A     -0.631926    11A     -0.631330    12A     -0.544967
      13A     -0.542893    14A     -0.517245    15A     -0.503191
      16A     -0.502485    17A     -0.348022

  @DF-RHF Final Energy:  -173.33385416362142

   => Energetics <=

    Nuclear Repulsion Energy =            139.4151641441538345
    One-Electron Energy =                -509.4071940044993880
    Two-Electron Energy =                 196.6581756967242711
    DFT Exchange-Correlation Energy =       0.0000000000000000
    Empirical Dispersion Energy =           0.0000000000000000
    PCM Polarization Energy =               0.0000000000000000
    EFP Energy =                            0.0000000000000000
    Total Energy =                       -173.3338541636212824
    Molecular point group: c1
  Basis Set: CC-PVTZ
  Basis Set:

  -Total Gradient:
     Atom            X                  Y                   Z
    ------   -----------------  -----------------  -----------------
       1        0.000822612278     0.000133860080    -0.001268232694
       2       -0.000847761057    -0.000294677122     0.001924578298
       3       -0.000599457614     0.000548792970    -0.001504135504
       4        0.000001602214    -0.000036285870    -0.000014079051
       5       -0.000011247702    -0.000053190646    -0.000023946205
       6        0.000573825417    -0.000413287341     0.000905852653
       7        0.000006490904     0.000134975595    -0.000077973685
       8        0.000010225687     0.000005334032    -0.000008411246
       9       -0.000007109865    -0.000002360639     0.000005316270
      10        0.000024801238    -0.000009157078    -0.000003268077
      11        0.000020560498    -0.000003040281    -0.000015941539
      12        0.000005094275     0.000011732880     0.000073275771
      13        0.000000363729    -0.000022696580     0.000006965008

  **** Optimization is complete! (in 4 steps) ****
    Final optimized geometry and variables:
    Molecular point group: c1

    Geometry (in Angstrom), charge = 0, multiplicity = 1:

    H           -0.100666545586     1.898128457843     0.143178716874
    C            0.599514356173     1.140295763881     0.508032749475
    N            0.244246743035    -0.195916211285     0.096676430974
    H            1.582024609921     1.393510057568     0.128208012361
    H            0.633845675690     1.200104188693     1.587936830817
    C           -0.943941920591    -0.677005890875     0.758097822163
    C            0.161862843816    -0.317196542647    -1.337620430033
    H           -1.133933233278    -1.704345510399     0.473595239644
    H           -0.807137397913    -0.648021636078     1.831583963380
    H           -1.835604547272    -0.090492609851     0.515117082253
    H            1.098023717776    -0.012342974512    -1.788633896204
    H           -0.020731747988    -1.348438218968    -1.612353442177
    H           -0.635703479091     0.294518452136    -1.770671205050

  Mulliken Charges: (a.u.)
   Center  Symbol    Alpha    Beta     Spin     Total
       1     H     0.47382  0.47382  0.00000  0.05235
       2     C     3.08887  3.08887  0.00000 -0.17773
       3     N     3.59550  3.59550  0.00000 -0.19100
       4     H     0.45235  0.45235  0.00000  0.09529
       5     H     0.45307  0.45307  0.00000  0.09386
       6     C     3.08855  3.08855  0.00000 -0.17711
       7     C     3.08913  3.08913  0.00000 -0.17825
       8     H     0.45279  0.45279  0.00000  0.09443
       9     H     0.45251  0.45251  0.00000  0.09499
      10     H     0.47426  0.47426  0.00000  0.05149
      11     H     0.45283  0.45283  0.00000  0.09434
      12     H     0.45264  0.45264  0.00000  0.09472
      13     H     0.47368  0.47368  0.00000  0.05263

   Total alpha = 17.00000, Total beta = 17.00000, Total charge = -0.00000
