  ==> Input File <==

--------------------------------------------------------------------------
set {
	reference rhf
	basis 6-31G*
}

set_num_threads( 4 )
memory 2 gb

molecule MOL {
0 1

H	 -3.135461	 -1.215070	 0.001379
O	 -2.310168	 -0.871793	 -0.309793
C	 -2.026376	 0.340750	 0.341611
C	 -0.673256	 0.843270	 -0.132153
H	 -2.792215	 1.080697	 0.115987
H	 -2.013526	 0.200402	 1.421792
C	 0.486613	 -0.083066	 0.235839
H	 -0.715586	 0.970948	 -1.210718
H	 -0.508072	 1.829858	 0.297090
C	 0.924458	 0.060753	 1.694407
H	 1.327074	 0.121966	 -0.419219
H	 0.193466	 -1.115685	 0.049819
C	 2.079683	 -0.869153	 2.063733
H	 1.218299	 1.091492	 1.881365
H	 0.078231	 -0.138393	 2.349148
H	 2.953102	 -0.670708	 1.449201
H	 2.370219	 -0.743797	 3.102395
H	 1.805815	 -1.910762	 1.920358

	symmetry c1
}
set optking {
	frozen_dihedral = ("
		10 7 4 8
	")
}

ee = optimize('scf')
oeprop('DIPOLE', 'QUADRUPOLE', 'MULLIKEN_CHARGES')
f=open( 'psi4out.xyz', 'w' )
f.write( "18  " )
f.write( str(ee) + "\n" )
f.write( MOL.save_string_xyz() )
f.close()
--------------------------------------------------------------------------

    Molecular point group: c1
  Charge       = 0
  Multiplicity = 1
  Basis Set: 6-31G*
  Basis Set:
  @DF-RHF Final Energy:  -271.17775691467716
    Total Energy =                       -271.1777569146769338
    Molecular point group: c1
  Basis Set: 6-31G*
  Basis Set:
  Basis Set: 6-31G*
  Basis Set:
  @DF-RHF Final Energy:  -271.17801528586227
    Total Energy =                       -271.1780152858623296
  Basis Set: 6-31G*
  Basis Set:
  Basis Set: 6-31G*
  Basis Set:
  @DF-RHF Final Energy:  -271.17804869143220
    Total Energy =                       -271.1780486914323660
  Basis Set: 6-31G*
  Basis Set:
  Basis Set: 6-31G*
  Basis Set:
  @DF-RHF Final Energy:  -271.17804972832096
    Total Energy =                       -271.1780497283211844
  Basis Set: 6-31G*
  Basis Set:
  Charge       = 0
  Multiplicity = 1
  Basis Set: 6-31G*
  Basis Set:

    Orbital Energies (a.u.)
    -----------------------

    Doubly Occupied:

       1A    -20.553117     2A    -11.267790     3A    -11.212132
       4A    -11.211762     5A    -11.206363     6A    -11.205358
       7A     -1.359779     8A     -1.074490     9A     -1.007308
      10A     -0.913277    11A     -0.828375    12A     -0.774375
      13A     -0.703042    14A     -0.648789    15A     -0.620562
      16A     -0.583282    17A     -0.564763    18A     -0.556085
      19A     -0.531537    20A     -0.503260    21A     -0.486415
      22A     -0.467257    23A     -0.454960    24A     -0.448915
      25A     -0.428050

  @DF-RHF Final Energy:  -271.17804989903948

   => Energetics <=

    Nuclear Repulsion Energy =            252.0317437254984441
    One-Electron Energy =                -867.1975000007039398
    Two-Electron Energy =                 343.9877063761658746
    DFT Exchange-Correlation Energy =       0.0000000000000000
    Empirical Dispersion Energy =           0.0000000000000000
    PCM Polarization Energy =               0.0000000000000000
    EFP Energy =                            0.0000000000000000
    Total Energy =                       -271.1780498990395927
    Molecular point group: c1
  Basis Set: 6-31G*
  Basis Set:

  -Total Gradient:
     Atom            X                  Y                   Z
    ------   -----------------  -----------------  -----------------
       1       -0.000005335713    -0.000011673555    -0.000004222853
       2       -0.000022021121     0.000021410412     0.000014139756
       3        0.000045206050     0.000014818964    -0.000031334763
       4       -0.000957294353    -0.001372267720    -0.000251365117
       5       -0.000025275490    -0.000020475252    -0.000006295893
       6        0.000012095008    -0.000001287151    -0.000003004591
       7       -0.000917394078    -0.000904443712     0.000501439576
       8        0.001050364336     0.001399022885     0.000113049274
       9        0.000004253487     0.000013708345     0.000010346600
      10        0.000821496366     0.000896326196    -0.000385047593
      11        0.000006757430    -0.000015115520    -0.000001229353
      12       -0.000012477725    -0.000018524603     0.000015192171
      13        0.000013902875     0.000009552519     0.000015933748
      14       -0.000016295095    -0.000003232425     0.000000030878
      15       -0.000001751813    -0.000008103913     0.000003715030
      16       -0.000009505754    -0.000003613914    -0.000003231695
      17        0.000020079958    -0.000004304853     0.000008764081
      18       -0.000006804368     0.000008203297     0.000003120745

  **** Optimization is complete! (in 5 steps) ****
    Final optimized geometry and variables:
    Molecular point group: c1

    Geometry (in Angstrom), charge = 0, multiplicity = 1:

    H           -2.858754414796    -1.074874109371    -0.649496140342
    O           -2.024603424693    -0.744916791118    -0.951356958882
    C           -1.740950572268     0.476228933843    -0.315619329307
    C           -0.375016487861     0.957735456807    -0.777976082956
    H           -2.492576331944     1.220615159428    -0.572166233968
    H           -1.758857300802     0.355858520581     0.765792687671
    C            0.790511209565     0.039203454148    -0.389387479453
    H           -0.404964469223     1.071474502464    -1.857530710877
    H           -0.209078984496     1.953442177099    -0.370086893357
    C            1.238744848523     0.177112068193     1.068202270484
    H            1.639244635046     0.269607528374    -1.029812677132
    H            0.519170951974    -0.990286985783    -0.599744296249
    C            2.408047128399    -0.744198617873     1.414943841871
    H            1.524612090853     1.209674109996     1.258808626803
    H            0.408598368395    -0.037960366496     1.737094187639
    H            3.270387329452    -0.535066637842     0.788065028764
    H            2.713875983655    -0.621816481973     2.449592505541
    H            2.140516136455    -1.786852123116     1.269437111817

  Mulliken Charges: (a.u.)
   Center  Symbol    Alpha    Beta     Spin     Total
       1     H     0.28069  0.28069  0.00000  0.43862
       2     O     4.36959  4.36959  0.00000 -0.73918
       3     C     2.99810  2.99810  0.00000  0.00380
       4     C     3.16244  3.16244  0.00000 -0.32487
       5     H     0.42924  0.42924  0.00000  0.14152
       6     H     0.43143  0.43143  0.00000  0.13715
       7     C     3.15690  3.15690  0.00000 -0.31381
       8     H     0.41280  0.41280  0.00000  0.17440
       9     H     0.42419  0.42419  0.00000  0.15162
      10     C     3.15336  3.15336  0.00000 -0.30671
      11     H     0.42297  0.42297  0.00000  0.15406
      12     H     0.40697  0.40697  0.00000  0.18606
      13     C     3.23885  3.23885  0.00000 -0.47770
      14     H     0.42498  0.42498  0.00000  0.15003
      15     H     0.42413  0.42413  0.00000  0.15174
      16     H     0.42200  0.42200  0.00000  0.15600
      17     H     0.42063  0.42063  0.00000  0.15874
      18     H     0.42073  0.42073  0.00000  0.15855

   Total alpha = 25.00000, Total beta = 25.00000, Total charge = -0.00000
