                              Psi4 1.0.54 Driver

  ==> Input File <==

--------------------------------------------------------------------------
set {
	reference rhf
	basis cc-pvtz
}

set_num_threads( 4 )
memory 2 gb

molecule MOL {
0 1

H	 -2.123057	 -1.371461	 -2.288533
N	 -1.207758	 -1.423887	 -1.895405
C	 -1.250261	 -1.266314	 -0.453356
H	 -0.662028	 -0.694377	 -2.302824
C	 0.142800	 -1.337438	 0.128857
H	 -1.709214	 -0.331858	 -0.132890
H	 -1.835096	 -2.076886	 -0.032654
O	 0.881195	 -0.248324	 -0.336237
H	 0.090277	 -1.316647	 1.216506
H	 0.617442	 -2.268701	 -0.171796
C	 2.208068	 -0.234417	 0.074171
H	 2.725499	 -1.027054	 -0.446768
H	 2.688377	 0.712084	 -0.164856
H	 2.295137	 -0.403407	 1.144883

	symmetry c1
}
set optking {
	frozen_dihedral = ("
		5 8 11 13
	")
}

ee,wfn = optimize('scf', return_wfn=True)
oeprop( wfn, 'DIPOLE', 'QUADRUPOLE', 'MULLIKEN_CHARGES')
f=open( 'psi4out.xyz', 'w' )
f.write( "14  " )
f.write( str(ee) + "\n" )
f.write( MOL.save_string_xyz() )
f.close()
--------------------------------------------------------------------------

    Molecular point group: c1
  Charge       = 0
  Multiplicity = 1
  Basis Set: CC-PVTZ
  Basis Set:
  @DF-RHF Final Energy:  -248.22498543407573
    Total Energy =                       -248.2249854340757906
    Molecular point group: c1
  Basis Set: CC-PVTZ
  Basis Set:
  Basis Set: CC-PVTZ
  Basis Set:
  @DF-RHF Final Energy:  -248.22576544711512
    Total Energy =                       -248.2257654471151227
  Basis Set: CC-PVTZ
  Basis Set:
  Basis Set: CC-PVTZ
  Basis Set:
  @DF-RHF Final Energy:  -248.22597074544504
    Total Energy =                       -248.2259707454450108
  Basis Set: CC-PVTZ
  Basis Set:
  Charge       = 0
  Multiplicity = 1
  Basis Set: CC-PVTZ
  Basis Set:

    Orbital Energies (a.u.)
    -----------------------

    Doubly Occupied:

       1A    -20.550549     2A    -15.523569     3A    -11.263959
       4A    -11.263593     5A    -11.239881     6A     -1.384402
       7A     -1.176024     8A     -1.000594     9A     -0.907654
      10A     -0.815783    11A     -0.685590    12A     -0.675953
      13A     -0.647171    14A     -0.611984    15A     -0.607672
      16A     -0.542162    17A     -0.530995    18A     -0.497664
      19A     -0.474550    20A     -0.419921    21A     -0.383926

  @DF-RHF Final Energy:  -248.22597123222354

   => Energetics <=

    Nuclear Repulsion Energy =            194.6979890993897300
    One-Electron Energy =                -723.4407258712047906
    Two-Electron Energy =                 280.5167655395914608
    DFT Exchange-Correlation Energy =       0.0000000000000000
    Empirical Dispersion Energy =           0.0000000000000000
    PCM Polarization Energy =               0.0000000000000000
    EFP Energy =                            0.0000000000000000
    Total Energy =                       -248.2259712322236282
    Molecular point group: c1
  Basis Set: CC-PVTZ
  Basis Set:

  -Total Gradient:
     Atom            X                  Y                   Z
    ------   -----------------  -----------------  -----------------
       1        0.000001919121     0.000004595258    -0.000017136366
       2       -0.000017905208    -0.000011156262    -0.000023101629
       3        0.000066079661     0.000067853915    -0.000031289959
       4       -0.000002106012     0.000005922316    -0.000004070795
       5       -0.000264556282     0.000517139662     0.000997057974
       6       -0.000010586618     0.000005570045     0.000005424624
       7        0.000050965194     0.000005098070     0.000016507278
       8        0.000315170386    -0.000674920683    -0.001030176600
       9        0.000001701268    -0.000008298262     0.000017253792
      10        0.000011879585     0.000030360301    -0.000022733571
      11        0.000306540104    -0.000426792117    -0.001056902665
      12       -0.000024511342     0.000000998930    -0.000016851214
      13       -0.000425948912     0.000484683288     0.001157036464
      14       -0.000008640942    -0.000001054460     0.000008982664

  **** Optimization is complete! (in 4 steps) ****
    Final optimized geometry and variables:
    Molecular point group: c1

    Geometry (in Angstrom), charge = 0, multiplicity = 1:

    H           -2.260954005084    -0.518813818912    -1.805923470199
    N           -1.349987461217    -0.556863825072    -1.401274265567
    C           -1.412362641991    -0.394666478962     0.039541997357
    H           -0.809827688961     0.178927121964    -1.804778985076
    C           -0.026038435003    -0.445964725752     0.639522979778
    H           -1.886723927825     0.535248198917     0.350776665752
    H           -1.992174478428    -1.210827603695     0.456374612300
    O            0.703265575812     0.651561088559     0.179781615760
    H           -0.091371761143    -0.421319870286     1.726185994677
    H            0.463347245018    -1.372627662868     0.348002819380
    C            2.027616087232     0.681136862757     0.598488006501
    H            2.614658764858    -0.098812392618     0.119938890918
    H            2.437842495479     1.646189670016     0.337737535592
    H            2.105384779940     0.557621898835     1.676612187523

  Mulliken Charges: (a.u.)
   Center  Symbol    Alpha    Beta     Spin     Total
       1     H     0.43022  0.43022  0.00000  0.13956
       2     N     3.69418  3.69418  0.00000 -0.38835
       3     C     3.02224  3.02224  0.00000 -0.04448
       4     H     0.42246  0.42246  0.00000  0.15508
       5     C     2.96910  2.96910  0.00000  0.06179
       6     H     0.46458  0.46458  0.00000  0.07084
       7     H     0.45870  0.45870  0.00000  0.08261
       8     O     4.18022  4.18022  0.00000 -0.36043
       9     H     0.46888  0.46888  0.00000  0.06223
      10     H     0.46941  0.46941  0.00000  0.06118
      11     C     3.03158  3.03158  0.00000 -0.06316
      12     H     0.46746  0.46746  0.00000  0.06507
      13     H     0.44824  0.44824  0.00000  0.10352
      14     H     0.47272  0.47272  0.00000  0.05455

   Total alpha = 21.00000, Total beta = 21.00000, Total charge =  0.00000

*** Psi4 exiting successfully. Buy a developer a beer!
