  ==> Input File <==

--------------------------------------------------------------------------
set {
	reference rhf
	basis cc-pvtz
}

set_num_threads( 4 )
memory 2 gb

molecule MOL {
0 1

H	 -2.026459	 0.263152	 -2.656230
N	 -1.072861	 0.152978	 -2.384968
C	 -0.874283	 -1.096887	 -1.674654
H	 -0.835982	 0.922436	 -1.795206
C	 0.571570	 -1.247166	 -1.260442
H	 -1.497885	 -1.194597	 -0.786894
H	 -1.123428	 -1.917077	 -2.338932
O	 0.881195	 -0.248324	 -0.336237
H	 0.728666	 -2.229218	 -0.816520
H	 1.212958	 -1.161656	 -2.134650
C	 2.208068	 -0.234417	 0.074171
H	 2.725499	 -1.027054	 -0.446768
H	 2.688377	 0.712084	 -0.164856
H	 2.295137	 -0.403407	 1.144883

	symmetry c1
}
set optking {
	frozen_dihedral = ("
		5 8 11 13
	")
}

ee = optimize('scf')
oeprop('DIPOLE', 'QUADRUPOLE', 'MULLIKEN_CHARGES')
f=open( 'psi4out.xyz', 'w' )
f.write( "14  " )
f.write( str(ee) + "\n" )
f.write( MOL.save_string_xyz() )
f.close()
--------------------------------------------------------------------------

    Molecular point group: c1
  Charge       = 0
  Multiplicity = 1
  Basis Set: CC-PVTZ
  Basis Set:
  @DF-RHF Final Energy:  -248.22155748972366
    Total Energy =                       -248.2215574897237502
    Molecular point group: c1
  Basis Set: CC-PVTZ
  Basis Set:
  Basis Set: CC-PVTZ
  Basis Set:
  @DF-RHF Final Energy:  -248.22234233554028
    Total Energy =                       -248.2223423355401337
  Basis Set: CC-PVTZ
  Basis Set:
  Basis Set: CC-PVTZ
  Basis Set:
  @DF-RHF Final Energy:  -248.22258407971276
    Total Energy =                       -248.2225840797129877
  Basis Set: CC-PVTZ
  Basis Set:
  Charge       = 0
  Multiplicity = 1
  Basis Set: CC-PVTZ
  Basis Set:

    Orbital Energies (a.u.)
    -----------------------

    Doubly Occupied:

       1A    -20.547162     2A    -15.523070     3A    -11.264431
       4A    -11.263209     5A    -11.239329     6A     -1.379702
       7A     -1.175502     8A     -1.000403     9A     -0.907887
      10A     -0.815316    11A     -0.683865    12A     -0.673454
      13A     -0.644927    14A     -0.611434    15A     -0.607626
      16A     -0.540187    17A     -0.536357    18A     -0.497214
      19A     -0.473436    20A     -0.414558    21A     -0.383473

  @DF-RHF Final Energy:  -248.22258606609560

   => Energetics <=

    Nuclear Repulsion Energy =            194.4096580052628553
    One-Electron Energy =                -722.8994101272351145
    Two-Electron Energy =                 280.2671660558767144
    DFT Exchange-Correlation Energy =       0.0000000000000000
    Empirical Dispersion Energy =           0.0000000000000000
    PCM Polarization Energy =               0.0000000000000000
    EFP Energy =                            0.0000000000000000
    Total Energy =                       -248.2225860660955732
    Molecular point group: c1
  Basis Set: CC-PVTZ
  Basis Set:

  -Total Gradient:
     Atom            X                  Y                   Z
    ------   -----------------  -----------------  -----------------
       1        0.000003270884    -0.000011751018     0.000005110717
       2        0.000006226970    -0.000008563957     0.000006233799
       3       -0.000018779884     0.000012548174     0.000000363255
       4        0.000004234705    -0.000007495685     0.000001785217
       5       -0.000015868887    -0.000025748639     0.000008453865
       6        0.000007752589     0.000005586491    -0.000007714709
       7       -0.000012998947    -0.000005955015    -0.000013867873
       8        0.000161120613     0.000111038676     0.000025148523
       9        0.000006521097     0.000026498431     0.000007141852
      10        0.000006899651     0.000009868562     0.000015956677
      11       -0.000099887428    -0.000159430954    -0.000090993230
      12        0.000038252711    -0.000006982341    -0.000004234966
      13       -0.000087316337     0.000030433915     0.000025578836
      14        0.000000572261     0.000029953357     0.000021038042

  **** Optimization is complete! (in 4 steps) ****
    Final optimized geometry and variables:
    Molecular point group: c1

    Geometry (in Angstrom), charge = 0, multiplicity = 1:

    H           -2.378308123412     0.804891856488    -1.526409249443
    N           -1.423488663424     0.683053701946    -1.264669169544
    C           -1.231620840685    -0.573229689458    -0.564055369693
    H           -1.173499045386     1.445781477631    -0.671646466326
    C            0.216340688325    -0.741846103260    -0.164639023216
    H           -1.847634046983    -0.669606320639     0.329121546839
    H           -1.495721553856    -1.386927807420    -1.230738700433
    O            0.542109424532     0.253322245922     0.759951076197
    H            0.363692950599    -1.727283840920     0.273803322057
    H            0.847722355306    -0.660640888684    -1.045643816765
    C            1.869443508040     0.288118083965     1.187121016832
    H            2.464506685673    -0.492033799516     0.724427535186
    H            2.311141034646     1.245934724741     0.937141541202
    H            1.912503125629     0.156698840705     2.262318365634

  Mulliken Charges: (a.u.)
   Center  Symbol    Alpha    Beta     Spin     Total
       1     H     0.43035  0.43035  0.00000  0.13930
       2     N     3.69429  3.69429  0.00000 -0.38857
       3     C     3.02432  3.02432  0.00000 -0.04864
       4     H     0.42217  0.42217  0.00000  0.15565
       5     C     2.96754  2.96754  0.00000  0.06491
       6     H     0.46488  0.46488  0.00000  0.07024
       7     H     0.45877  0.45877  0.00000  0.08247
       8     O     4.18471  4.18471  0.00000 -0.36942
       9     H     0.46984  0.46984  0.00000  0.06031
      10     H     0.46885  0.46885  0.00000  0.06230
      11     C     3.02702  3.02702  0.00000 -0.05405
      12     H     0.47153  0.47153  0.00000  0.05694
      13     H     0.45727  0.45727  0.00000  0.08547
      14     H     0.45846  0.45846  0.00000  0.08308

   Total alpha = 21.00000, Total beta = 21.00000, Total charge = -0.00000
