                              Psi4 1.0.54 Driver

  ==> Input File <==

--------------------------------------------------------------------------
set {
	reference rhf
	basis cc-pvtz
}

set_num_threads( 4 )
memory 2 gb

molecule MOL {
0 1

H	 0.329340	 7.010028	 0.716360
C	 -0.666949	 6.604019	 0.584332
C	 -0.616297	 5.117814	 0.246765
H	 -1.218211	 6.775172	 1.502501
H	 -1.153063	 7.169994	 -0.203807
C	 -2.003601	 4.513072	 0.042696
H	 -0.104317	 4.587814	 1.041696
H	 -0.026989	 4.974697	 -0.656040
C	 -1.983881	 3.027410	 -0.302709
H	 -2.597689	 4.659439	 0.936264
H	 -2.506026	 5.043080	 -0.761322
C	 -1.604636	 2.113020	 0.849918
H	 -2.972267	 2.711065	 -0.626412
H	 -1.323223	 2.832103	 -1.142295
C	 -1.180025	 0.697761	 0.509157
O	 -1.656215	 2.478898	 1.979850
C	 -2.285431	 -0.137488	 -0.145671
H	 -0.858075	 0.232847	 1.431134
H	 -0.323295	 0.747813	 -0.157706
C	 -3.646545	 0.082747	 0.508954
H	 -2.348635	 0.118247	 -1.199806
H	 -2.034895	 -1.192387	 -0.096473
C	 -4.757412	 -0.737227	 -0.138149
H	 -3.900211	 1.137405	 0.459735
H	 -3.580878	 -0.166775	 1.564416
H	 -4.867876	 -0.486707	 -1.187777
H	 -4.549650	 -1.800049	 -0.072540
H	 -5.709585	 -0.556397	 0.346597

	symmetry c1
}
set optking {
	frozen_dihedral = ("
		12 15 17 21
	")
}

ee,wfn = optimize('scf', return_wfn=True)
oeprop( wfn, 'DIPOLE', 'QUADRUPOLE', 'MULLIKEN_CHARGES')
f=open( 'psi4out.xyz', 'w' )
f.write( "28  " )
f.write( str(ee) + "\n" )
f.write( MOL.save_string_xyz() )
f.close()
--------------------------------------------------------------------------

    Molecular point group: c1
  Charge       = 0
  Multiplicity = 1
  Basis Set: CC-PVTZ
  Basis Set:
  @DF-RHF Final Energy:  -426.31547163219432
    Total Energy =                       -426.3154716321944306
    Molecular point group: c1
  Basis Set: CC-PVTZ
  Basis Set:
  Basis Set: CC-PVTZ
  Basis Set:
  @DF-RHF Final Energy:  -426.31738482961578
    Total Energy =                       -426.3173848296156621
  Basis Set: CC-PVTZ
  Basis Set:
  Basis Set: CC-PVTZ
  Basis Set:
  @DF-RHF Final Energy:  -426.31764085142618
    Total Energy =                       -426.3176408514261766
  Basis Set: CC-PVTZ
  Basis Set:
  Basis Set: CC-PVTZ
  Basis Set:
  @DF-RHF Final Energy:  -426.31770095361060
    Total Energy =                       -426.3177009536107107
  Basis Set: CC-PVTZ
  Basis Set:
  @DF-RHF Final Energy:  -426.31741342428916
    Total Energy =                       -426.3174134242885884
  Basis Set: CC-PVTZ
  Basis Set:
  @DF-RHF Final Energy:  -426.31774460949907
    Total Energy =                       -426.3177446094985044
  Basis Set: CC-PVTZ
  Basis Set:
  Basis Set: CC-PVTZ
  Basis Set:
  @DF-RHF Final Energy:  -426.31775449245993
    Total Energy =                       -426.3177544924599260
  Basis Set: CC-PVTZ
  Basis Set:
  Basis Set: CC-PVTZ
  Basis Set:
  @DF-RHF Final Energy:  -426.31775805770246
    Total Energy =                       -426.3177580577024628
  Basis Set: CC-PVTZ
  Basis Set:
  Charge       = 0
  Multiplicity = 1
  Basis Set: CC-PVTZ
  Basis Set:

    Orbital Energies (a.u.)
    -----------------------

    Doubly Occupied:

       1A    -20.537212     2A    -11.316556     3A    -11.229429
       4A    -11.228566     5A    -11.226785     6A    -11.220155
       7A    -11.214583     8A    -11.212183     9A    -11.209203
      10A    -11.203082    11A     -1.397224    12A     -1.094201
      13A     -1.077616    14A     -1.021526    15A     -0.991533
      16A     -0.907679    17A     -0.873569    18A     -0.813477
      19A     -0.796666    20A     -0.721966    21A     -0.664146
      22A     -0.656062    23A     -0.629354    24A     -0.616670
      25A     -0.609430    26A     -0.585062    27A     -0.584487
      28A     -0.572306    29A     -0.549328    30A     -0.534267
      31A     -0.517905    32A     -0.509344    33A     -0.501735
      34A     -0.486457    35A     -0.475832    36A     -0.469279
      37A     -0.469003    38A     -0.463973    39A     -0.457691
      40A     -0.394423

  @DF-RHF Final Energy:  -426.31775891045299

   => Energetics <=

    Nuclear Repulsion Energy =            543.3349136851763888
    One-Electron Energy =               -1655.2254200961940569
    Two-Electron Energy =                 685.5727475005644465
    DFT Exchange-Correlation Energy =       0.0000000000000000
    Empirical Dispersion Energy =           0.0000000000000000
    PCM Polarization Energy =               0.0000000000000000
    EFP Energy =                            0.0000000000000000
    Total Energy =                       -426.3177589104532217
    Molecular point group: c1
  Basis Set: CC-PVTZ
  Basis Set:

  -Total Gradient:
     Atom            X                  Y                   Z
    ------   -----------------  -----------------  -----------------
       1       -0.000002452057    -0.000008751780     0.000003990793
       2       -0.000014184160    -0.000000876335    -0.000014593287
       3       -0.000000803620    -0.000029719677     0.000038500255
       4       -0.000001259887     0.000000619288    -0.000005368563
       5       -0.000000215729     0.000010181284     0.000003623402
       6        0.000024770936     0.000013858914    -0.000022474365
       7       -0.000006086860    -0.000006695537    -0.000022361586
       8       -0.000003080076     0.000011032486    -0.000006476982
       9       -0.000113005004    -0.000077152493     0.000042777365
      10       -0.000008048330     0.000004443254     0.000008145341
      11        0.000005258425     0.000007464448     0.000001076125
      12       -0.000709020517    -0.000682268679     0.002870419199
      13        0.000036055354     0.000039394545     0.000002939237
      14        0.000030193335     0.000001440304    -0.000008145259
      15        0.001540253161     0.000196523242    -0.004218998832
      16        0.000022335165     0.000036712000    -0.000032541795
      17       -0.003174960817     0.003719919211     0.002313071082
      18        0.000008175689    -0.000011680935    -0.000003653113
      19        0.000034290987     0.000006406979    -0.000001589161
      20       -0.000013638591     0.000008309227     0.000019403184
      21        0.002346599227    -0.003241619490    -0.000965223290
      22       -0.000011821956     0.000003952061     0.000003057254
      23        0.000013248823     0.000014193799    -0.000005769754
      24       -0.000001338182    -0.000008220008    -0.000002740615
      25        0.000004906200    -0.000009767339     0.000006952550
      26       -0.000004195798    -0.000002519161    -0.000010078097
      27        0.000001894082    -0.000000615697     0.000002087187
      28       -0.000003869798     0.000005436092     0.000003971725

  **** Optimization is complete! (in 9 steps) ****
    Final optimized geometry and variables:
    Molecular point group: c1

    Geometry (in Angstrom), charge = 0, multiplicity = 1:

    H            2.327415688438     4.683038287919     0.536954047032
    C            1.379604684172     4.243173095946     0.248801802390
    C            1.540777614579     2.767658699841    -0.100531794699
    H            0.689920607840     4.373526887875     1.075643572498
    H            0.995552150284     4.808148469355    -0.594582533617
    C            0.225890938121     2.117573242401    -0.525732470071
    H            1.945515809182     2.238287426623     0.753302270624
    H            2.264902119719     2.666900510007    -0.905743633265
    C            0.351547075827     0.639453703962    -0.880544927966
    H           -0.505922909650     2.230856271872     0.265318577788
    H           -0.163298612764     2.644226423258    -1.392384845190
    C            0.527689653205    -0.296147348955     0.301802566377
    H           -0.534171171473     0.303567998664    -1.413514607030
    H            1.178864643852     0.475219345788    -1.566170788195
    C            0.768463450680    -1.761857699204    -0.011906823087
    O            0.465805417310     0.085199219464     1.425722353495
    C           -0.471124252231    -2.508957681834    -0.535366943845
    H            1.102411596006    -2.217837847018     0.910597003626
    H            1.569824065835    -1.847451986961    -0.737928571125
    C           -1.756703101953    -2.260065126580     0.248258651732
    H           -0.616295249132    -2.298997672184    -1.591052692635
    H           -0.239449337930    -3.569042493800    -0.492987247853
    C           -2.915144835900    -3.121047469396    -0.243797095725
    H           -2.038682212102    -1.213983607784     0.184317188172
    H           -1.576465022739    -2.456306835651     1.300402558051
    H           -3.134003049600    -2.925276153345    -1.288446016087
    H           -2.687149571669    -4.177222436671    -0.147329983425
    H           -3.816170936585    -2.924018038907     0.324896357865

  Mulliken Charges: (a.u.)
   Center  Symbol    Alpha    Beta     Spin     Total
       1     H     0.44870  0.44870  0.00000  0.10260
       2     C     3.15186  3.15186  0.00000 -0.30373
       3     C     3.08367  3.08367  0.00000 -0.16735
       4     H     0.45212  0.45212  0.00000  0.09577
       5     H     0.45729  0.45729  0.00000  0.08542
       6     C     3.08728  3.08728  0.00000 -0.17456
       7     H     0.44407  0.44407  0.00000  0.11186
       8     H     0.45883  0.45883  0.00000  0.08233
       9     C     3.12763  3.12763  0.00000 -0.25525
      10     H     0.44595  0.44595  0.00000  0.10809
      11     H     0.44800  0.44800  0.00000  0.10399
      12     C     2.86102  2.86102  0.00000  0.27797
      13     H     0.43381  0.43381  0.00000  0.13239
      14     H     0.44210  0.44210  0.00000  0.11580
      15     C     3.10518  3.10518  0.00000 -0.21036
      16     O     4.18219  4.18219  0.00000 -0.36438
      17     C     3.11609  3.11609  0.00000 -0.23219
      18     H     0.43723  0.43723  0.00000  0.12554
      19     H     0.44044  0.44044  0.00000  0.11912
      20     C     3.08341  3.08341  0.00000 -0.16683
      21     H     0.44846  0.44846  0.00000  0.10308
      22     H     0.44230  0.44230  0.00000  0.11541
      23     C     3.15097  3.15097  0.00000 -0.30194
      24     H     0.45135  0.45135  0.00000  0.09730
      25     H     0.44421  0.44421  0.00000  0.11157
      26     H     0.45587  0.45587  0.00000  0.08826
      27     H     0.45404  0.45404  0.00000  0.09191
      28     H     0.44592  0.44592  0.00000  0.10815

   Total alpha = 40.00000, Total beta = 40.00000, Total charge = -0.00000

*** Psi4 exiting successfully. Buy a developer a beer!
