  ==> Input File <==

--------------------------------------------------------------------------
set {
	reference rhf
	basis cc-pvtz
}

set_num_threads( 4 )
memory 2 gb

molecule MOL {
0 1

H	 -0.052599	 -0.614145	 -1.984436
C	 0.223769	 0.429819	 -1.782941
C	 0.062554	 0.862911	 -0.350953
O	 0.619949	 1.116728	 -2.659497
C	 -1.339253	 0.577611	 0.196911
H	 0.311071	 1.913867	 -0.278662
H	 0.793795	 0.304131	 0.228810
C	 -1.813142	 -0.849710	 -0.061612
H	 -2.032833	 1.276441	 -0.256032
H	 -1.357249	 0.782269	 1.263793
H	 -1.839268	 -1.063526	 -1.124230
H	 -2.810118	 -1.001930	 0.334000
H	 -1.159274	 -1.579980	 0.402282

	symmetry c1
}
set optking {
	frozen_dihedral = ("
		6 3 5 9
	")
}

ee = optimize('scf')
oeprop('DIPOLE', 'QUADRUPOLE', 'MULLIKEN_CHARGES')
f=open( 'psi4out.xyz', 'w' )
f.write( "13  " )
f.write( str(ee) + "\n" )
f.write( MOL.save_string_xyz() )
f.close()
--------------------------------------------------------------------------

    Molecular point group: c1
  Charge       = 0
  Multiplicity = 1
  Basis Set: CC-PVTZ
  Basis Set:
  @DF-RHF Final Energy:  -231.06625425244241
    Total Energy =                       -231.0662542524424339
    Molecular point group: c1
  Basis Set: CC-PVTZ
  Basis Set:
  Basis Set: CC-PVTZ
  Basis Set:
  @DF-RHF Final Energy:  -231.06693500504920
    Total Energy =                       -231.0669350050492312
  Basis Set: CC-PVTZ
  Basis Set:
  Basis Set: CC-PVTZ
  Basis Set:
  @DF-RHF Final Energy:  -231.06809758852810
    Total Energy =                       -231.0680975885281896
  Basis Set: CC-PVTZ
  Basis Set:
  Basis Set: CC-PVTZ
  Basis Set:
  @DF-RHF Final Energy:  -231.06837258190521
    Total Energy =                       -231.0683725819052086
  Basis Set: CC-PVTZ
  Basis Set:
  @DF-RHF Final Energy:  -231.06824822197859
    Total Energy =                       -231.0682482219787914
  @DF-RHF Final Energy:  -231.06848493246397
    Total Energy =                       -231.0684849324640595
  @DF-RHF Final Energy:  -231.06855747430384
    Total Energy =                       -231.0685574743038160
  @DF-RHF Final Energy:  -231.06858177224882
    Total Energy =                       -231.0685817722487627
  @DF-RHF Final Energy:  -231.06858500081429
    Total Energy =                       -231.0685850008140960
  @DF-RHF Final Energy:  -231.06858754413804
    Total Energy =                       -231.0685875441379835
  Basis Set: CC-PVTZ
  Basis Set:
  @DF-RHF Final Energy:  -231.06858950847121
    Total Energy =                       -231.0685895084710637
  Basis Set: CC-PVTZ
  Basis Set:
  Basis Set: CC-PVTZ
  Basis Set:
  @DF-RHF Final Energy:  -231.06859094846274
    Total Energy =                       -231.0685909484627700
  Basis Set: CC-PVTZ
  Basis Set:
  Basis Set: CC-PVTZ
  Basis Set:
  @DF-RHF Final Energy:  -231.06859251709685
    Total Energy =                       -231.0685925170967892
  Basis Set: CC-PVTZ
  Basis Set:
  Charge       = 0
  Multiplicity = 1
  Basis Set: CC-PVTZ
  Basis Set:

    Orbital Energies (a.u.)
    -----------------------

    Doubly Occupied:

       1A    -20.552078     2A    -11.320523     3A    -11.237015
       4A    -11.234214     5A    -11.223348     6A     -1.406434
       7A     -1.085978     8A     -0.974223     9A     -0.856750
      10A     -0.778267    11A     -0.683618    12A     -0.646471
      13A     -0.611152    14A     -0.604800    15A     -0.566949
      16A     -0.536396    17A     -0.510518    18A     -0.493950
      19A     -0.482800    20A     -0.410690

  @DF-RHF Final Energy:  -231.06859280432178

   => Energetics <=

    Nuclear Repulsion Energy =            173.9179194142311076
    One-Electron Energy =                -657.5406763459128570
    Two-Electron Energy =                 252.5541641273600817
    DFT Exchange-Correlation Energy =       0.0000000000000000
    Empirical Dispersion Energy =           0.0000000000000000
    PCM Polarization Energy =               0.0000000000000000
    EFP Energy =                            0.0000000000000000
    Total Energy =                       -231.0685928043216677
    Molecular point group: c1
  Basis Set: CC-PVTZ
  Basis Set:

  -Total Gradient:
     Atom            X                  Y                   Z
    ------   -----------------  -----------------  -----------------
       1       -0.000001081791     0.000000150243     0.000000459520
       2        0.000001867880     0.000001242959     0.000002409389
       3        0.001043869832    -0.000131315898     0.002907006183
       4       -0.000000299650     0.000000713619    -0.000007765211
       5       -0.000599299545    -0.001638529904    -0.002499736216
       6       -0.000781850446     0.000362001112    -0.002048041949
       7       -0.000001802021     0.000000147320     0.000003079888
       8       -0.000002372358     0.000001853211    -0.000010391523
       9        0.000342033638     0.001402636251     0.001652274032
      10       -0.000000377079     0.000001259806     0.000002411594
      11       -0.000001635861    -0.000004048368    -0.000002246334
      12        0.000001307437     0.000001564555     0.000000805601
      13       -0.000000360036     0.000002325094    -0.000000264977

  **** Optimization is complete! (in 14 steps) ****
    Final optimized geometry and variables:
    Molecular point group: c1

    Geometry (in Angstrom), charge = 0, multiplicity = 1:

    H            0.850774043898    -1.061821340629    -1.065987646594
    C            0.783596455318     0.009077316553    -0.844180873542
    C            0.598938570121     0.377163633571     0.605334262059
    O            0.852554041709     0.797172515905    -1.724007145210
    C           -0.833461934496     0.134327748754     1.107374969249
    H            0.845747218280     1.426213180869     0.698786662317
    H            1.298254231068    -0.206869566156     1.197172542270
    C           -1.361469072570    -1.283789223763     0.907429645514
    H           -1.495116070814     0.851448168771     0.634052580733
    H           -0.849862324362     0.370132496370     2.165846270622
    H           -1.472826429652    -1.533835400246    -0.141117596936
    H           -2.334735251406    -1.391985275999     1.370096544996
    H           -0.699826965583    -2.017452546550     1.356367423745

  Mulliken Charges: (a.u.)
   Center  Symbol    Alpha    Beta     Spin     Total
       1     H     0.46135  0.46135  0.00000  0.07730
       2     C     2.90612  2.90612  0.00000  0.18776
       3     C     3.09084  3.09084  0.00000 -0.18168
       4     O     4.16578  4.16578  0.00000 -0.33156
       5     C     3.09324  3.09324  0.00000 -0.18648
       6     H     0.43869  0.43869  0.00000  0.12262
       7     H     0.44988  0.44988  0.00000  0.10025
       8     C     3.15488  3.15488  0.00000 -0.30976
       9     H     0.44486  0.44486  0.00000  0.11028
      10     H     0.44742  0.44742  0.00000  0.10515
      11     H     0.45097  0.45097  0.00000  0.09806
      12     H     0.44305  0.44305  0.00000  0.11390
      13     H     0.45292  0.45292  0.00000  0.09417

   Total alpha = 20.00000, Total beta = 20.00000, Total charge = -0.00000
