  ==> Input File <==

--------------------------------------------------------------------------
set {
	reference rhf
	basis 6-31G*
}

set_num_threads( 1 )
memory 2 gb

molecule MOL {
0 1

H	 3.131814	 0.047672	 -0.667916
N	 2.434251	 -0.367735	 -0.081097
C	 1.267428	 0.496480	 0.024474
H	 2.855098	 -0.500988	 0.818928
C	 -0.016086	 -0.325158	 -0.029487
H	 1.288818	 1.183521	 -0.816092
H	 1.267576	 1.109062	 0.929528
C	 -1.282277	 0.529072	 0.046735
H	 -0.012495	 -0.908639	 -0.945788
H	 -0.015903	 -1.041248	 0.791956
C	 -2.563920	 -0.301775	 -0.006060
H	 -1.284084	 1.244622	 -0.773004
H	 -1.271387	 1.115393	 0.963286
H	 -2.621848	 -0.873522	 -0.927727
H	 -3.445135	 0.329952	 0.047812
H	 -2.609542	 -1.004582	 0.821105

	symmetry c1
}
set optking {
	frozen_dihedral = ("
		6 3 5 9,
		12 8 5 9
	")
}

ee = energy('scf')
oeprop('DIPOLE', 'QUADRUPOLE', 'MULLIKEN_CHARGES')
f=open( 'psi4out.xyz', 'w' )
f.write( "16  " )
f.write( str(ee) + "\n" )
f.write( MOL.save_string_xyz() )
f.close()
--------------------------------------------------------------------------

    Molecular point group: c1

    Geometry (in Angstrom), charge = 0, multiplicity = 1:

       Center              X                  Y                   Z               Mass
    ------------   -----------------  -----------------  -----------------  -----------------
           H          3.128935493405     0.043010051779    -0.661571953718     1.007825032070
           N          2.431372493405    -0.372396948221    -0.074752953718    14.003074004780
           C          1.264549493405     0.491818051779     0.030818046282    12.000000000000
           H          2.852219493405    -0.505649948221     0.825272046282     1.007825032070
           C         -0.018964506595    -0.329819948221    -0.023142953718    12.000000000000
           H          1.285939493405     1.178859051779    -0.809747953718     1.007825032070
           H          1.264697493405     1.104400051779     0.935872046282     1.007825032070
           C         -1.285155506595     0.524410051779     0.053079046282    12.000000000000
           H         -0.015373506595    -0.913300948221    -0.939443953718     1.007825032070
           H         -0.018781506595    -1.045909948221     0.798300046282     1.007825032070
           C         -2.566798506595    -0.306436948221     0.000284046282    12.000000000000
           H         -1.286962506595     1.239960051779    -0.766659953718     1.007825032070
           H         -1.274265506595     1.110731051779     0.969630046282     1.007825032070
           H         -2.624726506595    -0.878183948221    -0.921382953718     1.007825032070
           H         -3.448013506595     0.325290051779     0.054156046282     1.007825032070
           H         -2.612420506595    -1.009243948221     0.827449046282     1.007825032070

  Charge       = 0
  Multiplicity = 1
  Basis Set: 6-31G*
  Basis Set:

    Orbital Energies (a.u.)
    -----------------------

    Doubly Occupied:

       1A    -15.532418     2A    -11.240196     3A    -11.211557
       4A    -11.205502     5A    -11.203162     6A     -1.176467
       7A     -1.056647     8A     -0.956856     9A     -0.841675
      10A     -0.786550    11A     -0.674935    12A     -0.624354
      13A     -0.609880    14A     -0.575462    15A     -0.552091
      16A     -0.531141    17A     -0.489045    18A     -0.473444
      19A     -0.463894    20A     -0.458526    21A     -0.379445

  @DF-RHF Final Energy:  -212.31433255761459

   => Energetics <=

    Nuclear Repulsion Energy =            186.0899568424666768
    One-Electron Energy =                -654.7220272284755538
    Two-Electron Energy =                 256.3177378283945131
    DFT Exchange-Correlation Energy =       0.0000000000000000
    Empirical Dispersion Energy =           0.0000000000000000
    PCM Polarization Energy =               0.0000000000000000
    EFP Energy =                            0.0000000000000000
    Total Energy =                       -212.3143325576143639

  Mulliken Charges: (a.u.)
   Center  Symbol    Alpha    Beta     Spin     Total
       1     H     0.33152  0.33152  0.00000  0.33696
       2     N     3.92268  3.92268  0.00000 -0.84535
       3     C     3.06882  3.06882  0.00000 -0.13764
       4     H     0.33318  0.33318  0.00000  0.33364
       5     C     3.13882  3.13882  0.00000 -0.27763
       6     H     0.42433  0.42433  0.00000  0.15133
       7     H     0.42952  0.42952  0.00000  0.14096
       8     C     3.15730  3.15730  0.00000 -0.31459
       9     H     0.41767  0.41767  0.00000  0.16466
      10     H     0.42497  0.42497  0.00000  0.15006
      11     C     3.23803  3.23803  0.00000 -0.47606
      12     H     0.42462  0.42462  0.00000  0.15075
      13     H     0.42509  0.42509  0.00000  0.14982
      14     H     0.42111  0.42111  0.00000  0.15779
      15     H     0.42054  0.42054  0.00000  0.15891
      16     H     0.42180  0.42180  0.00000  0.15640

   Total alpha = 21.00000, Total beta = 21.00000, Total charge = -0.00000
