  ==> Input File <==

--------------------------------------------------------------------------
set {
	reference rhf
	basis cc-pvtz
}

set_num_threads( 4 )
memory 2 gb

molecule MOL {
0 1

H	 -0.000105	 1.988529	 0.748933
O	 -0.000098	 1.879786	 -0.188206
C	 -0.000014	 0.545691	 -0.532416
C	 0.090498	 0.392221	 -2.051637
C	 -1.195474	 -0.164339	 0.105162
H	 0.890169	 0.095975	 -0.117700
F	 1.193988	 0.954938	 -2.478861
F	 0.108471	 -0.862387	 -2.424930
F	 -0.918521	 0.984561	 -2.653624
F	 -1.123700	 -0.048160	 1.408315
F	 -1.228039	 -1.440813	 -0.183398
F	 -2.332975	 0.372405	 -0.281326

	symmetry c1
}
set optking {
	frozen_dihedral = ("
		6 3 2 1
	")
}

ee = optimize('scf')
oeprop('DIPOLE', 'QUADRUPOLE', 'MULLIKEN_CHARGES')
f=open( 'psi4out.xyz', 'w' )
f.write( "12  " )
f.write( str(ee) + "\n" )
f.write( MOL.save_string_xyz() )
f.close()
--------------------------------------------------------------------------

    Molecular point group: c1
  Charge       = 0
  Multiplicity = 1
  Basis Set: CC-PVTZ
  Basis Set:
  @DF-RHF Final Energy:  -786.58570853478022
    Total Energy =                       -786.5857085347811335
    Molecular point group: c1
  Basis Set: CC-PVTZ
  Basis Set:
  Basis Set: CC-PVTZ
  Basis Set:
  @DF-RHF Final Energy:  -786.58759049985201
    Total Energy =                       -786.5875904998517854
  Basis Set: CC-PVTZ
  Basis Set:
  Basis Set: CC-PVTZ
  Basis Set:
  @DF-RHF Final Energy:  -786.58801298484036
    Total Energy =                       -786.5880129848407023
  Basis Set: CC-PVTZ
  Basis Set:
  Basis Set: CC-PVTZ
  Basis Set:
  @DF-RHF Final Energy:  -786.58806653361614
    Total Energy =                       -786.5880665336159154
  Basis Set: CC-PVTZ
  Basis Set:
  Basis Set: CC-PVTZ
  Basis Set:
  @DF-RHF Final Energy:  -786.58807643123350
    Total Energy =                       -786.5880764312330484
  Basis Set: CC-PVTZ
  Basis Set:
  Basis Set: CC-PVTZ
  Basis Set:
  @DF-RHF Final Energy:  -786.58807832814944
    Total Energy =                       -786.5880783281493223
  Basis Set: CC-PVTZ
  Basis Set:
  Charge       = 0
  Multiplicity = 1
  Basis Set: CC-PVTZ
  Basis Set:

    Orbital Energies (a.u.)
    -----------------------

    Doubly Occupied:

       1A    -26.360230     2A    -26.357421     3A    -26.355482
       4A    -26.351914     5A    -26.348462     6A    -26.348065
       7A    -20.609029     8A    -11.520169     9A    -11.516227
      10A    -11.351532    11A     -1.771030    12A     -1.762254
      13A     -1.665806    14A     -1.664747    15A     -1.657685
      16A     -1.656027    17A     -1.439513    18A     -1.104124
      19A     -1.000452    20A     -0.941097    21A     -0.873524
      22A     -0.864170    23A     -0.859871    24A     -0.848793
      25A     -0.838153    26A     -0.790136    27A     -0.761377
      28A     -0.736925    29A     -0.727852    30A     -0.724000
      31A     -0.721188    32A     -0.690350    33A     -0.686983
      34A     -0.674545    35A     -0.674024    36A     -0.667563
      37A     -0.658891    38A     -0.641157    39A     -0.622592
      40A     -0.551549    41A     -0.509959

  @DF-RHF Final Energy:  -786.58807875263574

   => Energetics <=

    Nuclear Repulsion Energy =            670.9319350679436411
    One-Electron Energy =               -2429.2302824894381956
    Two-Electron Energy =                 971.7102686688587028
    DFT Exchange-Correlation Energy =       0.0000000000000000
    Empirical Dispersion Energy =           0.0000000000000000
    PCM Polarization Energy =               0.0000000000000000
    EFP Energy =                            0.0000000000000000
    Total Energy =                       -786.5880787526358517
    Molecular point group: c1
  Basis Set: CC-PVTZ
  Basis Set:

  -Total Gradient:
     Atom            X                  Y                   Z
    ------   -----------------  -----------------  -----------------
       1       -0.000730282809     0.000008428869     0.000048768435
       2        0.000975991915     0.000043847062    -0.000166152799
       3       -0.000587571370    -0.000244472178     0.000605619611
       4       -0.000007424421    -0.000025347122    -0.000005193859
       5        0.000011197433     0.000017755832    -0.000022540053
       6        0.000305403350     0.000141837898    -0.000533504556
       7        0.000022338573    -0.000035293123     0.000028752847
       8        0.000034583186     0.000033680096     0.000053234208
       9       -0.000065771234     0.000049731310    -0.000001536341
      10        0.000029921084     0.000012217344    -0.000027043573
      11       -0.000009814055    -0.000004984236     0.000024444026
      12        0.000021428349     0.000002598248    -0.000004847934

  **** Optimization is complete! (in 7 steps) ****
    Final optimized geometry and variables:
    Molecular point group: c1

    Geometry (in Angstrom), charge = 0, multiplicity = 1:

    H            0.605193302705     1.736395618655     1.667229323886
    O            0.580300111490     1.613385941348     0.734340192666
    C            0.575225847781     0.272876789729     0.413996969551
    C            0.634972747651     0.186472437756    -1.109230238483
    C           -0.634377445201    -0.429735248989     1.032014794368
    H            1.453959827047    -0.247028794023     0.780306251668
    F            1.769387632137     0.693829040230    -1.526780243907
    F            0.585119349798    -1.064467219502    -1.505820685777
    F           -0.338509252677     0.837196935554    -1.687720913918
    F           -0.638696220804    -0.173544018143     2.328190477587
    F           -0.564530491472    -1.729240995808     0.887412246978
    F           -1.774271328006    -0.019809755667     0.543913392718

  Mulliken Charges: (a.u.)
   Center  Symbol    Alpha    Beta     Spin     Total
       1     H     0.38371  0.38371  0.00000  0.23259
       2     O     4.18460  4.18460  0.00000 -0.36919
       3     C     2.99834  2.99834  0.00000  0.00332
       4     C     2.67655  2.67655  0.00000  0.64690
       5     C     2.68337  2.68337  0.00000  0.63327
       6     H     0.44488  0.44488  0.00000  0.11024
       7     F     4.60405  4.60405  0.00000 -0.20810
       8     F     4.60593  4.60593  0.00000 -0.21186
       9     F     4.60137  4.60137  0.00000 -0.20273
      10     F     4.61437  4.61437  0.00000 -0.22873
      11     F     4.60322  4.60322  0.00000 -0.20645
      12     F     4.59963  4.59963  0.00000 -0.19926

   Total alpha = 41.00000, Total beta = 41.00000, Total charge = -0.00000
