                              Psi4 1.0.54 Driver

  ==> Input File <==

--------------------------------------------------------------------------
set {
	reference rhf
	basis cc-pvtz
}

set_num_threads( 4 )
memory 2 gb

molecule MOL {
0 1

H	 -2.767395	 2.160082	 1.122264
C	 -2.144672	 1.645867	 1.850744
O	 -0.840840	 1.504288	 1.395200
H	 -2.116154	 2.231018	 2.758308
H	 -2.598428	 0.681262	 2.071034
C	 -0.718530	 0.758693	 0.228682
C	 0.718529	 0.758687	 -0.228709
H	 -1.033193	 -0.270065	 0.403656
H	 -1.344591	 1.171461	 -0.559418
O	 1.401606	 -0.295166	 0.366636
H	 0.748705	 0.673477	 -1.312803
H	 1.176496	 1.708671	 0.046552
C	 2.714315	 -0.441627	 -0.061017
H	 2.765292	 -0.641548	 -1.128869
H	 3.305661	 0.447341	 0.150952
H	 3.143725	 -1.278506	 0.470147

	symmetry c1
}
set optking {
	frozen_dihedral = ("
		3 6 7 11
	")
}

ee,wfn = optimize('scf', return_wfn=True)
oeprop( wfn, 'DIPOLE', 'QUADRUPOLE', 'MULLIKEN_CHARGES')
f=open( 'psi4out.xyz', 'w' )
f.write( "16  " )
f.write( str(ee) + "\n" )
f.write( MOL.save_string_xyz() )
f.close()
--------------------------------------------------------------------------

    Molecular point group: c1
  Charge       = 0
  Multiplicity = 1
  Basis Set: CC-PVTZ
  Basis Set:
  @DF-RHF Final Energy:  -307.09636914269089
    Total Energy =                       -307.0963691426909463
    Molecular point group: c1
  Basis Set: CC-PVTZ
  Basis Set:
  Basis Set: CC-PVTZ
  Basis Set:
  @DF-RHF Final Energy:  -307.09686331790726
    Total Energy =                       -307.0968633179070366
  Basis Set: CC-PVTZ
  Basis Set:
  Basis Set: CC-PVTZ
  Basis Set:
  @DF-RHF Final Energy:  -307.09692161994951
    Total Energy =                       -307.0969216199492848
  Basis Set: CC-PVTZ
  Basis Set:
  Charge       = 0
  Multiplicity = 1
  Basis Set: CC-PVTZ
  Basis Set:

    Orbital Energies (a.u.)
    -----------------------

    Doubly Occupied:

       1A    -20.549308     2A    -20.548839     3A    -11.267142
       4A    -11.266440     5A    -11.262265     6A    -11.262101
       7A     -1.391258     8A     -1.376036     9A     -1.031152
      10A     -0.938429    11A     -0.890259    12A     -0.827316
      13A     -0.684737    14A     -0.684027    15A     -0.659287
      16A     -0.637162    17A     -0.635415    18A     -0.599661
      19A     -0.543114    20A     -0.541734    21A     -0.510002
      22A     -0.481318    23A     -0.465394    24A     -0.425082
      25A     -0.413056

  @DF-RHF Final Energy:  -307.09692462386658

   => Energetics <=

    Nuclear Repulsion Energy =            257.7557448606420394
    One-Electron Energy =                -929.9242553751852256
    Two-Electron Energy =                 365.0715858906761468
    DFT Exchange-Correlation Energy =       0.0000000000000000
    Empirical Dispersion Energy =           0.0000000000000000
    PCM Polarization Energy =               0.0000000000000000
    EFP Energy =                            0.0000000000000000
    Total Energy =                       -307.0969246238670394
    Molecular point group: c1
  Basis Set: CC-PVTZ
  Basis Set:

  -Total Gradient:
     Atom            X                  Y                   Z
    ------   -----------------  -----------------  -----------------
       1       -0.000006506791    -0.000015969111     0.000022940934
       2       -0.000095712593     0.000128310508     0.000085982920
       3       -0.000273563771     0.001857999063    -0.001542758105
       4       -0.000056068521    -0.000011591747     0.000022866276
       5        0.000018402903    -0.000002817499    -0.000002712749
       6        0.000522693088    -0.001820781468     0.001767616723
       7       -0.000389263642    -0.003350730857    -0.000015604448
       8        0.000001456929     0.000063217594     0.000069030919
       9       -0.000025546289    -0.000006371152    -0.000042062648
      10        0.000056271291     0.000076468897    -0.000013813428
      11        0.000147375387     0.003200880560    -0.000413107479
      12        0.000047442970    -0.000062465302     0.000035568631
      13       -0.000016636756    -0.000064739631     0.000013169934
      14        0.000006154437     0.000004196043     0.000009089125
      15        0.000013586345     0.000012203472     0.000006050985
      16        0.000049915015    -0.000007809373    -0.000002257587

  **** Optimization is complete! (in 4 steps) ****
    Final optimized geometry and variables:
    Molecular point group: c1

    Geometry (in Angstrom), charge = 0, multiplicity = 1:

    H           -2.963264232869     1.467313086865     0.607977185149
    C           -2.234817302518     1.052118723264     1.302012277166
    O           -0.976387510151     0.955900137247     0.722499105167
    H           -2.156682081588     1.708448694601     2.156459261242
    H           -2.594188802293     0.082041291101     1.637358874799
    C           -0.926517832625     0.147241027001    -0.409808236883
    C            0.503756938867     0.028241931905    -0.887054269000
    H           -1.315724002293    -0.844878682772    -0.197530872594
    H           -1.535587404473     0.585843147278    -1.199459159855
    O            1.133722817134    -1.029623825484    -0.240505628901
    H            0.521775986341    -0.110917560665    -1.967241158882
    H            1.014777331006     0.964661414489    -0.676221706047
    C            2.487047708047    -1.151852182961    -0.527303587589
    H            2.656861452963    -1.314232519520    -1.589992212876
    H            3.039973527329    -0.266423757176    -0.222330673396
    H            2.865510037329    -2.003742991862     0.018590257347

  Mulliken Charges: (a.u.)
   Center  Symbol    Alpha    Beta     Spin     Total
       1     H     0.47349  0.47349  0.00000  0.05301
       2     C     3.03094  3.03094  0.00000 -0.06188
       3     O     4.17249  4.17249  0.00000 -0.34499
       4     H     0.44649  0.44649  0.00000  0.10702
       5     H     0.46984  0.46984  0.00000  0.06032
       6     C     2.96071  2.96071  0.00000  0.07859
       7     C     2.96001  2.96001  0.00000  0.07998
       8     H     0.46941  0.46941  0.00000  0.06118
       9     H     0.47670  0.47670  0.00000  0.04660
      10     O     4.17234  4.17234  0.00000 -0.34468
      11     H     0.47667  0.47667  0.00000  0.04665
      12     H     0.47025  0.47025  0.00000  0.05949
      13     C     3.03126  3.03126  0.00000 -0.06252
      14     H     0.47313  0.47313  0.00000  0.05373
      15     H     0.46981  0.46981  0.00000  0.06038
      16     H     0.44645  0.44645  0.00000  0.10710

   Total alpha = 25.00000, Total beta = 25.00000, Total charge =  0.00000

*** Psi4 exiting successfully. Buy a developer a beer!
