  ==> Input File <==

--------------------------------------------------------------------------
set {
	reference rhf
	basis 6-31G*
}

set_num_threads( 4 )
memory 2 gb

molecule MOL {
0 1

H	 1.315755	 0.400740	 -0.990595
C	 0.850167	 0.441173	 0.000644
C	 -0.623425	 0.760064	 0.000248
O	 1.499690	 0.238338	 0.974669
C	 -1.518387	 -0.473136	 -0.000101
H	 -0.818289	 1.390622	 -0.866171
H	 -0.818694	 1.390413	 0.866696
H	 -1.333417	 -1.085530	 -0.874338
H	 -2.563510	 -0.183466	 -0.000351
H	 -1.333864	 -1.085676	 0.874123

	symmetry c1
}
set optking {
	frozen_dihedral = ("
		4 2 3 6
	")
}

ee = optimize('scf')
oeprop('DIPOLE', 'QUADRUPOLE', 'MULLIKEN_CHARGES')
f=open( 'psi4out.xyz', 'w' )
f.write( "10  " )
f.write( str(ee) + "\n" )
f.write( MOL.save_string_xyz() )
f.close()
--------------------------------------------------------------------------

    Molecular point group: c1
  Charge       = 0
  Multiplicity = 1
  Basis Set: 6-31G*
  Basis Set:
  @DF-RHF Final Energy:  -191.94827021953074
    Total Energy =                       -191.9482702195307127
    Molecular point group: c1
  Basis Set: 6-31G*
  Basis Set:
  Basis Set: 6-31G*
  Basis Set:
  @DF-RHF Final Energy:  -191.94898962843632
    Total Energy =                       -191.9489896284361521
  Basis Set: 6-31G*
  Basis Set:
  Basis Set: 6-31G*
  Basis Set:
  @DF-RHF Final Energy:  -191.94641702810230
    Total Energy =                       -191.9464170281023598
  Basis Set: 6-31G*
  Basis Set:
  Basis Set: 6-31G*
  Basis Set:
  @DF-RHF Final Energy:  -191.94926599009577
    Total Energy =                       -191.9492659900957392
  Basis Set: 6-31G*
  Basis Set:
  Basis Set: 6-31G*
  Basis Set:
  @DF-RHF Final Energy:  -191.94929091581531
    Total Energy =                       -191.9492909158152543
  Basis Set: 6-31G*
  Basis Set:
  Charge       = 0
  Multiplicity = 1
  Basis Set: 6-31G*
  Basis Set:

    Orbital Energies (a.u.)
    -----------------------

    Doubly Occupied:

       1A    -20.563716     2A    -11.327927     3A    -11.238501
       4A    -11.232866     5A     -1.403802     6A     -1.064353
       7A     -0.904253     8A     -0.789440     9A     -0.680651
      10A     -0.639761    11A     -0.605138    12A     -0.574836
      13A     -0.541022    14A     -0.510438    15A     -0.495435
      16A     -0.411973

  @DF-RHF Final Energy:  -191.94929150935874

   => Energetics <=

    Nuclear Repulsion Energy =            118.0592578337640646
    One-Electron Energy =                -494.0488756610619703
    Two-Electron Energy =                 184.0403263179391615
    DFT Exchange-Correlation Energy =       0.0000000000000000
    Empirical Dispersion Energy =           0.0000000000000000
    PCM Polarization Energy =               0.0000000000000000
    EFP Energy =                            0.0000000000000000
    Total Energy =                       -191.9492915093587726
    Molecular point group: c1
  Basis Set: 6-31G*
  Basis Set:

  -Total Gradient:
     Atom            X                  Y                   Z
    ------   -----------------  -----------------  -----------------
       1        0.000009183452    -0.000002592104     0.000033672902
       2        0.000380918766     0.001564804420    -0.000166341447
       3        0.000147143003     0.000706752304     0.000766293997
       4       -0.000269919318    -0.001264241848     0.000020678185
       5        0.000007968578     0.000037130386     0.000010993515
       6       -0.000300386156    -0.001015554380    -0.000657811319
       7        0.000021538059    -0.000029310296    -0.000010639591
       8        0.000000444895     0.000004693297    -0.000001882383
       9        0.000002729758     0.000002940460     0.000000002819
      10        0.000000378960    -0.000004622239     0.000005033322

  **** Optimization is complete! (in 6 steps) ****
    Final optimized geometry and variables:
    Molecular point group: c1

    Geometry (in Angstrom), charge = 0, multiplicity = 1:

    H            1.240479490768     0.051941532562    -1.244414953593
    C            0.789797302059     0.192835923516    -0.255434143202
    C           -0.673312472411     0.562167258661    -0.242692925495
    O            1.433955406743     0.008032634805     0.726187456420
    C           -1.539628872509    -0.706336818154    -0.259885191056
    H           -0.901759498659     1.167647731879    -1.114950150257
    H           -0.873621544600     1.141531328580     0.650565910036
    H           -1.343811733795    -1.308428533751    -1.142136770329
    H           -2.591640827584    -0.444990706595    -0.263883612992
    H           -1.342426476359    -1.314647155269     0.615219779505

  Mulliken Charges: (a.u.)
   Center  Symbol    Alpha    Beta     Spin     Total
       1     H     0.42970  0.42970  0.00000  0.14060
       2     C     2.83880  2.83880  0.00000  0.32240
       3     C     3.20058  3.20058  0.00000 -0.40117
       4     O     4.23555  4.23555  0.00000 -0.47110
       5     C     3.24949  3.24949  0.00000 -0.49898
       6     H     0.41446  0.41446  0.00000  0.17108
       7     H     0.39906  0.39906  0.00000  0.20187
       8     H     0.41643  0.41643  0.00000  0.16713
       9     H     0.41019  0.41019  0.00000  0.17963
      10     H     0.40573  0.40573  0.00000  0.18853

   Total alpha = 16.00000, Total beta = 16.00000, Total charge =  0.00000
