  ==> Input File <==

--------------------------------------------------------------------------
set {
	reference rhf
	basis cc-pvtz
}

set_num_threads( 4 )
memory 2 gb

molecule MOL {
0 1

O	 -1.278239	 1.034789	 -0.784693
C	 -1.204115	 0.062668	 -0.112312
C	 -2.386398	 -0.667698	 0.460323
O	 -0.068058	 -0.518372	 0.226882
H	 -2.382952	 -1.693172	 0.114333
H	 -3.296656	 -0.175702	 0.158400
H	 -2.312537	 -0.685191	 1.540100
C	 1.169086	 0.037484	 -0.230612
C	 2.210884	 -0.337276	 0.804437
C	 1.024636	 1.537830	 -0.411455
H	 1.407341	 -0.419795	 -1.178884
H	 2.278808	 -1.412746	 0.906901
H	 3.181806	 0.040456	 0.507214
H	 1.960591	 0.083304	 1.771082
H	 1.964032	 1.962118	 -0.746141
H	 0.269272	 1.764537	 -1.150831
H	 0.751875	 2.008946	 0.526061

	symmetry c1
}
set optking {
	frozen_dihedral = ("
		11 8 4 2
	")
}

ee = optimize('scf')
oeprop('DIPOLE', 'QUADRUPOLE', 'MULLIKEN_CHARGES')
f=open( 'psi4out.xyz', 'w' )
f.write( "17  " )
f.write( str(ee) + "\n" )
f.write( MOL.save_string_xyz() )
f.close()
--------------------------------------------------------------------------

    Molecular point group: c1
  Charge       = 0
  Multiplicity = 1
  Basis Set: CC-PVTZ
  Basis Set:
  @DF-RHF Final Energy:  -345.01237278913305
    Total Energy =                       -345.0123727891328826
    Molecular point group: c1
  Basis Set: CC-PVTZ
  Basis Set:
  Basis Set: CC-PVTZ
  Basis Set:
  @DF-RHF Final Energy:  -345.03032951446471
    Total Energy =                       -345.0303295144644267
  Basis Set: CC-PVTZ
  Basis Set:
  Basis Set: CC-PVTZ
  Basis Set:
  @DF-RHF Final Energy:  -345.03352871017586
    Total Energy =                       -345.0335287101758013
  Basis Set: CC-PVTZ
  Basis Set:
  Basis Set: CC-PVTZ
  Basis Set:
  @DF-RHF Final Energy:  -345.03096310856961
    Total Energy =                       -345.0309631085699493
  Basis Set: CC-PVTZ
  Basis Set:
  @DF-RHF Final Energy:  -345.03491684438518
    Total Energy =                       -345.0349168443851795
  @DF-RHF Final Energy:  -345.03504287508650
    Total Energy =                       -345.0350428750859919
  @DF-RHF Final Energy:  -345.03505838578519
    Total Energy =                       -345.0350583857849074
  Basis Set: CC-PVTZ
  Basis Set:
  @DF-RHF Final Energy:  -345.03506177440198
    Total Energy =                       -345.0350617744019246
  Basis Set: CC-PVTZ
  Basis Set:
  Basis Set: CC-PVTZ
  Basis Set:
  @DF-RHF Final Energy:  -345.03506286819140
    Total Energy =                       -345.0350628681913463
  Basis Set: CC-PVTZ
  Basis Set:
  Basis Set: CC-PVTZ
  Basis Set:
  @DF-RHF Final Energy:  -345.03506410995033
    Total Energy =                       -345.0350641099502127
  Basis Set: CC-PVTZ
  Basis Set:
  Charge       = 0
  Multiplicity = 1
  Basis Set: CC-PVTZ
  Basis Set:

    Orbital Energies (a.u.)
    -----------------------

    Doubly Occupied:

       1A    -20.589344     2A    -20.529444     3A    -11.366753
       4A    -11.294373     5A    -11.228880     6A    -11.217539
       7A    -11.211668     8A     -1.463901     9A     -1.364455
      10A     -1.080971    11A     -1.004096    12A     -0.947045
      13A     -0.859342    14A     -0.750956    15A     -0.692543
      16A     -0.681271    17A     -0.659955    18A     -0.615919
      19A     -0.586812    20A     -0.579652    21A     -0.553209
      22A     -0.548300    23A     -0.544304    24A     -0.518408
      25A     -0.503177    26A     -0.486799    27A     -0.447768
      28A     -0.432259

  @DF-RHF Final Energy:  -345.03506444772449

   => Energetics <=

    Nuclear Repulsion Energy =            324.2023264645346217
    One-Electron Energy =               -1112.9564957171714923
    Two-Electron Energy =                 443.7191048049123765
    DFT Exchange-Correlation Energy =       0.0000000000000000
    Empirical Dispersion Energy =           0.0000000000000000
    PCM Polarization Energy =               0.0000000000000000
    EFP Energy =                            0.0000000000000000
    Total Energy =                       -345.0350644477244941
    Molecular point group: c1
  Basis Set: CC-PVTZ
  Basis Set:

  -Total Gradient:
     Atom            X                  Y                   Z
    ------   -----------------  -----------------  -----------------
       1       -0.000013883701    -0.000000368420    -0.000011802213
       2       -0.000034220134     0.003189691412     0.004898210164
       3       -0.000016298135     0.000020333814     0.000017432542
       4        0.000738870497    -0.005909251492    -0.006794013951
       5       -0.000003385133    -0.000002518187    -0.000007909969
       6       -0.000003283554    -0.000008808747     0.000001420642
       7        0.000001938968    -0.000012041059    -0.000005739397
       8       -0.003861051093     0.007079226972    -0.001006332264
       9        0.000004836211     0.000002456282    -0.000004922820
      10        0.000169477701    -0.000040047084    -0.000052235684
      11        0.003048490812    -0.004318262291     0.002981977028
      12       -0.000012274714     0.000002298103    -0.000004090739
      13        0.000007303032     0.000005624792    -0.000000555132
      14       -0.000002560912    -0.000000875824    -0.000011278427
      15       -0.000002612041     0.000011802772     0.000003543151
      16       -0.000003630084    -0.000002271786    -0.000024939268
      17       -0.000017717721    -0.000016989253     0.000021236333

  **** Optimization is complete! (in 11 steps) ****
    Final optimized geometry and variables:
    Molecular point group: c1

    Geometry (in Angstrom), charge = 0, multiplicity = 1:

    O           -1.382781148603     0.680627373264    -0.964345937300
    C           -1.173407127033    -0.159418164859    -0.157801730476
    C           -2.250468055862    -0.869886814221     0.616463093566
    O            0.019004610233    -0.622142494457     0.166917910030
    H           -2.158486705792    -1.938597714121     0.474491957632
    H           -3.218061217483    -0.530561161406     0.284054325367
    H           -2.128908328274    -0.667583064092     1.673091834094
    C            1.266860416313    -0.025453246168    -0.217517325713
    C            2.253932065632    -0.519693409930     0.828613688444
    C            1.267033837903     1.490898726678    -0.307514207553
    H            1.547238697647    -0.474161247468    -1.162828347794
    H            2.216730420002    -1.598341368287     0.905684437413
    H            3.261314418041    -0.228558686492     0.557064751345
    H            2.024022670834    -0.099090504474     1.800592984216
    H            2.293900494876     1.818757594183    -0.419981961248
    H            0.689694294495     1.857798433793    -1.137527445516
    H            0.876346067205     1.926990417811     0.605215949229

  Mulliken Charges: (a.u.)
   Center  Symbol    Alpha    Beta     Spin     Total
       1     O     4.19872  4.19872  0.00000 -0.39744
       2     C     2.80771  2.80771  0.00000  0.38457
       3     C     3.13784  3.13784  0.00000 -0.27568
       4     O     4.16062  4.16062  0.00000 -0.32125
       5     H     0.44486  0.44486  0.00000  0.11027
       6     H     0.43863  0.43863  0.00000  0.12273
       7     H     0.44772  0.44772  0.00000  0.10455
       8     C     2.93121  2.93121  0.00000  0.13759
       9     C     3.13791  3.13791  0.00000 -0.27583
      10     C     3.16188  3.16188  0.00000 -0.32376
      11     H     0.44904  0.44904  0.00000  0.10191
      12     H     0.44588  0.44588  0.00000  0.10823
      13     H     0.45528  0.45528  0.00000  0.08944
      14     H     0.45388  0.45388  0.00000  0.09225
      15     H     0.45051  0.45051  0.00000  0.09899
      16     H     0.42651  0.42651  0.00000  0.14698
      17     H     0.45178  0.45178  0.00000  0.09644

   Total alpha = 28.00000, Total beta = 28.00000, Total charge =  0.00000
