  ==> Input File <==

--------------------------------------------------------------------------
set {
	reference rhf
	basis 6-31G*
}

set_num_threads( 1 )
memory 2 gb

molecule MOL {
0 1

H	 -0.946963	 4.998415	 5.374831
C	 -1.664102	 4.188323	 5.285467
C	 -1.646100	 3.587143	 3.880677
H	 -1.413273	 3.440689	 6.032106
H	 -2.644965	 4.586141	 5.531329
C	 -2.651823	 2.445250	 3.718152
H	 -0.647736	 3.224179	 3.659027
H	 -1.866440	 4.366795	 3.153157
C	 -2.669485	 1.835305	 2.316395
H	 -2.435666	 1.664842	 4.439182
H	 -3.649528	 2.816008	 3.942126
C	 -1.436708	 1.010915	 1.975979
H	 -3.525039	 1.169136	 2.216314
H	 -2.805952	 2.604519	 1.559518
C	 -1.181045	 0.701995	 0.511084
O	 -0.702830	 0.602780	 2.825246
C	 -2.285934	 -0.139295	 -0.145128
H	 -0.232501	 0.181262	 0.458026
H	 -1.076284	 1.642026	 -0.027481
C	 -3.651768	 0.085446	 0.506485
H	 -2.346596	 0.110469	 -1.202272
H	 -2.034737	 -1.195320	 -0.088721
C	 -4.759797	 -0.746382	 -0.137905
H	 -3.908762	 1.140117	 0.445781
H	 -3.588286	 -0.154158	 1.565709
H	 -4.868882	 -0.505166	 -1.191300
H	 -4.548009	 -1.809175	 -0.062213
H	 -5.715422	 -0.564821	 0.343442

	symmetry c1
}
set optking {
	frozen_dihedral = ("
		10 6 3 2,
		16 12 15 17
	")
}

ee = energy('scf')
oeprop('DIPOLE', 'QUADRUPOLE', 'MULLIKEN_CHARGES')
f=open( 'psi4out.xyz', 'w' )
f.write( "28  " )
f.write( str(ee) + "\n" )
f.write( MOL.save_string_xyz() )
f.close()
--------------------------------------------------------------------------

    Molecular point group: c1

    Geometry (in Angstrom), charge = 0, multiplicity = 1:

       Center              X                  Y                   Z               Mass
    ------------   -----------------  -----------------  -----------------  -----------------
           H          1.327168972610     3.639160693900     3.288407046200     1.007825032070
           C          0.610029972610     2.829068693900     3.199043046200    12.000000000000
           C          0.628031972610     2.227888693900     1.794253046200    12.000000000000
           H          0.860858972610     2.081434693900     3.945682046200     1.007825032070
           H         -0.370833027390     3.226886693900     3.444905046200     1.007825032070
           C         -0.377691027390     1.085995693900     1.631728046200    12.000000000000
           H          1.626395972610     1.864924693900     1.572603046200     1.007825032070
           H          0.407691972610     3.007540693900     1.066733046200     1.007825032070
           C         -0.395353027390     0.476050693900     0.229971046200    12.000000000000
           H         -0.161534027390     0.305587693900     2.352758046200     1.007825032070
           H         -1.375396027390     1.456753693900     1.855702046200     1.007825032070
           C          0.837423972610    -0.348339306100    -0.110444953800    12.000000000000
           H         -1.250907027390    -0.190118306100     0.129890046200     1.007825032070
           H         -0.531820027390     1.245264693900    -0.526905953800     1.007825032070
           C          1.093086972610    -0.657259306100    -1.575339953800    12.000000000000
           O          1.571301972610    -0.756474306100     0.738822046200    15.994914619560
           C         -0.011802027390    -1.498549306100    -2.231551953800    12.000000000000
           H          2.041630972610    -1.177992306100    -1.628397953800     1.007825032070
           H          1.197847972610     0.282771693900    -2.113904953800     1.007825032070
           C         -1.377636027390    -1.273808306100    -1.579938953800    12.000000000000
           H         -0.072464027390    -1.248785306100    -3.288695953800     1.007825032070
           H          0.239394972610    -2.554574306100    -2.175144953800     1.007825032070
           C         -2.485665027390    -2.105636306100    -2.224328953800    12.000000000000
           H         -1.634630027390    -0.219137306100    -1.640642953800     1.007825032070
           H         -1.314154027390    -1.513412306100    -0.520714953800     1.007825032070
           H         -2.594750027390    -1.864420306100    -3.277723953800     1.007825032070
           H         -2.273877027390    -3.168429306100    -2.148636953800     1.007825032070
           H         -3.441290027390    -1.924075306100    -1.742981953800     1.007825032070

  Charge       = 0
  Multiplicity = 1
  Basis Set: 6-31G*
  Basis Set:

    Orbital Energies (a.u.)
    -----------------------

    Doubly Occupied:

       1A    -20.549194     2A    -11.321549     3A    -11.233090
       4A    -11.228472     5A    -11.226628     6A    -11.219558
       7A    -11.216961     8A    -11.212636     9A    -11.209762
      10A    -11.203901    11A     -1.393916    12A     -1.105827
      13A     -1.072494    14A     -1.016264    15A     -0.996073
      16A     -0.904910    17A     -0.887452    18A     -0.815906
      19A     -0.790319    20A     -0.725936    21A     -0.671574
      22A     -0.655451    23A     -0.630019    24A     -0.622172
      25A     -0.609068    26A     -0.584581    27A     -0.578608
      28A     -0.569522    29A     -0.557725    30A     -0.530298
      31A     -0.521142    32A     -0.517028    33A     -0.499665
      34A     -0.489088    35A     -0.478898    36A     -0.471044
      37A     -0.462651    38A     -0.461329    39A     -0.434120
      40A     -0.393874

  @DF-RHF Final Energy:  -426.12971282363310

   => Energetics <=

    Nuclear Repulsion Energy =            553.2672965614358418
    One-Electron Energy =               -1674.6566790112624403
    Two-Electron Energy =                 695.2596696261944089
    DFT Exchange-Correlation Energy =       0.0000000000000000
    Empirical Dispersion Energy =           0.0000000000000000
    PCM Polarization Energy =               0.0000000000000000
    EFP Energy =                            0.0000000000000000
    Total Energy =                       -426.1297128236321896

  Mulliken Charges: (a.u.)
   Center  Symbol    Alpha    Beta     Spin     Total
       1     H     0.41998  0.41998  0.00000  0.16003
       2     C     3.23994  3.23994  0.00000 -0.47988
       3     C     3.15604  3.15604  0.00000 -0.31208
       4     H     0.41882  0.41882  0.00000  0.16237
       5     H     0.42412  0.42412  0.00000  0.15177
       6     C     3.14521  3.14521  0.00000 -0.29042
       7     H     0.41148  0.41148  0.00000  0.17704
       8     H     0.42843  0.42843  0.00000  0.14315
       9     C     3.22169  3.22169  0.00000 -0.44337
      10     H     0.40866  0.40866  0.00000  0.18268
      11     H     0.42366  0.42366  0.00000  0.15268
      12     C     2.73653  2.73653  0.00000  0.52694
      13     H     0.39426  0.39426  0.00000  0.21148
      14     H     0.41305  0.41305  0.00000  0.17389
      15     C     3.20255  3.20255  0.00000 -0.40510
      16     O     4.26575  4.26575  0.00000 -0.53150
      17     C     3.15337  3.15337  0.00000 -0.30673
      18     H     0.39779  0.39779  0.00000  0.20441
      19     H     0.41104  0.41104  0.00000  0.17791
      20     C     3.18018  3.18018  0.00000 -0.36037
      21     H     0.41522  0.41522  0.00000  0.16956
      22     H     0.41166  0.41166  0.00000  0.17667
      23     C     3.23622  3.23622  0.00000 -0.47243
      24     H     0.41262  0.41262  0.00000  0.17477
      25     H     0.41346  0.41346  0.00000  0.17309
      26     H     0.42071  0.42071  0.00000  0.15858
      27     H     0.41934  0.41934  0.00000  0.16133
      28     H     0.41823  0.41823  0.00000  0.16355

   Total alpha = 40.00000, Total beta = 40.00000, Total charge =  0.00000
