  ==> Input File <==

--------------------------------------------------------------------------
set {
	reference rhf
	basis 6-31G*
}

set_num_threads( 1 )
memory 2 gb

molecule MOL {
0 1

H	 3.022657	 1.376703	 2.520970
N	 2.187468	 0.823532	 2.518677
C	 1.397424	 1.086841	 1.324515
H	 1.672959	 1.072872	 3.342048
C	 0.177036	 0.173570	 1.276095
H	 2.027332	 0.889491	 0.462467
H	 1.074519	 2.127863	 1.244483
C	 -0.679275	 0.379305	 0.025956
H	 0.517038	 -0.856477	 1.332984
H	 -0.432286	 0.346609	 2.162729
C	 -1.903357	 -0.536963	 -0.023547
H	 -0.070113	 0.209414	 -0.860558
H	 -1.007226	 1.416485	 -0.024572
C	 -3.225172	 0.228290	 0.028445
H	 -1.867824	 -1.134999	 -0.931459
H	 -1.860449	 -1.239604	 0.805977
H	 -3.313397	 0.915643	 -0.808262
H	 -4.073500	 -0.448134	 -0.008893
H	 -3.306061	 0.809945	 0.942516

	symmetry c1
}
set optking {
	frozen_dihedral = ("
		6 3 5 9,
		12 8 5 9,
		1 2 3 6
	")
}

ee = energy('scf')
oeprop('DIPOLE', 'QUADRUPOLE', 'MULLIKEN_CHARGES')
f=open( 'psi4out.xyz', 'w' )
f.write( "19  " )
f.write( str(ee) + "\n" )
f.write( MOL.save_string_xyz() )
f.close()
--------------------------------------------------------------------------

    Molecular point group: c1

    Geometry (in Angstrom), charge = 0, multiplicity = 1:

       Center              X                  Y                   Z               Mass
    ------------   -----------------  -----------------  -----------------  -----------------
           H          3.342327111046     0.997467488207     1.635750343583     1.007825032070
           N          2.507138111046     0.444296488207     1.633457343583    14.003074004780
           C          1.717094111046     0.707605488207     0.439295343583    12.000000000000
           H          1.992629111046     0.693636488207     2.456828343583     1.007825032070
           C          0.496706111046    -0.205665511793     0.390875343583    12.000000000000
           H          2.347002111046     0.510255488207    -0.422752656417     1.007825032070
           H          1.394189111046     1.748627488207     0.359263343583     1.007825032070
           C         -0.359604888954     0.000069488207    -0.859263656417    12.000000000000
           H          0.836708111046    -1.235712511793     0.447764343583     1.007825032070
           H         -0.112615888954    -0.032626511793     1.277509343583     1.007825032070
           C         -1.583686888954    -0.916198511793    -0.908766656417    12.000000000000
           H          0.249557111046    -0.169821511793    -1.745777656417     1.007825032070
           H         -0.687555888954     1.037249488207    -0.909791656417     1.007825032070
           C         -2.905501888954    -0.150945511793    -0.856774656417    12.000000000000
           H         -1.548153888954    -1.514234511793    -1.816678656417     1.007825032070
           H         -1.540778888954    -1.618839511793    -0.079242656417     1.007825032070
           H         -2.993726888954     0.536407488207    -1.693481656417     1.007825032070
           H         -3.753829888954    -0.827369511793    -0.894112656417     1.007825032070
           H         -2.986390888954     0.430709488207     0.057296343583     1.007825032070

  Charge       = 0
  Multiplicity = 1
  Basis Set: 6-31G*
  Basis Set:

    Orbital Energies (a.u.)
    -----------------------

    Doubly Occupied:

       1A    -15.532356     2A    -11.239222     3A    -11.212243
       4A    -11.211082     5A    -11.209793     6A    -11.207866
       7A     -1.176456     8A     -1.073217     9A     -0.997171
      10A     -0.900794    11A     -0.815882    12A     -0.786956
      13A     -0.662847    14A     -0.639479    15A     -0.612706
      16A     -0.596777    17A     -0.561717    18A     -0.558154
      19A     -0.519678    20A     -0.499504    21A     -0.488928
      22A     -0.465288    23A     -0.452273    24A     -0.447906
      25A     -0.380767

  @DF-RHF Final Energy:  -251.34584224343672

   => Energetics <=

    Nuclear Repulsion Energy =            246.9981119667305052
    One-Electron Energy =                -828.1896117262040207
    Two-Electron Energy =                 329.8456575160366810
    DFT Exchange-Correlation Energy =       0.0000000000000000
    Empirical Dispersion Energy =           0.0000000000000000
    PCM Polarization Energy =               0.0000000000000000
    EFP Energy =                            0.0000000000000000
    Total Energy =                       -251.3458422434368913

  Mulliken Charges: (a.u.)
   Center  Symbol    Alpha    Beta     Spin     Total
       1     H     0.33254  0.33254  0.00000  0.33492
       2     N     3.92190  3.92190  0.00000 -0.84379
       3     C     3.06072  3.06072  0.00000 -0.12144
       4     H     0.33545  0.33545  0.00000  0.32910
       5     C     3.15387  3.15387  0.00000 -0.30773
       6     H     0.42084  0.42084  0.00000  0.15831
       7     H     0.43476  0.43476  0.00000  0.13047
       8     C     3.15870  3.15870  0.00000 -0.31740
       9     H     0.41247  0.41247  0.00000  0.17506
      10     H     0.42761  0.42761  0.00000  0.14478
      11     C     3.15394  3.15394  0.00000 -0.30787
      12     H     0.42099  0.42099  0.00000  0.15803
      13     H     0.42180  0.42180  0.00000  0.15641
      14     C     3.24035  3.24035  0.00000 -0.48070
      15     H     0.42029  0.42029  0.00000  0.15942
      16     H     0.41906  0.41906  0.00000  0.16188
      17     H     0.42166  0.42166  0.00000  0.15668
      18     H     0.42050  0.42050  0.00000  0.15900
      19     H     0.42257  0.42257  0.00000  0.15487

   Total alpha = 25.00000, Total beta = 25.00000, Total charge = -0.00000
