  ==> Input File <==

--------------------------------------------------------------------------
set {
	reference rhf
	basis 6-31G*
}

set_num_threads( 1 )
memory 2 gb

molecule MOL {
0 1

O	 -2.821601	 1.309235	 -0.001213
C	 -2.668563	 0.129746	 -0.000350
C	 -3.801572	 -0.864014	 -0.000442
O	 -1.481751	 -0.454642	 0.000584
H	 -4.417280	 -0.689587	 -0.874708
H	 -3.443784	 -1.883046	 -0.000565
H	 -4.417179	 -0.689832	 0.873954
C	 -0.334255	 0.388708	 0.000906
C	 0.891947	 -0.504646	 0.000751
H	 -0.365390	 1.025305	 -0.873475
H	 -0.365484	 1.024911	 0.875569
C	 2.191998	 0.301789	 0.000897
H	 0.855148	 -1.151283	 -0.871571
H	 0.855132	 -1.151660	 0.872805
C	 3.441114	 -0.581407	 0.000108
H	 2.215074	 0.954890	 -0.869742
H	 2.215465	 0.953923	 0.872248
C	 3.118895	 -2.068170	 0.143561
H	 4.098741	 -0.274269	 0.810212
H	 3.995348	 -0.418953	 -0.921577
H	 2.593550	 -2.267759	 1.073180
H	 4.023643	 -2.667879	 0.139832
H	 2.489682	 -2.413607	 -0.671776

	symmetry c1
}
set optking {
	frozen_dihedral = ("
		13 9 8 10,
		2 4 8 10,
		16 12 9 13,
		1 2 4 8
	")
}

ee = energy('scf')
oeprop('DIPOLE', 'QUADRUPOLE', 'MULLIKEN_CHARGES')
f=open( 'psi4out.xyz', 'w' )
f.write( "23  " )
f.write( str(ee) + "\n" )
f.write( MOL.save_string_xyz() )
f.close()
--------------------------------------------------------------------------

    Molecular point group: c1

    Geometry (in Angstrom), charge = 0, multiplicity = 1:

       Center              X                  Y                   Z               Mass
    ------------   -----------------  -----------------  -----------------  -----------------
           O         -2.634486653771     1.573887564389    -0.017914818935    15.994914619560
           C         -2.481448653771     0.394398564389    -0.017051818935    12.000000000000
           C         -3.614457653771    -0.599361435611    -0.017143818935    12.000000000000
           O         -1.294636653771    -0.189989435611    -0.016117818935    15.994914619560
           H         -4.230165653771    -0.424934435611    -0.891409818935     1.007825032070
           H         -3.256669653771    -1.618393435611    -0.017266818935     1.007825032070
           H         -4.230064653771    -0.425179435611     0.857252181065     1.007825032070
           C         -0.147140653771     0.653360564389    -0.015795818935    12.000000000000
           C          1.079061346229    -0.239993435611    -0.015950818935    12.000000000000
           H         -0.178275653771     1.289957564389    -0.890176818935     1.007825032070
           H         -0.178369653771     1.289563564389     0.858867181065     1.007825032070
           C          2.379112346229     0.566441564389    -0.015804818935    12.000000000000
           H          1.042262346229    -0.886630435611    -0.888272818935     1.007825032070
           H          1.042246346229    -0.887007435611     0.856103181065     1.007825032070
           C          3.628228346229    -0.316754435611    -0.016593818935    12.000000000000
           H          2.402188346229     1.219542564389    -0.886443818935     1.007825032070
           H          2.402579346229     1.218575564389     0.855546181065     1.007825032070
           C          3.306009346229    -1.803517435611     0.126859181065    12.000000000000
           H          4.285855346229    -0.009616435611     0.793510181065     1.007825032070
           H          4.182462346229    -0.154300435611    -0.938278818935     1.007825032070
           H          2.780664346229    -2.003106435611     1.056478181065     1.007825032070
           H          4.210757346229    -2.403226435611     0.123130181065     1.007825032070
           H          2.676796346229    -2.148954435611    -0.688477818935     1.007825032070

  Charge       = 0
  Multiplicity = 1
  Basis Set: 6-31G*
  Basis Set:

    Orbital Energies (a.u.)
    -----------------------

    Doubly Occupied:

       1A    -20.602386     2A    -20.540106     3A    -11.373664
       4A    -11.280138     5A    -11.232167     6A    -11.222745
       7A    -11.222153     8A    -11.220062     9A    -11.211553
      10A     -1.467405    11A     -1.360239    12A     -1.097435
      13A     -1.040125    14A     -0.998997    15A     -0.929868
      16A     -0.863025    17A     -0.785833    18A     -0.766769
      19A     -0.692036    20A     -0.684251    21A     -0.670705
      22A     -0.647700    23A     -0.610110    24A     -0.603235
      25A     -0.573242    26A     -0.561914    27A     -0.554066
      28A     -0.535336    29A     -0.533507    30A     -0.503505
      31A     -0.499929    32A     -0.471672    33A     -0.469734
      34A     -0.453014    35A     -0.449041    36A     -0.434941

  @DF-RHF Final Energy:  -422.96543410613765

   => Energetics <=

    Nuclear Repulsion Energy =            458.5983217447823108
    One-Electron Energy =               -1484.8021554140443641
    Two-Electron Energy =                 603.2383995631259950
    DFT Exchange-Correlation Energy =       0.0000000000000000
    Empirical Dispersion Energy =           0.0000000000000000
    PCM Polarization Energy =               0.0000000000000000
    EFP Energy =                            0.0000000000000000
    Total Energy =                       -422.9654341061361720

  Mulliken Charges: (a.u.)
   Center  Symbol    Alpha    Beta     Spin     Total
       1     O     4.28401  4.28401  0.00000 -0.56803
       2     C     2.61520  2.61520  0.00000  0.76959
       3     C     3.28767  3.28767  0.00000 -0.57535
       4     O     4.31302  4.31302  0.00000 -0.62603
       5     H     0.39757  0.39757  0.00000  0.20487
       6     H     0.39997  0.39997  0.00000  0.20007
       7     H     0.39757  0.39757  0.00000  0.20485
       8     C     2.99290  2.99290  0.00000  0.01419
       9     C     3.17209  3.17209  0.00000 -0.34418
      10     H     0.41121  0.41121  0.00000  0.17759
      11     H     0.41122  0.41122  0.00000  0.17756
      12     C     3.16396  3.16396  0.00000 -0.32792
      13     H     0.41261  0.41261  0.00000  0.17477
      14     H     0.41176  0.41176  0.00000  0.17647
      15     C     3.15446  3.15446  0.00000 -0.30891
      16     H     0.41778  0.41778  0.00000  0.16443
      17     H     0.41823  0.41823  0.00000  0.16354
      18     C     3.24688  3.24688  0.00000 -0.49376
      19     H     0.41817  0.41817  0.00000  0.16367
      20     H     0.41860  0.41860  0.00000  0.16280
      21     H     0.41976  0.41976  0.00000  0.16048
      22     H     0.41632  0.41632  0.00000  0.16735
      23     H     0.41903  0.41903  0.00000  0.16194

   Total alpha = 36.00000, Total beta = 36.00000, Total charge = -0.00000
