  ==> Input File <==

--------------------------------------------------------------------------
set {
	reference rhf
	basis cc-pvtz
}

set_num_threads( 4 )
memory 2 gb

molecule MOL {
0 1

O	 -2.071633	 -1.227563	 -0.223463
C	 -1.652164	 -0.152425	 0.058082
C	 -0.327811	 0.006324	 0.778296
C	 -2.402515	 1.108629	 -0.298924
C	 0.843231	 -0.001575	 -0.211665
H	 -0.319484	 0.928173	 1.350354
H	 -0.227804	 -0.823091	 1.466705
C	 2.197693	 0.138030	 0.476937
H	 0.722944	 0.805202	 -0.930230
H	 0.813976	 -0.926978	 -0.776588
C	 2.561243	 -1.077438	 1.322887
H	 2.967824	 0.300360	 -0.272110
H	 2.188955	 1.024924	 1.103739
H	 2.612289	 -1.975816	 0.716797
H	 1.825085	 -1.246070	 2.101349
H	 3.524783	 -0.946517	 1.801271
H	 -3.240910	 0.874416	 -0.936711
H	 -1.747554	 1.818823	 -0.790984
H	 -2.760419	 1.579708	 0.610998

	symmetry c1
}
set optking {
	frozen_dihedral = ("
		11 8 5 9
	")
}

ee = optimize('scf')
oeprop('DIPOLE', 'QUADRUPOLE', 'MULLIKEN_CHARGES')
f=open( 'psi4out.xyz', 'w' )
f.write( "19  " )
f.write( str(ee) + "\n" )
f.write( MOL.save_string_xyz() )
f.close()
--------------------------------------------------------------------------

    Molecular point group: c1
  Charge       = 0
  Multiplicity = 1
  Basis Set: CC-PVTZ
  Basis Set:
  @DF-RHF Final Energy:  -309.17525854982171
    Total Energy =                       -309.1752585498220469
    Molecular point group: c1
  Basis Set: CC-PVTZ
  Basis Set:
  Basis Set: CC-PVTZ
  Basis Set:
  @DF-RHF Final Energy:  -309.17558876113321
    Total Energy =                       -309.1755887611330991
  Basis Set: CC-PVTZ
  Basis Set:
  Basis Set: CC-PVTZ
  Basis Set:
  @DF-RHF Final Energy:  -309.17573717225633
    Total Energy =                       -309.1757371722558787
  Basis Set: CC-PVTZ
  Basis Set:
  Basis Set: CC-PVTZ
  Basis Set:
  @DF-RHF Final Energy:  -309.17572311677299
    Total Energy =                       -309.1757231167730424
  Basis Set: CC-PVTZ
  Basis Set:
  Basis Set: CC-PVTZ
  Basis Set:
  @DF-RHF Final Energy:  -309.17568649238797
    Total Energy =                       -309.1756864923876265
  Basis Set: CC-PVTZ
  Basis Set:
  Basis Set: CC-PVTZ
  Basis Set:
  @DF-RHF Final Energy:  -309.17574389682170
    Total Energy =                       -309.1757438968219276
  Basis Set: CC-PVTZ
  Basis Set:
  Charge       = 0
  Multiplicity = 1
  Basis Set: CC-PVTZ
  Basis Set:

    Orbital Energies (a.u.)
    -----------------------

    Doubly Occupied:

       1A    -20.536836     2A    -11.319442     3A    -11.229036
       4A    -11.227516     5A    -11.226973     6A    -11.223387
       7A    -11.212288     8A     -1.396994     9A     -1.092404
      10A     -1.028896    11A     -0.982250    12A     -0.899862
      13A     -0.799415    14A     -0.736433    15A     -0.659050
      16A     -0.653605    17A     -0.623141    18A     -0.602465
      19A     -0.597383    20A     -0.578129    21A     -0.548851
      22A     -0.542500    23A     -0.514445    24A     -0.502913
      25A     -0.481873    26A     -0.476592    27A     -0.464124
      28A     -0.399530

  @DF-RHF Final Energy:  -309.17574425324591

   => Energetics <=

    Nuclear Repulsion Energy =            304.8285412994777630
    One-Electron Energy =               -1022.8959082930143722
    Two-Electron Energy =                 408.8916227402907566
    DFT Exchange-Correlation Energy =       0.0000000000000000
    Empirical Dispersion Energy =           0.0000000000000000
    PCM Polarization Energy =               0.0000000000000000
    EFP Energy =                            0.0000000000000000
    Total Energy =                       -309.1757442532457958
    Molecular point group: c1
  Basis Set: CC-PVTZ
  Basis Set:

  -Total Gradient:
     Atom            X                  Y                   Z
    ------   -----------------  -----------------  -----------------
       1       -0.000046094565    -0.000012458814     0.000040557518
       2        0.000106640567    -0.000013856912    -0.000117028957
       3       -0.000073374069    -0.000073437658     0.000096376033
       4       -0.000019772347    -0.000002042957     0.000066340665
       5       -0.000178053508     0.000361438982     0.000263269048
       6        0.000007372024    -0.000000450298    -0.000019959904
       7       -0.000077978637     0.000023891678     0.000015592819
       8       -0.000181378139     0.000182307314     0.000356080401
       9        0.000271391671    -0.000299316546    -0.000407037478
      10       -0.000010503536     0.000027000501     0.000017749962
      11        0.000182450631    -0.000189806439    -0.000298412913
      12       -0.000002048075     0.000000741645     0.000018025384
      13       -0.000018224163     0.000010451945    -0.000018694126
      14       -0.000003841748    -0.000007220497     0.000006687411
      15        0.000037623037     0.000002219724    -0.000003779960
      16       -0.000001803327    -0.000010287316    -0.000010576403
      17        0.000006827908    -0.000007386642     0.000002643580
      18        0.000003442224    -0.000004581628    -0.000001753057
      19       -0.000002675951     0.000012793924    -0.000006080022

  **** Optimization is complete! (in 7 steps) ****
    Final optimized geometry and variables:
    Molecular point group: c1

    Geometry (in Angstrom), charge = 0, multiplicity = 1:

    O           -1.974932933412    -1.026995369188    -0.561646825223
    C           -1.544341293002     0.031541418507    -0.237129811164
    C           -0.233474583056     0.145169301442     0.515542989451
    C           -2.267847594852     1.315433776669    -0.567249096242
    C            0.953108236364     0.146926540932    -0.458297425244
    H           -0.219770333351     1.052734179822     1.110333128490
    H           -0.171155729752    -0.702742617329     1.183185300588
    C            2.315050813117     0.308731344503     0.218525569549
    H            0.826867544255     0.951337614521    -1.177218453549
    H            0.935728718538    -0.776915544205    -1.026560168647
    C            2.739555915315    -0.877836914835     1.079750470429
    H            3.060389040733     0.460178769413    -0.555750965869
    H            2.314407330223     1.214172604310     0.819386316133
    H            2.746621777783    -1.795049156367     0.500629627189
    H            2.077349029509    -1.025574914762     1.924385557216
    H            3.738176127562    -0.727107286434     1.472877634610
    H           -3.094142829028     1.116107652646    -1.232104691486
    H           -1.591759603083     2.033010357437    -1.018146058958
    H           -2.640903252918     1.759114606508     0.350363796806

  Mulliken Charges: (a.u.)
   Center  Symbol    Alpha    Beta     Spin     Total
       1     O     4.17714  4.17714  0.00000 -0.35428
       2     C     2.85773  2.85773  0.00000  0.28454
       3     C     3.10229  3.10229  0.00000 -0.20458
       4     C     3.15463  3.15463  0.00000 -0.30927
       5     C     3.10429  3.10429  0.00000 -0.20857
       6     H     0.44945  0.44945  0.00000  0.10111
       7     H     0.43740  0.43740  0.00000  0.12520
       8     C     3.09099  3.09099  0.00000 -0.18199
       9     H     0.44637  0.44637  0.00000  0.10726
      10     H     0.44130  0.44130  0.00000  0.11741
      11     C     3.15107  3.15107  0.00000 -0.30215
      12     H     0.44675  0.44675  0.00000  0.10650
      13     H     0.45399  0.45399  0.00000  0.09201
      14     H     0.45165  0.45165  0.00000  0.09671
      15     H     0.45381  0.45381  0.00000  0.09238
      16     H     0.44589  0.44589  0.00000  0.10821
      17     H     0.43602  0.43602  0.00000  0.12797
      18     H     0.45094  0.45094  0.00000  0.09811
      19     H     0.44829  0.44829  0.00000  0.10343

   Total alpha = 28.00000, Total beta = 28.00000, Total charge = -0.00000
