                              Psi4 1.0.54 Driver

  ==> Input File <==

--------------------------------------------------------------------------
set {
	reference rhf
	basis cc-pvtz
}

set_num_threads( 4 )
memory 2 gb

molecule MOL {
0 1

O	 0.074770	 1.259872	 0.000487
C	 0.029490	 0.077183	 0.000078
C	 -1.232113	 -0.748027	 0.000015
O	 1.106773	 -0.690081	 -0.000204
C	 -2.501422	 0.088592	 -0.000052
H	 -1.188777	 -1.400384	 -0.865133
H	 -1.188857	 -1.400312	 0.865225
H	 -2.548170	 0.725504	 -0.873205
H	 -3.371613	 -0.556398	 -0.000040
H	 -2.548215	 0.725571	 0.873047
C	 1.004426	 -1.952093	 -0.628291
H	 0.247299	 -2.555638	 -0.150037
H	 1.971574	 -2.416260	 -0.523411
H	 0.756595	 -1.838727	 -1.673267

	symmetry c1
}
set optking {
	frozen_dihedral = ("
		11 4 2 3
	")
}

ee,wfn = optimize('scf', return_wfn=True)
oeprop( wfn, 'DIPOLE', 'QUADRUPOLE', 'MULLIKEN_CHARGES')
f=open( 'psi4out.xyz', 'w' )
f.write( "14  " )
f.write( str(ee) + "\n" )
f.write( MOL.save_string_xyz() )
f.close()
--------------------------------------------------------------------------

    Molecular point group: c1
  Charge       = 0
  Multiplicity = 1
  Basis Set: CC-PVTZ
  Basis Set:
  @DF-RHF Final Energy:  -305.96347929684748
    Total Energy =                       -305.9634792968476518
    Molecular point group: c1
  Basis Set: CC-PVTZ
  Basis Set:
  Basis Set: CC-PVTZ
  Basis Set:
  @DF-RHF Final Energy:  -305.95498833209672
    Total Energy =                       -305.9549883320968320
  Basis Set: CC-PVTZ
  Basis Set:
  Basis Set: CC-PVTZ
  Basis Set:
  @DF-RHF Final Energy:  -305.97026673319027
    Total Energy =                       -305.9702667331903854
  Basis Set: CC-PVTZ
  Basis Set:
  Basis Set: CC-PVTZ
  Basis Set:
  @DF-RHF Final Energy:  -305.97068098487750
    Total Energy =                       -305.9706809848776174
  Basis Set: CC-PVTZ
  Basis Set:
  @DF-RHF Final Energy:  -305.97186330891174
    Total Energy =                       -305.9718633089116793
  Basis Set: CC-PVTZ
  Basis Set:
  @DF-RHF Final Energy:  -305.97210580557362
    Total Energy =                       -305.9721058055739036
  Basis Set: CC-PVTZ
  Basis Set:
  Basis Set: CC-PVTZ
  Basis Set:
  @DF-RHF Final Energy:  -305.97211652508389
    Total Energy =                       -305.9721165250835497
  Basis Set: CC-PVTZ
  Basis Set:
  Basis Set: CC-PVTZ
  Basis Set:
  @DF-RHF Final Energy:  -305.97211759016159
    Total Energy =                       -305.9721175901615879
  Basis Set: CC-PVTZ
  Basis Set:
  Charge       = 0
  Multiplicity = 1
  Basis Set: CC-PVTZ
  Basis Set:

    Orbital Energies (a.u.)
    -----------------------

    Doubly Occupied:

       1A    -20.592707     2A    -20.532358     3A    -11.367021
       4A    -11.293744     5A    -11.246345     6A    -11.218995
       7A     -1.465819     8A     -1.369524     9A     -1.064085
      10A     -0.985726    11A     -0.899916    12A     -0.769305
      13A     -0.706590    14A     -0.688656    15A     -0.676167
      16A     -0.627390    17A     -0.608662    18A     -0.560404
      19A     -0.552237    20A     -0.526896    21A     -0.512758
      22A     -0.501150    23A     -0.454598    24A     -0.436821

  @DF-RHF Final Energy:  -305.97211774839809

   => Energetics <=

    Nuclear Repulsion Energy =            247.9400988712640412
    One-Electron Energy =                -908.5086830421125796
    Two-Electron Energy =                 354.5964664224507032
    DFT Exchange-Correlation Energy =       0.0000000000000000
    Empirical Dispersion Energy =           0.0000000000000000
    PCM Polarization Energy =               0.0000000000000000
    EFP Energy =                            0.0000000000000000
    Total Energy =                       -305.9721177483978636
    Molecular point group: c1
  Basis Set: CC-PVTZ
  Basis Set:

  -Total Gradient:
     Atom            X                  Y                   Z
    ------   -----------------  -----------------  -----------------
       1       -0.000003718278    -0.000017358511    -0.000015384382
       2        0.000458591863     0.000440277093    -0.004496057011
       3       -0.000075367117     0.000079648693     0.002195259705
       4       -0.001151656640    -0.001425759480     0.004508978172
       5        0.000017810828     0.000004286506    -0.000004440353
       6        0.000001355473    -0.000000977938    -0.000008576110
       7        0.000004078768     0.000012369812    -0.000009471679
       8       -0.000000105445    -0.000000006139     0.000000192530
       9       -0.000000189932    -0.000003686765    -0.000000255799
      10        0.000003049805    -0.000002034429     0.000000292121
      11        0.000740734111     0.000900941215    -0.002178600682
      12        0.000001786081    -0.000003536803    -0.000000719268
      13        0.000024245697     0.000002153332     0.000018453136
      14       -0.000020615213     0.000013683417    -0.000009670380

  **** Optimization is complete! (in 9 steps) ****
    Final optimized geometry and variables:
    Molecular point group: c1

    Geometry (in Angstrom), charge = 0, multiplicity = 1:

    O            0.324350558912     1.543431495648     0.086264369288
    C            0.232718759358     0.369346989230     0.061098698308
    C           -1.091680407464    -0.363608735387     0.059610980533
    O            1.340243277342    -0.373396080949     0.120452608732
    C           -2.285251613025     0.576914315737     0.120806886812
    H           -1.148548823620    -0.988413561864    -0.825110174505
    H           -1.088899975444    -1.041487897402     0.907004757600
    H           -2.296771309493     1.244032584013    -0.729994853285
    H           -3.206161527753     0.006463547624     0.123851112557
    H           -2.254109609743     1.185356149257     1.013904718052
    C            1.401270714589    -1.670453613475    -0.418157872333
    H            0.763206248441    -2.362973990522     0.114810244727
    H            2.425766665631    -1.988253489227    -0.313080002267
    H            1.140124491835    -1.671773775326    -1.468896477759

  Mulliken Charges: (a.u.)
   Center  Symbol    Alpha    Beta     Spin     Total
       1     O     4.17637  4.17637  0.00000 -0.35275
       2     C     2.80649  2.80649  0.00000  0.38702
       3     C     3.12098  3.12098  0.00000 -0.24196
       4     O     4.13358  4.13358  0.00000 -0.26717
       5     C     3.13921  3.13921  0.00000 -0.27842
       6     H     0.44369  0.44369  0.00000  0.11263
       7     H     0.43830  0.43830  0.00000  0.12339
       8     H     0.44616  0.44616  0.00000  0.10768
       9     H     0.45137  0.45137  0.00000  0.09727
      10     H     0.44508  0.44508  0.00000  0.10984
      11     C     3.04565  3.04565  0.00000 -0.09131
      12     H     0.46061  0.46061  0.00000  0.07877
      13     H     0.43418  0.43418  0.00000  0.13164
      14     H     0.45832  0.45832  0.00000  0.08336

   Total alpha = 24.00000, Total beta = 24.00000, Total charge = -0.00000

*** Psi4 exiting successfully. Buy a developer a beer!
