  ==> Input File <==

--------------------------------------------------------------------------
set {
	reference rhf
	basis 6-31G*
}

set_num_threads( 4 )
memory 2 gb

molecule MOL {
0 1

H	 1.964176	 -4.965969	 2.873506
C	 1.942405	 -4.064785	 2.288301
C	 0.860601	 -3.787789	 1.459328
C	 2.986542	 -3.164937	 2.347486
H	 0.037699	 -4.477866	 1.400553
C	 0.829175	 -2.633264	 0.707476
H	 3.831549	 -3.362543	 2.983097
C	 2.970189	 -1.995264	 1.595119
H	 -0.000059	 -2.407068	 0.063240
C	 1.887146	 -1.728984	 0.772201
H	 3.797144	 -1.315390	 1.662818
O	 1.765256	 -0.628444	 0.000000
C	 2.778419	 0.335181	 0.000000
H	 2.731280	 0.961222	 -0.884976
H	 3.711703	 -0.207767	 0.000000
H	 2.731280	 0.961222	 0.884976

	symmetry c1
}
set optking {
	frozen_dihedral = ("
		10 12 13 14
	")
}

ee = optimize('scf')
oeprop('DIPOLE', 'QUADRUPOLE', 'MULLIKEN_CHARGES')
f=open( 'psi4out.xyz', 'w' )
f.write( "16  " )
f.write( str(ee) + "\n" )
f.write( MOL.save_string_xyz() )
f.close()
--------------------------------------------------------------------------

    Molecular point group: c1
  Charge       = 0
  Multiplicity = 1
  Basis Set: 6-31G*
  Basis Set:
  @DF-RHF Final Energy:  -344.57879557149460
    Total Energy =                       -344.5787955714948225
    Molecular point group: c1
  Basis Set: 6-31G*
  Basis Set:
  Basis Set: 6-31G*
  Basis Set:
  @DF-RHF Final Energy:  -344.58083499660569
    Total Energy =                       -344.5808349966058017
  Basis Set: 6-31G*
  Basis Set:
  Basis Set: 6-31G*
  Basis Set:
  @DF-RHF Final Energy:  -344.58184473326116
    Total Energy =                       -344.5818447332611072
  Basis Set: 6-31G*
  Basis Set:
  Basis Set: 6-31G*
  Basis Set:
  @DF-RHF Final Energy:  -344.58190439140003
    Total Energy =                       -344.5819043913998030
  Basis Set: 6-31G*
  Basis Set:
  Basis Set: 6-31G*
  Basis Set:
  @DF-RHF Final Energy:  -344.58191231990418
    Total Energy =                       -344.5819123199041769
  Basis Set: 6-31G*
  Basis Set:
  Charge       = 0
  Multiplicity = 1
  Basis Set: 6-31G*
  Basis Set:

    Orbital Energies (a.u.)
    -----------------------

    Doubly Occupied:

       1A    -20.583643     2A    -11.293564     3A    -11.279617
       4A    -11.232898     5A    -11.231368     6A    -11.223861
       7A    -11.219569     8A    -11.219308     9A     -1.412628
      10A     -1.145773    11A     -1.021293    12A     -1.012734
      13A     -0.941079    14A     -0.830617    15A     -0.804638
      16A     -0.720821    17A     -0.663761    18A     -0.661819
      19A     -0.654766    20A     -0.616188    21A     -0.587149
      22A     -0.576935    23A     -0.523876    24A     -0.519078
      25A     -0.508339    26A     -0.476845    27A     -0.459472
      28A     -0.334527    29A     -0.305517

  @DF-RHF Final Energy:  -344.58191330780215

   => Energetics <=

    Nuclear Repulsion Energy =            348.0429070189022127
    One-Electron Energy =               -1157.1262764018965754
    Two-Electron Energy =                 464.5014560751923227
    DFT Exchange-Correlation Energy =       0.0000000000000000
    Empirical Dispersion Energy =           0.0000000000000000
    PCM Polarization Energy =               0.0000000000000000
    EFP Energy =                            0.0000000000000000
    Total Energy =                       -344.5819133078019831
    Molecular point group: c1
  Basis Set: 6-31G*
  Basis Set:

  -Total Gradient:
     Atom            X                  Y                   Z
    ------   -----------------  -----------------  -----------------
       1       -0.000021462112    -0.000004931376    -0.000004292320
       2        0.000123926998     0.000026233953     0.000021228709
       3       -0.000096165816     0.000093965959    -0.000067224108
       4       -0.000070570497    -0.000101783355     0.000039921225
       5        0.000004821408    -0.000017165353     0.000002705294
       6       -0.000079519875    -0.000150685119     0.000094509545
       7        0.000001227998     0.000017878142    -0.000009137720
       8       -0.000104513637     0.000116106583    -0.000081962568
       9        0.000009459505     0.000001541635    -0.000004150993
      10        0.000714774677    -0.001045667435    -0.001879057185
      11        0.000017921015     0.000023938293    -0.000007297898
      12       -0.000565432234     0.001163547438     0.002431642634
      13       -0.000965118641     0.001456642476     0.000909023846
      14        0.001007796872    -0.001606150902    -0.001459870979
      15        0.000009951843     0.000003144196     0.000023850167
      16        0.000012902500     0.000023384861    -0.000009887647

  **** Optimization is complete! (in 6 steps) ****
    Final optimized geometry and variables:
    Molecular point group: c1

    Geometry (in Angstrom), charge = 0, multiplicity = 1:

    H           -0.015504695207    -2.908789510976     1.661616947538
    C           -0.054683254910    -1.980230367540     1.121799278565
    C           -1.125360737539    -1.698908292528     0.280354746845
    C            0.954666541006    -1.048496115977     1.255128910036
    H           -1.920989592654    -2.413606013264     0.165839222704
    C           -1.178009336172    -0.510509835258    -0.416421581540
    H            1.787626514475    -1.246716080754     1.906237245738
    C            0.913844725774     0.156251118645     0.562189785965
    H           -1.997512924954    -0.281317886928    -1.071920421146
    C           -0.153610100733     0.423139176199    -0.280416596758
    H            1.704719925850     0.869338466243     0.695437273403
    O           -0.297135804891     1.565819610687    -0.985506525743
    C            0.803305090609     2.409738581592    -1.177068137773
    H            0.566962040444     3.033795664082    -2.026499360286
    H            1.700019727570     1.844518396337    -1.405542319308
    H            0.983526376941     3.030728518358    -0.305893531549

  Mulliken Charges: (a.u.)
   Center  Symbol    Alpha    Beta     Spin     Total
       1     H     0.40120  0.40120  0.00000  0.19761
       2     C     3.11183  3.11183  0.00000 -0.22366
       3     C     3.09210  3.09210  0.00000 -0.18421
       4     C     3.09126  3.09126  0.00000 -0.18252
       5     H     0.39877  0.39877  0.00000  0.20245
       6     C     3.12532  3.12532  0.00000 -0.25064
       7     H     0.39961  0.39961  0.00000  0.20078
       8     C     3.14297  3.14297  0.00000 -0.28593
       9     H     0.39301  0.39301  0.00000  0.21398
      10     C     2.78371  2.78371  0.00000  0.43258
      11     H     0.39741  0.39741  0.00000  0.20517
      12     O     4.32698  4.32698  0.00000 -0.65396
      13     C     3.09113  3.09113  0.00000 -0.18227
      14     H     0.40578  0.40578  0.00000  0.18844
      15     H     0.41967  0.41967  0.00000  0.16066
      16     H     0.41924  0.41924  0.00000  0.16152

   Total alpha = 29.00000, Total beta = 29.00000, Total charge =  0.00000
