  ==> Input File <==

--------------------------------------------------------------------------
set {
	reference rhf
	basis 6-31G*
}

set_num_threads( 4 )
memory 2 gb

molecule MOL {
0 1

H	 3.200789	 0.429907	 -1.435678
O	 2.270735	 0.268544	 -1.310315
C	 2.077727	 -0.067559	 -0.035091
C	 0.624473	 -0.343591	 0.253101
O	 2.972328	 -0.129213	 0.743949
C	 -0.265902	 0.883932	 0.072916
H	 0.324016	 -1.163849	 -0.390541
H	 0.565024	 -0.726111	 1.268924
C	 -1.728698	 0.646073	 0.462102
H	 -0.209144	 1.219470	 -0.958188
H	 0.135059	 1.692851	 0.673903
C	 -2.482460	 -0.343073	 -0.431425
H	 -2.245265	 1.602650	 0.432430
H	 -1.779332	 0.308348	 1.496285
C	 -3.960546	 -0.461025	 -0.060175
H	 -2.395034	 -0.026811	 -1.468912
H	 -2.024850	 -1.327147	 -0.371646
H	 -4.472726	 -1.168004	 -0.705284
H	 -4.465146	 0.496508	 -0.151489
H	 -4.081218	 -0.800940	 0.964585

	symmetry c1
}
set optking {
	frozen_dihedral = ("
		5 3 4 7
	")
}

ee = optimize('scf')
oeprop('DIPOLE', 'QUADRUPOLE', 'MULLIKEN_CHARGES')
f=open( 'psi4out.xyz', 'w' )
f.write( "20  " )
f.write( str(ee) + "\n" )
f.write( MOL.save_string_xyz() )
f.close()
--------------------------------------------------------------------------

    Molecular point group: c1
  Charge       = 0
  Multiplicity = 1
  Basis Set: 6-31G*
  Basis Set:
  @DF-RHF Final Energy:  -383.94706403462419
    Total Energy =                       -383.9470640346241908
    Molecular point group: c1
  Basis Set: 6-31G*
  Basis Set:
  Basis Set: 6-31G*
  Basis Set:
  @DF-RHF Final Energy:  -383.94736394275606
    Total Energy =                       -383.9473639427565104
  Basis Set: 6-31G*
  Basis Set:
  Basis Set: 6-31G*
  Basis Set:
  @DF-RHF Final Energy:  -383.94688785895005
    Total Energy =                       -383.9468878589500491
  Basis Set: 6-31G*
  Basis Set:
  Basis Set: 6-31G*
  Basis Set:
  @DF-RHF Final Energy:  -383.94739271953932
    Total Energy =                       -383.9473927195391525
  Basis Set: 6-31G*
  Basis Set:
  Basis Set: 6-31G*
  Basis Set:
  @DF-RHF Final Energy:  -383.94739396511170
    Total Energy =                       -383.9473939651117007
  Basis Set: 6-31G*
  Basis Set:
  Charge       = 0
  Multiplicity = 1
  Basis Set: 6-31G*
  Basis Set:

    Orbital Energies (a.u.)
    -----------------------

    Doubly Occupied:

       1A    -20.612568     2A    -20.549485     3A    -11.379544
       4A    -11.238689     5A    -11.232006     6A    -11.224104
       7A    -11.222401     8A    -11.213989     9A     -1.473578
      10A     -1.363838    11A     -1.099511    12A     -1.042347
      13A     -0.960948    14A     -0.864164    15A     -0.822354
      16A     -0.791038    17A     -0.699786    18A     -0.684954
      19A     -0.653459    20A     -0.629590    21A     -0.615455
      22A     -0.592529    23A     -0.575716    24A     -0.552129
      25A     -0.550435    26A     -0.516336    27A     -0.502468
      28A     -0.480475    29A     -0.477181    30A     -0.468475
      31A     -0.460748    32A     -0.434776

  @DF-RHF Final Energy:  -383.94739417661731

   => Energetics <=

    Nuclear Repulsion Energy =            376.8073348237824121
    One-Electron Energy =               -1269.5393069248066240
    Two-Electron Energy =                 508.7845779244070172
    DFT Exchange-Correlation Energy =       0.0000000000000000
    Empirical Dispersion Energy =           0.0000000000000000
    PCM Polarization Energy =               0.0000000000000000
    EFP Energy =                            0.0000000000000000
    Total Energy =                       -383.9473941766171947
    Molecular point group: c1
  Basis Set: 6-31G*
  Basis Set:

  -Total Gradient:
     Atom            X                  Y                   Z
    ------   -----------------  -----------------  -----------------
       1        0.000038192731     0.000063031583    -0.000044601218
       2        0.000039742649    -0.000071523610     0.000052330899
       3       -0.000121764930     0.000331254937     0.000181948975
       4       -0.000097620832     0.000186519058    -0.000227070120
       5        0.000025911722    -0.000261998213    -0.000155248453
       6       -0.000023552110    -0.000042935991    -0.000018201247
       7        0.000057891524    -0.000196421233     0.000211208680
       8       -0.000002812920    -0.000085585528     0.000034349205
       9       -0.000011547887     0.000056590325    -0.000005774656
      10       -0.000013709573     0.000077330101    -0.000032281809
      11       -0.000037458009    -0.000063464926     0.000001348920
      12        0.000057129529    -0.000032297102    -0.000031060118
      13       -0.000009007811     0.000012458192    -0.000007368426
      14        0.000012397333     0.000014703430     0.000004579291
      15        0.000026167517     0.000033634061     0.000035590427
      16       -0.000001242201    -0.000002221055     0.000000988724
      17        0.000043506400    -0.000025143703    -0.000005998073
      18        0.000032359653     0.000008922852    -0.000005969208
      19       -0.000004442488     0.000005639262     0.000004227749
      20       -0.000010140303    -0.000008492442     0.000007000455

  **** Optimization is complete! (in 6 steps) ****
    Final optimized geometry and variables:
    Molecular point group: c1

    Geometry (in Angstrom), charge = 0, multiplicity = 1:

    H            3.242622882460     0.426476966665    -1.337965660433
    O            2.310873550736     0.258333748243    -1.235755409412
    C            2.096605134133    -0.129689463363     0.021772557213
    C            0.643170840084    -0.415134266728     0.293139557292
    O            2.981098925511    -0.229405945284     0.808748878391
    C           -0.243586149887     0.826387107902     0.109108774466
    H            0.334062417304    -1.206265205332    -0.381644955077
    H            0.576887062478    -0.789154995816     1.306743907559
    C           -1.705262444628     0.598139769163     0.507630646673
    H           -0.190911963708     1.156928939289    -0.923114732217
    H            0.158823147191     1.633171529494     0.716225879767
    C           -2.462157374410    -0.402163732341    -0.370130775793
    H           -2.218885973226     1.555956891324     0.466018925710
    H           -1.750516589295     0.275313247595     1.546198990235
    C           -3.939221518174    -0.511636856710     0.007700462286
    H           -2.376910842679    -0.101416251701    -1.412333299299
    H           -2.005888527378    -1.385718110397    -0.296592023823
    H           -4.454149596455    -1.226899151940    -0.625820053575
    H           -4.442607381117     0.445297953020    -0.095905630836
    H           -4.057283121356    -0.836804636193     1.037472595193

  Mulliken Charges: (a.u.)
   Center  Symbol    Alpha    Beta     Spin     Total
       1     H     0.26760  0.26760  0.00000  0.46480
       2     O     4.34747  4.34747  0.00000 -0.69493
       3     C     2.63077  2.63077  0.00000  0.73847
       4     C     3.20258  3.20258  0.00000 -0.40517
       5     O     4.27913  4.27913  0.00000 -0.55825
       6     C     3.16585  3.16585  0.00000 -0.33170
       7     H     0.40044  0.40044  0.00000  0.19912
       8     H     0.39752  0.39752  0.00000  0.20495
       9     C     3.15391  3.15391  0.00000 -0.30783
      10     H     0.40703  0.40703  0.00000  0.18594
      11     H     0.41238  0.41238  0.00000  0.17524
      12     C     3.15527  3.15527  0.00000 -0.31055
      13     H     0.41789  0.41789  0.00000  0.16422
      14     H     0.42083  0.42083  0.00000  0.15835
      15     C     3.23951  3.23951  0.00000 -0.47903
      16     H     0.42100  0.42100  0.00000  0.15799
      17     H     0.42156  0.42156  0.00000  0.15688
      18     H     0.41786  0.41786  0.00000  0.16428
      19     H     0.42073  0.42073  0.00000  0.15855
      20     H     0.42067  0.42067  0.00000  0.15865

   Total alpha = 32.00000, Total beta = 32.00000, Total charge = -0.00000
