  ==> Input File <==

--------------------------------------------------------------------------
set {
	reference rhf
	basis cc-pvtz
}

set_num_threads( 4 )
memory 2 gb

molecule MOL {
0 1

H	 -2.900921	 -0.130614	 -0.661313
O	 -2.346257	 -0.289210	 0.080372
C	 -1.183935	 0.486039	 -0.009831
C	 0.062853	 -0.375310	 0.027457
H	 -1.178881	 1.094526	 -0.908634
H	 -1.184406	 1.155156	 0.838676
O	 1.172093	 0.457955	 -0.054438
H	 0.052476	 -1.081302	 -0.804627
H	 0.076323	 -0.955658	 0.947560
C	 2.395478	 -0.199028	 -0.000366
H	 2.505946	 -0.901710	 -0.823354
H	 3.174616	 0.545641	 -0.071768
H	 2.513730	 -0.742241	 0.934223

	symmetry c1
}
set optking {
	frozen_dihedral = ("
		1 2 3 5
	")
}

ee = optimize('scf')
oeprop('DIPOLE', 'QUADRUPOLE', 'MULLIKEN_CHARGES')
f=open( 'psi4out.xyz', 'w' )
f.write( "13  " )
f.write( str(ee) + "\n" )
f.write( MOL.save_string_xyz() )
f.close()
--------------------------------------------------------------------------

    Molecular point group: c1
  Charge       = 0
  Multiplicity = 1
  Basis Set: CC-PVTZ
  Basis Set:
  @DF-RHF Final Energy:  -268.06094755133222
    Total Energy =                       -268.0609475513321058
    Molecular point group: c1
  Basis Set: CC-PVTZ
  Basis Set:
  Basis Set: CC-PVTZ
  Basis Set:
  @DF-RHF Final Energy:  -268.06134149803950
    Total Energy =                       -268.0613414980393827
  Basis Set: CC-PVTZ
  Basis Set:
  Basis Set: CC-PVTZ
  Basis Set:
  @DF-RHF Final Energy:  -268.06146599372744
    Total Energy =                       -268.0614659937273814
  Basis Set: CC-PVTZ
  Basis Set:
  Basis Set: CC-PVTZ
  Basis Set:
  @DF-RHF Final Energy:  -268.06146978393167
    Total Energy =                       -268.0614697839316705
  Basis Set: CC-PVTZ
  Basis Set:
  Charge       = 0
  Multiplicity = 1
  Basis Set: CC-PVTZ
  Basis Set:

    Orbital Energies (a.u.)
    -----------------------

    Doubly Occupied:

       1A    -20.553069     2A    -20.551340     3A    -11.267866
       4A    -11.265382     5A    -11.265069     6A     -1.389053
       7A     -1.367513     8A     -1.019262     9A     -0.912405
      10A     -0.835028    11A     -0.715740    12A     -0.679516
      13A     -0.649439    14A     -0.643053    15A     -0.606062
      16A     -0.554168    17A     -0.547983    18A     -0.492499
      19A     -0.479582    20A     -0.441067    21A     -0.421583

  @DF-RHF Final Energy:  -268.06147013783283

   => Energetics <=

    Nuclear Repulsion Energy =            190.4704150526463877
    One-Electron Energy =                -743.7504122236363173
    Two-Electron Energy =                 285.2185270331571019
    DFT Exchange-Correlation Energy =       0.0000000000000000
    Empirical Dispersion Energy =           0.0000000000000000
    PCM Polarization Energy =               0.0000000000000000
    EFP Energy =                            0.0000000000000000
    Total Energy =                       -268.0614701378327709
    Molecular point group: c1
  Basis Set: CC-PVTZ
  Basis Set:

  -Total Gradient:
     Atom            X                  Y                   Z
    ------   -----------------  -----------------  -----------------
       1        0.000030270905    -0.000065300047    -0.000039654940
       2       -0.000023497108     0.000124450325     0.000057255266
       3        0.000029110031    -0.000126650028    -0.000040752535
       4       -0.000003177091    -0.000014251865    -0.000006665667
       5       -0.000022426540     0.000053878132     0.000032750905
       6       -0.000002774632    -0.000008986409     0.000000363117
       7        0.000019459402     0.000015633336     0.000000260693
       8       -0.000009695788    -0.000003119062    -0.000007592776
       9       -0.000006888099     0.000021555995    -0.000002282766
      10       -0.000007394876     0.000002445368     0.000010523750
      11       -0.000005108843     0.000001975737    -0.000000766061
      12        0.000000840587     0.000000795868    -0.000002284056
      13        0.000001282049    -0.000002427352    -0.000001154928

  **** Optimization is complete! (in 5 steps) ****
    Final optimized geometry and variables:
    Molecular point group: c1

    Geometry (in Angstrom), charge = 0, multiplicity = 1:

    H           -2.882731939830    -0.200880801223    -0.645137865099
    O           -2.320316194792    -0.314056777587     0.096083951686
    C           -1.179657092553     0.495904509762    -0.019017122975
    C            0.058420769902    -0.374271671325     0.008834057812
    H           -1.192481953918     1.075941488986    -0.934951822744
    H           -1.147887831396     1.192798685010     0.809723636587
    O            1.174394640439     0.453981635453    -0.046328832201
    H            0.043836201705    -1.062681518051    -0.834634513506
    H            0.059846109856    -0.970235635108     0.919130014777
    C            2.391687559707    -0.214179962828    -0.001133388463
    H            2.501122306689    -0.898462043436    -0.839563396645
    H            3.177751359021     0.525144454469    -0.050491158379
    H            2.500107159627    -0.780390910649     0.921018327012

  Mulliken Charges: (a.u.)
   Center  Symbol    Alpha    Beta     Spin     Total
       1     H     0.38886  0.38886  0.00000  0.22228
       2     O     4.20676  4.20676  0.00000 -0.41351
       3     C     2.97137  2.97137  0.00000  0.05725
       4     C     2.95854  2.95854  0.00000  0.08291
       5     H     0.46942  0.46942  0.00000  0.06117
       6     H     0.46195  0.46195  0.00000  0.07611
       7     O     4.17656  4.17656  0.00000 -0.35311
       8     H     0.47678  0.47678  0.00000  0.04645
       9     H     0.47074  0.47074  0.00000  0.05852
      10     C     3.03096  3.03096  0.00000 -0.06192
      11     H     0.47112  0.47112  0.00000  0.05775
      12     H     0.44687  0.44687  0.00000  0.10626
      13     H     0.47008  0.47008  0.00000  0.05983

   Total alpha = 21.00000, Total beta = 21.00000, Total charge =  0.00000
