                              Psi4 1.0.54 Driver

  ==> Input File <==

--------------------------------------------------------------------------
set {
	reference rhf
	basis cc-pvtz
}

set_num_threads( 4 )
memory 2 gb

molecule MOL {
0 1

O	 -2.081319	 -0.951530	 -0.502732
N	 -1.613558	 0.006676	 0.014756
C	 -0.329345	 -0.171618	 0.743966
O	 -2.068523	 1.100482	 -0.024385
C	 0.835904	 0.041968	 -0.213982
H	 -0.346048	 -1.174374	 1.137184
H	 -0.333613	 0.555559	 1.538590
C	 0.661875	 1.323800	 -1.024406
H	 1.756595	 0.085912	 0.356065
H	 0.905056	 -0.810705	 -0.879492
C	 1.812212	 1.557837	 -1.997253
H	 0.582114	 2.170145	 -0.348554
H	 -0.273334	 1.278784	 -1.574648
H	 2.757277	 1.640712	 -1.472198
H	 1.896848	 0.741576	 -2.705965
H	 1.663767	 2.471547	 -2.559623

	symmetry c1
}
set optking {
	frozen_dihedral = ("
		9 5 3 2
	")
}

ee,wfn = optimize('scf', return_wfn=True)
oeprop( wfn, 'DIPOLE', 'QUADRUPOLE', 'MULLIKEN_CHARGES')
f=open( 'psi4out.xyz', 'w' )
f.write( "16  " )
f.write( str(ee) + "\n" )
f.write( MOL.save_string_xyz() )
f.close()
--------------------------------------------------------------------------

    Molecular point group: c1
  Charge       = 0
  Multiplicity = 1
  Basis Set: CC-PVTZ
  Basis Set:
  @DF-RHF Final Energy:  -360.90463709562209
    Total Energy =                       -360.9046370956219789
    Molecular point group: c1
  Basis Set: CC-PVTZ
  Basis Set:
  Basis Set: CC-PVTZ
  Basis Set:
  @DF-RHF Final Energy:  -360.90617533506810
    Total Energy =                       -360.9061753350678714
  Basis Set: CC-PVTZ
  Basis Set:
  Basis Set: CC-PVTZ
  Basis Set:
  @DF-RHF Final Energy:  -360.90328836443325
    Total Energy =                       -360.9032883644329672
  Basis Set: CC-PVTZ
  Basis Set:
  Basis Set: CC-PVTZ
  Basis Set:
  @DF-RHF Final Energy:  -360.90737526576180
    Total Energy =                       -360.9073752657616296
  Basis Set: CC-PVTZ
  Basis Set:
  @DF-RHF Final Energy:  -360.90793904393570
    Total Energy =                       -360.9079390439359258
  @DF-RHF Final Energy:  -360.90818251550184
    Total Energy =                       -360.9081825155018350
  @DF-RHF Final Energy:  -360.90834170325672
    Total Energy =                       -360.9083417032571219
  Basis Set: CC-PVTZ
  Basis Set:
  @DF-RHF Final Energy:  -360.90839315321642
    Total Energy =                       -360.9083931532164797
  Basis Set: CC-PVTZ
  Basis Set:
  Basis Set: CC-PVTZ
  Basis Set:
  @DF-RHF Final Energy:  -360.90840772059920
    Total Energy =                       -360.9084077205989161
  Basis Set: CC-PVTZ
  Basis Set:
  Basis Set: CC-PVTZ
  Basis Set:
  @DF-RHF Final Energy:  -360.90840844096795
    Total Energy =                       -360.9084084409679463
  Basis Set: CC-PVTZ
  Basis Set:
  Charge       = 0
  Multiplicity = 1
  Basis Set: CC-PVTZ
  Basis Set:

    Orbital Energies (a.u.)
    -----------------------

    Doubly Occupied:

       1A    -20.592793     2A    -20.588232     3A    -15.836427
       4A    -11.296821     5A    -11.249587     6A    -11.233490
       7A    -11.221212     8A     -1.636022     9A     -1.420227
      10A     -1.134613    11A     -1.054271    12A     -0.947658
      13A     -0.855583    14A     -0.814545    15A     -0.756177
      16A     -0.739950    17A     -0.729846    18A     -0.665404
      19A     -0.619341    20A     -0.601611    21A     -0.573827
      22A     -0.545246    23A     -0.507678    24A     -0.493768
      25A     -0.491366    26A     -0.485255    27A     -0.472534
      28A     -0.453958

  @DF-RHF Final Energy:  -360.90840905066261

   => Energetics <=

    Nuclear Repulsion Energy =            321.4936199504724073
    One-Electron Energy =               -1128.7691707795231650
    Two-Electron Energy =                 446.3671417783881452
    DFT Exchange-Correlation Energy =       0.0000000000000000
    Empirical Dispersion Energy =           0.0000000000000000
    PCM Polarization Energy =               0.0000000000000000
    EFP Energy =                            0.0000000000000000
    Total Energy =                       -360.9084090506626126
    Molecular point group: c1
  Basis Set: CC-PVTZ
  Basis Set:

  -Total Gradient:
     Atom            X                  Y                   Z
    ------   -----------------  -----------------  -----------------
       1        0.000027116677     0.000011098334     0.000014215336
       2       -0.000167337484     0.002555739699     0.000406916515
       3        0.000027859948    -0.002808922342    -0.000557452216
       4        0.000014056025     0.000005946552     0.000006998170
       5        0.000660084338    -0.003177501036    -0.000013647351
       6        0.000014215197    -0.000001357734     0.000002376836
       7        0.000013599667    -0.000005184218    -0.000000168918
       8        0.000002934962     0.000011406832     0.000008152105
       9       -0.000588103136     0.003418301824     0.000135793995
      10       -0.000000388830    -0.000007468262     0.000000611059
      11       -0.000003190942    -0.000003741292    -0.000004600520
      12       -0.000004730597     0.000003574935     0.000000074106
      13        0.000005151586    -0.000000373869    -0.000001065086
      14       -0.000001995413     0.000000994277     0.000001855261
      15        0.000001401957    -0.000000313796    -0.000001743914
      16       -0.000000673959    -0.000002199906     0.000001684624

  **** Optimization is complete! (in 11 steps) ****
    Final optimized geometry and variables:
    Molecular point group: c1

    Geometry (in Angstrom), charge = 0, multiplicity = 1:

    O           -1.426495278302    -1.307508363676    -0.245879054329
    N           -1.173608362706    -0.458746924775     0.543527210137
    C            0.180735904063    -0.497797139653     1.163406327441
    O           -1.904624564562     0.413207374149     0.870517399253
    C            1.273688890898    -0.269606940531     0.125009779710
    H            0.264040343119    -1.472579166803     1.617797773360
    H            0.172089341060     0.269321596621     1.918310719272
    C            1.061203315647     0.963878814183    -0.752487354797
    H            2.193361086403    -0.135657899418     0.685276517153
    H            1.381776921861    -1.153115496113    -0.489921238988
    C            2.229881719827     1.197382987022    -1.703516773690
    H            0.924114466435     1.837180200855    -0.122004752594
    H            0.149962845394     0.852803965293    -1.329191964509
    H            3.155644773289     1.351819326951    -1.159504517649
    H            2.370864401652     0.349391868208    -2.364672030578
    H            2.057988162657     2.071606650151    -2.319241223113

  Mulliken Charges: (a.u.)
   Center  Symbol    Alpha    Beta     Spin     Total
       1     O     4.17477  4.17477  0.00000 -0.34955
       2     N     3.28003  3.28003  0.00000  0.43994
       3     C     3.05054  3.05054  0.00000 -0.10108
       4     O     4.16934  4.16934  0.00000 -0.33869
       5     C     3.10230  3.10230  0.00000 -0.20461
       6     H     0.42697  0.42697  0.00000  0.14605
       7     H     0.43089  0.43089  0.00000  0.13822
       8     C     3.09035  3.09035  0.00000 -0.18069
       9     H     0.44539  0.44539  0.00000  0.10922
      10     H     0.43882  0.43882  0.00000  0.12237
      11     C     3.14987  3.14987  0.00000 -0.29975
      12     H     0.44790  0.44790  0.00000  0.10420
      13     H     0.44127  0.44127  0.00000  0.11746
      14     H     0.45528  0.45528  0.00000  0.08944
      15     H     0.45202  0.45202  0.00000  0.09596
      16     H     0.44425  0.44425  0.00000  0.11151

   Total alpha = 28.00000, Total beta = 28.00000, Total charge = -0.00000

*** Psi4 exiting successfully. Buy a developer a beer!
