  ==> Input File <==

--------------------------------------------------------------------------
set {
	reference rhf
	basis 6-31G*
}

set_num_threads( 1 )
memory 2 gb

molecule MOL {
0 1

O	 -2.361292	 0.269647	 -1.130298
C	 -1.921153	 0.064240	 -0.045697
C	 -2.737642	 -0.320522	 1.158318
O	 -0.632575	 0.154573	 0.251549
H	 -2.605432	 0.417177	 1.941433
H	 -3.779852	 -0.385860	 0.883791
H	 -2.394598	 -1.273614	 1.543924
C	 0.160891	 -1.019931	 0.106212
C	 1.589627	 -0.672828	 0.480843
H	 0.089836	 -1.367806	 -0.916050
H	 -0.238459	 -1.792301	 0.749618
C	 2.246377	 0.346236	 -0.452210
H	 2.163194	 -1.597435	 0.473358
H	 1.604769	 -0.303424	 1.502885
C	 3.691736	 0.652107	 -0.061850
H	 2.219579	 -0.032311	 -1.472055
H	 1.666466	 1.263317	 -0.447249
H	 4.134505	 1.377213	 -0.737283
H	 4.305508	 -0.243868	 -0.089969
H	 3.748266	 1.059562	 0.943567

	symmetry c1
}
set optking {
	frozen_dihedral = ("
		16 12 9 8,
		2 4 8 10,
		12 9 8 10
	")
}

ee = energy('scf')
oeprop('DIPOLE', 'QUADRUPOLE', 'MULLIKEN_CHARGES')
f=open( 'psi4out.xyz', 'w' )
f.write( "20  " )
f.write( str(ee) + "\n" )
f.write( MOL.save_string_xyz() )
f.close()
--------------------------------------------------------------------------

    Molecular point group: c1

    Geometry (in Angstrom), charge = 0, multiplicity = 1:

       Center              X                  Y                   Z               Mass
    ------------   -----------------  -----------------  -----------------  -----------------
           O         -2.356731219993     0.334469988980    -1.169770274826    15.994914619560
           C         -1.916592219993     0.129062988980    -0.085169274826    12.000000000000
           C         -2.733081219993    -0.255699011020     1.118845725174    12.000000000000
           O         -0.628014219993     0.219395988980     0.212076725174    15.994914619560
           H         -2.600871219993     0.481999988980     1.901960725174     1.007825032070
           H         -3.775291219993    -0.321037011020     0.844318725174     1.007825032070
           H         -2.390037219993    -1.208791011020     1.504451725174     1.007825032070
           C          0.165451780007    -0.955108011020     0.066739725174    12.000000000000
           C          1.594187780007    -0.608005011020     0.441370725174    12.000000000000
           H          0.094396780007    -1.302983011020    -0.955522274826     1.007825032070
           H         -0.233898219993    -1.727478011020     0.710145725174     1.007825032070
           C          2.250937780007     0.411058988980    -0.491682274826    12.000000000000
           H          2.167754780007    -1.532612011020     0.433885725174     1.007825032070
           H          1.609329780007    -0.238601011020     1.463412725174     1.007825032070
           C          3.696296780007     0.716929988980    -0.101322274826    12.000000000000
           H          2.224139780007     0.032511988980    -1.511527274826     1.007825032070
           H          1.671026780007     1.328139988980    -0.486721274826     1.007825032070
           H          4.139065780007     1.442035988980    -0.776755274826     1.007825032070
           H          4.310068780007    -0.179045011020    -0.129441274826     1.007825032070
           H          3.752826780007     1.124384988980     0.904094725174     1.007825032070

  Charge       = 0
  Multiplicity = 1
  Basis Set: 6-31G*
  Basis Set:

    Orbital Energies (a.u.)
    -----------------------

    Doubly Occupied:

       1A    -20.584754     2A    -20.553589     3A    -11.375489
       4A    -11.296709     5A    -11.234001     6A    -11.230242
       7A    -11.219841     8A    -11.213062     9A     -1.462499
      10A     -1.366503    11A     -1.086573    12A     -1.021686
      13A     -0.990620    14A     -0.885787    15A     -0.811264
      16A     -0.780315    17A     -0.696144    18A     -0.685112
      19A     -0.654306    20A     -0.635467    21A     -0.613537
      22A     -0.590167    23A     -0.578650    24A     -0.565153
      25A     -0.544277    26A     -0.530113    27A     -0.490826
      28A     -0.486415    29A     -0.480888    30A     -0.474492
      31A     -0.450317    32A     -0.436291

  @DF-RHF Final Energy:  -383.92481107808914

   => Energetics <=

    Nuclear Repulsion Energy =            385.0537078847111729
    One-Electron Energy =               -1285.9066806937662477
    Two-Electron Energy =                 516.9281617309668491
    DFT Exchange-Correlation Energy =       0.0000000000000000
    Empirical Dispersion Energy =           0.0000000000000000
    PCM Polarization Energy =               0.0000000000000000
    EFP Energy =                            0.0000000000000000
    Total Energy =                       -383.9248110780881689

  Mulliken Charges: (a.u.)
   Center  Symbol    Alpha    Beta     Spin     Total
       1     O     4.25587  4.25587  0.00000 -0.51174
       2     C     2.62860  2.62860  0.00000  0.74279
       3     C     3.28673  3.28673  0.00000 -0.57346
       4     O     4.31186  4.31186  0.00000 -0.62372
       5     H     0.39892  0.39892  0.00000  0.20215
       6     H     0.39844  0.39844  0.00000  0.20312
       7     H     0.40764  0.40764  0.00000  0.18472
       8     C     3.00400  3.00400  0.00000 -0.00801
       9     C     3.16277  3.16277  0.00000 -0.32554
      10     H     0.40965  0.40965  0.00000  0.18071
      11     H     0.42057  0.42057  0.00000  0.15885
      12     C     3.15501  3.15501  0.00000 -0.31002
      13     H     0.41909  0.41909  0.00000  0.16183
      14     H     0.41309  0.41309  0.00000  0.17382
      15     C     3.24106  3.24106  0.00000 -0.48211
      16     H     0.42126  0.42126  0.00000  0.15747
      17     H     0.40584  0.40584  0.00000  0.18832
      18     H     0.41616  0.41616  0.00000  0.16769
      19     H     0.42266  0.42266  0.00000  0.15468
      20     H     0.42078  0.42078  0.00000  0.15844

   Total alpha = 32.00000, Total beta = 32.00000, Total charge =  0.00000
