                              Psi4 1.0.54 Driver

  ==> Input File <==

--------------------------------------------------------------------------
set {
	reference rhf
	basis cc-pvtz
}

set_num_threads( 4 )
memory 2 gb

molecule MOL {
0 1

O	 -2.504951	 1.131598	 -0.059088
C	 -2.131359	 0.005832	 0.008082
C	 -0.881910	 -0.448129	 -0.720509
C	 -2.865338	 -1.024155	 0.833411
C	 0.376695	 -0.140025	 0.100361
H	 -0.840415	 0.083804	 -1.662547
H	 -0.934147	 -1.511122	 -0.930705
C	 1.630207	 -0.772146	 -0.501001
H	 0.486632	 0.935267	 0.162725
H	 0.248225	 -0.501310	 1.117842
C	 2.907848	 -0.545876	 0.309149
H	 1.772784	 -0.391628	 -1.509394
H	 1.468529	 -1.842059	 -0.599744
C	 3.373802	 0.906639	 0.372125
H	 3.699140	 -1.146831	 -0.127906
H	 2.764321	 -0.923458	 1.318191
H	 3.519798	 1.311927	 -0.623875
H	 4.316899	 0.983758	 0.900700
H	 2.661122	 1.540651	 0.885346
H	 -3.309604	 -1.760870	 0.171688
H	 -3.639877	 -0.550350	 1.416649
H	 -2.178785	 -1.552309	 1.485552

	symmetry c1
}
set optking {
	frozen_dihedral = ("
		6 3 5 8
	")
}

ee,wfn = optimize('scf', return_wfn=True)
oeprop( wfn, 'DIPOLE', 'QUADRUPOLE', 'MULLIKEN_CHARGES')
f=open( 'psi4out.xyz', 'w' )
f.write( "22  " )
f.write( str(ee) + "\n" )
f.write( MOL.save_string_xyz() )
f.close()
--------------------------------------------------------------------------

    Molecular point group: c1
  Charge       = 0
  Multiplicity = 1
  Basis Set: CC-PVTZ
  Basis Set:
  @DF-RHF Final Energy:  -348.22316607497686
    Total Energy =                       -348.2231660749769162
    Molecular point group: c1
  Basis Set: CC-PVTZ
  Basis Set:
  Basis Set: CC-PVTZ
  Basis Set:
  @DF-RHF Final Energy:  -348.22320228223975
    Total Energy =                       -348.2232022822398108
  Basis Set: CC-PVTZ
  Basis Set:
  Basis Set: CC-PVTZ
  Basis Set:
  @DF-RHF Final Energy:  -348.22318851848524
    Total Energy =                       -348.2231885184849602
  Basis Set: CC-PVTZ
  Basis Set:
  Basis Set: CC-PVTZ
  Basis Set:
  @DF-RHF Final Energy:  -348.22320249294108
    Total Energy =                       -348.2232024929414251
  Basis Set: CC-PVTZ
  Basis Set:
  Basis Set: CC-PVTZ
  Basis Set:
  @DF-RHF Final Energy:  -348.22321085488414
    Total Energy =                       -348.2232108548845986
  Basis Set: CC-PVTZ
  Basis Set:
  Basis Set: CC-PVTZ
  Basis Set:
  @DF-RHF Final Energy:  -348.22321312733737
    Total Energy =                       -348.2232131273373739
  Basis Set: CC-PVTZ
  Basis Set:
  Charge       = 0
  Multiplicity = 1
  Basis Set: CC-PVTZ
  Basis Set:

    Orbital Energies (a.u.)
    -----------------------

    Doubly Occupied:

       1A    -20.536583     2A    -11.319123     3A    -11.228130
       4A    -11.227473     5A    -11.226869     6A    -11.220961
       7A    -11.219291     8A    -11.209738     9A     -1.396713
      10A     -1.097502    11A     -1.045880    12A     -1.000128
      13A     -0.939320    14A     -0.858701    15A     -0.787612
      16A     -0.733970    17A     -0.664063    18A     -0.647201
      19A     -0.627800    20A     -0.623200    21A     -0.598021
      22A     -0.582221    23A     -0.566216    24A     -0.542006
      25A     -0.536786    26A     -0.519017    27A     -0.499132
      28A     -0.492470    29A     -0.472004    30A     -0.465425
      31A     -0.461537    32A     -0.398200

  @DF-RHF Final Energy:  -348.22321344063977

   => Energetics <=

    Nuclear Repulsion Energy =            373.6241719274975708
    One-Electron Energy =               -1212.2081870865747533
    Two-Electron Energy =                 490.3608017184377559
    DFT Exchange-Correlation Energy =       0.0000000000000000
    Empirical Dispersion Energy =           0.0000000000000000
    PCM Polarization Energy =               0.0000000000000000
    EFP Energy =                            0.0000000000000000
    Total Energy =                       -348.2232134406393698
    Molecular point group: c1
  Basis Set: CC-PVTZ
  Basis Set:

  -Total Gradient:
     Atom            X                  Y                   Z
    ------   -----------------  -----------------  -----------------
       1       -0.000005844866     0.000014874780    -0.000009108223
       2        0.000028262761     0.000009327641     0.000035079999
       3        0.000985081563    -0.002209378165    -0.000739626669
       4       -0.000025622751    -0.000005545116    -0.000039536655
       5        0.000072347103     0.001907409040    -0.000788108291
       6       -0.000874832471     0.001420612967     0.000810191144
       7       -0.000007823943    -0.000014431927    -0.000007750763
       8       -0.000204421472    -0.001128194815     0.000708803401
       9        0.000003094501     0.000015845540     0.000015166179
      10        0.000007238693    -0.000005662262     0.000001049288
      11        0.000004696241    -0.000007531900    -0.000002309477
      12       -0.000002355557     0.000002869507     0.000002402612
      13        0.000003675780    -0.000003511403    -0.000003219017
      14       -0.000007622320     0.000003989874     0.000006193970
      15       -0.000007809739     0.000002171338     0.000002896343
      16        0.000004549749     0.000002174048    -0.000003807477
      17        0.000002342919     0.000000504221    -0.000005482828
      18        0.000002818076     0.000000555862     0.000005186516
      19        0.000002137424    -0.000002602396    -0.000003139886
      20        0.000003467699    -0.000010296489     0.000006422735
      21        0.000005083533     0.000005280979     0.000001043761
      22        0.000011537077     0.000001538679     0.000007653336

  **** Optimization is complete! (in 7 steps) ****
    Final optimized geometry and variables:
    Molecular point group: c1

    Geometry (in Angstrom), charge = 0, multiplicity = 1:

    O           -2.492028657760     1.223446231624    -0.090986235693
    C           -2.120254809975     0.096365461730    -0.036862666136
    C           -0.873993158999    -0.352828040668    -0.773985763351
    C           -2.854543386227    -0.941116983468     0.778872513042
    C            0.382815793469    -0.056359749087     0.055598370432
    H           -0.836755686727     0.201528277477    -1.702999716563
    H           -0.931235216765    -1.411965382895    -0.999682186825
    C            1.642960819971    -0.663863141608    -0.557074670076
    H            0.478644883165     1.017031310393     0.155521963637
    H            0.258708570015    -0.451635023471     1.061208241110
    C            2.921177217425    -0.422653534151     0.247747636732
    H            1.775595303586    -0.276615249596    -1.564579777167
    H            1.495817414677    -1.735216740038    -0.660402266987
    C            3.372860201701     1.034584831980     0.305021700645
    H            3.716919273947    -1.016810154538    -0.190465338828
    H            2.784965422432    -0.798862799713     1.258321309518
    H            3.515308123517     1.437093071971    -0.692636561328
    H            4.315006455902     1.123080725991     0.833485059038
    H            2.653990881510     1.663723027141     0.815540328045
    H           -3.311059813296    -1.662268398396     0.108361082237
    H           -3.620214793023    -0.470754460801     1.376425857741
    H           -2.167431292563    -1.486523603645     1.415913940080

  Mulliken Charges: (a.u.)
   Center  Symbol    Alpha    Beta     Spin     Total
       1     O     4.17783  4.17783  0.00000 -0.35565
       2     C     2.85880  2.85880  0.00000  0.28240
       3     C     3.09769  3.09769  0.00000 -0.19537
       4     C     3.15519  3.15519  0.00000 -0.31038
       5     C     3.10351  3.10351  0.00000 -0.20702
       6     H     0.43866  0.43866  0.00000  0.12268
       7     H     0.44861  0.44861  0.00000  0.10278
       8     C     3.09742  3.09742  0.00000 -0.19483
       9     H     0.43817  0.43817  0.00000  0.12365
      10     H     0.45216  0.45216  0.00000  0.09568
      11     C     3.09079  3.09079  0.00000 -0.18158
      12     H     0.45123  0.45123  0.00000  0.09753
      13     H     0.44863  0.44863  0.00000  0.10275
      14     C     3.15157  3.15157  0.00000 -0.30313
      15     H     0.44760  0.44760  0.00000  0.10479
      16     H     0.45460  0.45460  0.00000  0.09080
      17     H     0.45401  0.45401  0.00000  0.09198
      18     H     0.44614  0.44614  0.00000  0.10772
      19     H     0.45231  0.45231  0.00000  0.09538
      20     H     0.44826  0.44826  0.00000  0.10348
      21     H     0.43606  0.43606  0.00000  0.12788
      22     H     0.45077  0.45077  0.00000  0.09847

   Total alpha = 32.00000, Total beta = 32.00000, Total charge = -0.00000

*** Psi4 exiting successfully. Buy a developer a beer!
