                              Psi4 1.0.54 Driver

  ==> Input File <==

--------------------------------------------------------------------------
set {
	reference rhf
	basis cc-pvtz
}

set_num_threads( 4 )
memory 2 gb

molecule MOL {
0 1

O	 -2.361071	 -0.683417	 -0.852249
C	 -1.922978	 0.063265	 -0.045005
C	 -2.745436	 1.014759	 0.777598
O	 -0.637375	 0.157174	 0.243149
H	 -2.419710	 2.030327	 0.592548
H	 -3.786742	 0.906723	 0.521382
H	 -2.596539	 0.808476	 1.829666
C	 0.162530	 -1.009518	 0.097799
C	 1.587210	 -0.664190	 0.477086
H	 0.096803	 -1.356267	 -0.924704
H	 -0.233803	 -1.785900	 0.736810
C	 2.256770	 0.342732	 -0.454344
H	 2.154716	 -1.590834	 0.479041
H	 1.598751	 -0.289614	 1.496104
C	 3.698146	 0.643205	 -0.057145
H	 2.235038	 -0.042575	 -1.470299
H	 1.683491	 1.262594	 -0.461300
H	 4.150202	 1.356548	 -0.736242
H	 4.305463	 -0.255904	 -0.069842
H	 3.749130	 1.061068	 0.942759

	symmetry c1
}
set optking {
	frozen_dihedral = ("
		1 2 4 8
	")
}

ee,wfn = optimize('scf', return_wfn=True)
oeprop( wfn, 'DIPOLE', 'QUADRUPOLE', 'MULLIKEN_CHARGES')
f=open( 'psi4out.xyz', 'w' )
f.write( "20  " )
f.write( str(ee) + "\n" )
f.write( MOL.save_string_xyz() )
f.close()
--------------------------------------------------------------------------

    Molecular point group: c1
  Charge       = 0
  Multiplicity = 1
  Basis Set: CC-PVTZ
  Basis Set:
  @DF-RHF Final Energy:  -384.08267709101182
    Total Energy =                       -384.0826770910122150
    Molecular point group: c1
  Basis Set: CC-PVTZ
  Basis Set:
  Basis Set: CC-PVTZ
  Basis Set:
  @DF-RHF Final Energy:  -384.02345939664320
    Total Energy =                       -384.0234593966429770
  Basis Set: CC-PVTZ
  Basis Set:
  Basis Set: CC-PVTZ
  Basis Set:
  @DF-RHF Final Energy:  -384.07811781267895
    Total Energy =                       -384.0781178126791247
  Basis Set: CC-PVTZ
  Basis Set:
  Basis Set: CC-PVTZ
  Basis Set:
  @DF-RHF Final Energy:  -384.08291653197301
    Total Energy =                       -384.0829165319729555
  Basis Set: CC-PVTZ
  Basis Set:
  @DF-RHF Final Energy:  -384.08306495600061
    Total Energy =                       -384.0830649560007259
  @DF-RHF Final Energy:  -384.08314734028289
    Total Energy =                       -384.0831473402829488
  @DF-RHF Final Energy:  -384.08315617246700
    Total Energy =                       -384.0831561724666017
  @DF-RHF Final Energy:  -384.08315950030328
    Total Energy =                       -384.0831595003030543
  Basis Set: CC-PVTZ
  Basis Set:
  @DF-RHF Final Energy:  -384.08291510254861
    Total Energy =                       -384.0829151025488954
  Basis Set: CC-PVTZ
  Basis Set:
  Basis Set: CC-PVTZ
  Basis Set:
  @DF-RHF Final Energy:  -384.08315892687750
    Total Energy =                       -384.0831589268776725
  Basis Set: CC-PVTZ
  Basis Set:
  Basis Set: CC-PVTZ
  Basis Set:
  @DF-RHF Final Energy:  -384.08316131081153
    Total Energy =                       -384.0831613108116471
  Basis Set: CC-PVTZ
  Basis Set:
  Charge       = 0
  Multiplicity = 1
  Basis Set: CC-PVTZ
  Basis Set:

    Orbital Energies (a.u.)
    -----------------------

    Doubly Occupied:

       1A    -20.589880     2A    -20.534991     3A    -11.367415
       4A    -11.282123     5A    -11.232029     6A    -11.223956
       7A    -11.218182     8A    -11.211207     9A     -1.467972
      10A     -1.365860    11A     -1.086755    12A     -1.028026
      13A     -0.983160    14A     -0.881035    15A     -0.811845
      16A     -0.776145    17A     -0.694429    18A     -0.684045
      19A     -0.669246    20A     -0.631647    21A     -0.604165
      22A     -0.593852    23A     -0.574498    24A     -0.548481
      25A     -0.544947    26A     -0.539585    27A     -0.509402
      28A     -0.486026    29A     -0.475229    30A     -0.472912
      31A     -0.451606    32A     -0.440374

  @DF-RHF Final Energy:  -384.08316218315201

   => Energetics <=

    Nuclear Repulsion Energy =            385.0450585188349351
    One-Electron Energy =               -1286.2943886867021774
    Two-Electron Energy =                 517.1661679847154574
    DFT Exchange-Correlation Energy =       0.0000000000000000
    Empirical Dispersion Energy =           0.0000000000000000
    PCM Polarization Energy =               0.0000000000000000
    EFP Energy =                            0.0000000000000000
    Total Energy =                       -384.0831621831517850
    Molecular point group: c1
  Basis Set: CC-PVTZ
  Basis Set:

  -Total Gradient:
     Atom            X                  Y                   Z
    ------   -----------------  -----------------  -----------------
       1        0.000482443144     0.003153008657    -0.007740366011
       2       -0.001378378415    -0.004304641295     0.014685890086
       3        0.000291011544     0.000175351053    -0.000023593026
       4        0.001741723111     0.000221018688    -0.013210311597
       5       -0.000139742952    -0.000055650224    -0.000114618330
       6        0.000049106069    -0.000020030687     0.000069684251
       7       -0.000085492832    -0.000083669235     0.000008838627
       8       -0.001003665805     0.000884159287     0.006319809947
       9        0.000020286539     0.000030806203    -0.000008928506
      10       -0.000002818254     0.000025947427     0.000029124559
      11       -0.000011196828     0.000007084674    -0.000019820243
      12       -0.000009685742    -0.000029147643     0.000018820121
      13        0.000012891064     0.000016034895    -0.000016616601
      14        0.000002908115    -0.000022233735    -0.000035550573
      15        0.000029976357     0.000014739596    -0.000000192358
      16        0.000000094298     0.000019232133     0.000033667350
      17       -0.000008047133    -0.000018984244     0.000014952879
      18        0.000005540969    -0.000003809949     0.000014509445
      19        0.000007557887     0.000011620230    -0.000004440696
      20       -0.000004511135    -0.000020835832    -0.000020859322

  **** Optimization is complete! (in 12 steps) ****
    Final optimized geometry and variables:
    Molecular point group: c1

    Geometry (in Angstrom), charge = 0, multiplicity = 1:

    O           -2.379410308564    -1.003790759719    -0.508737732290
    C           -1.932296453225     0.000934717144    -0.074940904036
    C           -2.741796190300     1.219550746371     0.264995404755
    O           -0.633582154229     0.210391399688     0.096074444789
    H           -2.354003322774     2.075122878130    -0.272115548810
    H           -3.775501988995     1.053669157924     0.008704793705
    H           -2.651297093767     1.427416031611     1.324003355018
    C            0.188811226316    -0.916193554429     0.377807957470
    C            1.595587031478    -0.428537346273     0.652237943734
    H            0.164166536895    -1.597509444815    -0.461096043703
    H           -0.217096441642    -1.430988993095     1.238987501635
    C            2.277841798286     0.212592633162    -0.553040763644
    H            2.175814484147    -1.284511086945     0.986071814562
    H            1.569863446737     0.273922354378     1.479557842349
    C            3.697087784459     0.678287674496    -0.246124379381
    H            2.300658619374    -0.501998432061    -1.371156876896
    H            1.685949545911     1.053481192717    -0.895139656614
    H            4.158407792817     1.126251762350    -1.118345094043
    H            4.323164494994    -0.149429217520     0.070534879252
    H            3.702883845846     1.418207331112     0.547254853930

  Mulliken Charges: (a.u.)
   Center  Symbol    Alpha    Beta     Spin     Total
       1     O     4.19171  4.19171  0.00000 -0.38342
       2     C     2.80822  2.80822  0.00000  0.38357
       3     C     3.13791  3.13791  0.00000 -0.27582
       4     O     4.15844  4.15844  0.00000 -0.31688
       5     H     0.44468  0.44468  0.00000  0.11065
       6     H     0.43822  0.43822  0.00000  0.12356
       7     H     0.44844  0.44844  0.00000  0.10311
       8     C     2.99177  2.99177  0.00000  0.01647
       9     C     3.08446  3.08446  0.00000 -0.16891
      10     H     0.44622  0.44622  0.00000  0.10756
      11     H     0.45108  0.45108  0.00000  0.09785
      12     C     3.08583  3.08583  0.00000 -0.17167
      13     H     0.45233  0.45233  0.00000  0.09534
      14     H     0.45267  0.45267  0.00000  0.09466
      15     C     3.15020  3.15020  0.00000 -0.30040
      16     H     0.45406  0.45406  0.00000  0.09188
      17     H     0.44645  0.44645  0.00000  0.10711
      18     H     0.44709  0.44709  0.00000  0.10582
      19     H     0.45562  0.45562  0.00000  0.08875
      20     H     0.45462  0.45462  0.00000  0.09076

   Total alpha = 32.00000, Total beta = 32.00000, Total charge = -0.00000

*** Psi4 exiting successfully. Buy a developer a beer!
