                              Psi4 1.0.54 Driver

  ==> Input File <==

--------------------------------------------------------------------------
set {
	reference rhf
	basis cc-pvtz
}

set_num_threads( 4 )
memory 2 gb

molecule MOL {
0 1

H	 -3.436473	 1.252944	 -1.023892
O	 -3.458596	 0.315260	 -0.960865
C	 -3.176635	 -0.080824	 0.355601
C	 -1.763371	 0.265266	 0.799691
H	 -3.321825	 -1.153438	 0.379502
H	 -3.895468	 0.357385	 1.043382
C	 -0.673390	 -0.426948	 -0.013392
H	 -1.631049	 1.344913	 0.747560
H	 -1.664587	 -0.001624	 1.849167
C	 0.737842	 -0.043159	 0.423759
H	 -0.806103	 -0.190518	 -1.063345
H	 -0.797221	 -1.503753	 0.074146
C	 1.824000	 -0.743224	 -0.390623
H	 0.850588	 1.033777	 0.343840
H	 0.868587	 -0.286314	 1.476203
C	 2.727374	 -1.680597	 0.412555
H	 2.437117	 0.004779	 -0.888044
H	 1.348596	 -1.317646	 -1.180972
C	 3.614384	 -0.985045	 1.442392
H	 3.361653	 -2.223469	 -0.281531
H	 2.115603	 -2.428270	 0.910694
H	 4.233865	 -0.227021	 0.973649
H	 4.274178	 -1.697135	 1.924928
H	 3.033217	 -0.502957	 2.219207

	symmetry c1
}
set optking {
	frozen_dihedral = ("
		17 13 10 7
	")
}

ee,wfn = optimize('scf', return_wfn=True)
oeprop( wfn, 'DIPOLE', 'QUADRUPOLE', 'MULLIKEN_CHARGES')
f=open( 'psi4out.xyz', 'w' )
f.write( "24  " )
f.write( str(ee) + "\n" )
f.write( MOL.save_string_xyz() )
f.close()
--------------------------------------------------------------------------

    Molecular point group: c1
  Charge       = 0
  Multiplicity = 1
  Basis Set: CC-PVTZ
  Basis Set:
  @DF-RHF Final Energy:  -349.37496329254031
    Total Energy =                       -349.3749632925405990
    Molecular point group: c1
  Basis Set: CC-PVTZ
  Basis Set:
  Basis Set: CC-PVTZ
  Basis Set:
  @DF-RHF Final Energy:  -349.37518050922097
    Total Energy =                       -349.3751805092211953
  Basis Set: CC-PVTZ
  Basis Set:
  Basis Set: CC-PVTZ
  Basis Set:
  @DF-RHF Final Energy:  -349.37537043049554
    Total Energy =                       -349.3753704304954795
  Basis Set: CC-PVTZ
  Basis Set:
  Basis Set: CC-PVTZ
  Basis Set:
  @DF-RHF Final Energy:  -349.37537910440523
    Total Energy =                       -349.3753791044051695
  Basis Set: CC-PVTZ
  Basis Set:
  Basis Set: CC-PVTZ
  Basis Set:
  @DF-RHF Final Energy:  -349.37538763549418
    Total Energy =                       -349.3753876354938939
  Basis Set: CC-PVTZ
  Basis Set:
  Basis Set: CC-PVTZ
  Basis Set:
  @DF-RHF Final Energy:  -349.37538917943141
    Total Energy =                       -349.3753891794312949
  Basis Set: CC-PVTZ
  Basis Set:
  Charge       = 0
  Multiplicity = 1
  Basis Set: CC-PVTZ
  Basis Set:

    Orbital Energies (a.u.)
    -----------------------

    Doubly Occupied:

       1A    -20.546331     2A    -11.265651     3A    -11.215063
       4A    -11.212327     5A    -11.210329     6A    -11.209489
       7A    -11.209077     8A    -11.205221     9A     -1.364208
      10A     -1.088576    11A     -1.049216    12A     -0.985420
      13A     -0.915378    14A     -0.851604    15A     -0.804376
      16A     -0.775063    17A     -0.682753    18A     -0.651566
      19A     -0.627128    20A     -0.618295    21A     -0.601299
      22A     -0.586451    23A     -0.554313    24A     -0.545264
      25A     -0.518258    26A     -0.505530    27A     -0.500212
      28A     -0.476979    29A     -0.468478    30A     -0.460727
      31A     -0.452421    32A     -0.448310    33A     -0.421568

  @DF-RHF Final Energy:  -349.37538947962372

   => Energetics <=

    Nuclear Repulsion Energy =            385.4161055122200992
    One-Electron Energy =               -1237.5292211768132802
    Two-Electron Energy =                 502.7377261849694605
    DFT Exchange-Correlation Energy =       0.0000000000000000
    Empirical Dispersion Energy =           0.0000000000000000
    PCM Polarization Energy =               0.0000000000000000
    EFP Energy =                            0.0000000000000000
    Total Energy =                       -349.3753894796236636
    Molecular point group: c1
  Basis Set: CC-PVTZ
  Basis Set:

  -Total Gradient:
     Atom            X                  Y                   Z
    ------   -----------------  -----------------  -----------------
       1       -0.000000276051    -0.000001230835     0.000002154253
       2        0.000003036809    -0.000002852076    -0.000000425853
       3       -0.000001035253     0.000003343966     0.000002212836
       4       -0.000000102646     0.000001009625    -0.000000902580
       5       -0.000000446239     0.000000712096    -0.000002742413
       6        0.000000742550    -0.000000211370     0.000000480999
       7       -0.000004052582    -0.000064164682     0.000053495538
       8        0.000000923189    -0.000000371364     0.000000013654
       9       -0.000001562457    -0.000000560093     0.000000051990
      10        0.000016519692     0.000097342068    -0.000049331278
      11        0.000003120925    -0.000000200510     0.000000864522
      12       -0.000001672800    -0.000001495182     0.000001071331
      13       -0.000074464687    -0.000021103602    -0.000090598379
      14        0.000001890612     0.000000239129     0.000001177205
      15       -0.000002704752    -0.000001575134    -0.000003127240
      16       -0.000015743174     0.000001996779     0.000013498528
      17        0.000064396037    -0.000005090325     0.000080412614
      18       -0.000006766288    -0.000000714397     0.000006846258
      19        0.000003186741    -0.000006674280    -0.000004882886
      20        0.000012511776     0.000013653569     0.000002458598
      21        0.000005110277    -0.000012478686    -0.000009982151
      22        0.000004261755    -0.000001455585     0.000000770227
      23       -0.000004646912     0.000000346141     0.000005043722
      24       -0.000002226515     0.000001534751    -0.000008559495

  **** Optimization is complete! (in 7 steps) ****
    Final optimized geometry and variables:
    Molecular point group: c1

    Geometry (in Angstrom), charge = 0, multiplicity = 1:

    H           -3.350525311212     1.673412587377    -1.295859932905
    O           -3.367677692928     0.733987217805    -1.266357501449
    C           -3.116507719616     0.293653416444     0.042145736955
    C           -1.717557520989     0.633172665336     0.534387540535
    H           -3.254187746242    -0.780077270138     0.024224670873
    H           -3.856059081921     0.702266505903     0.726163807420
    C           -0.602088311969    -0.019633477708    -0.275799804199
    H           -1.592527382482     1.714971392835     0.525839458279
    H           -1.642834878746     0.328209749050     1.575493524315
    C            0.796038969061     0.356480155440     0.211007278456
    H           -0.709190220139     0.254277546872    -1.319467808774
    H           -0.717410905760    -1.100455768615    -0.231816927518
    C            1.924294692545    -0.324514067451    -0.592612856882
    H            0.904599722656     1.435580691598     0.166169260159
    H            0.881324322647     0.094338689380     1.261197832636
    C            2.808690968536    -1.267954776474     0.225452657185
    H            2.555560839698     0.427385049045    -1.056252425911
    H            1.485594620791    -0.887668104518    -1.409684709610
    C            3.710974480153    -0.557584488506     1.230987574374
    H            3.430344069004    -1.842975518543    -0.454134463006
    H            2.180853891842    -1.987674590886     0.744828954804
    H            4.387254143503     0.125358631257     0.727087935167
    H            4.312691693824    -1.269463585582     1.784569754979
    H            3.140263677757     0.017585837308     1.950999565979

  Mulliken Charges: (a.u.)
   Center  Symbol    Alpha    Beta     Spin     Total
       1     H     0.39524  0.39524  0.00000  0.20951
       2     O     4.20375  4.20375  0.00000 -0.40750
       3     C     2.97769  2.97769  0.00000  0.04462
       4     C     3.10316  3.10316  0.00000 -0.20633
       5     H     0.45890  0.45890  0.00000  0.08220
       6     H     0.46027  0.46027  0.00000  0.07946
       7     C     3.08583  3.08583  0.00000 -0.17166
       8     H     0.45904  0.45904  0.00000  0.08191
       9     H     0.45317  0.45317  0.00000  0.09366
      10     C     3.09969  3.09969  0.00000 -0.19937
      11     H     0.44539  0.44539  0.00000  0.10922
      12     H     0.45485  0.45485  0.00000  0.09030
      13     C     3.10203  3.10203  0.00000 -0.20406
      14     H     0.44849  0.44849  0.00000  0.10303
      15     H     0.45473  0.45473  0.00000  0.09053
      16     C     3.08829  3.08829  0.00000 -0.17659
      17     H     0.44899  0.44899  0.00000  0.10203
      18     H     0.44830  0.44830  0.00000  0.10339
      19     C     3.15016  3.15016  0.00000 -0.30033
      20     H     0.44915  0.44915  0.00000  0.10170
      21     H     0.45537  0.45537  0.00000  0.08926
      22     H     0.45483  0.45483  0.00000  0.09035
      23     H     0.44797  0.44797  0.00000  0.10407
      24     H     0.45470  0.45470  0.00000  0.09059

   Total alpha = 33.00000, Total beta = 33.00000, Total charge = -0.00000

*** Psi4 exiting successfully. Buy a developer a beer!
