  ==> Input File <==

--------------------------------------------------------------------------
set {
	reference rhf
	basis 6-31G*
}

set_num_threads( 4 )
memory 2 gb

molecule MOL {
0 1

H	 -1.568888	 0.609285	 2.933374
C	 -2.160176	 -0.015864	 2.252794
C	 -2.473526	 0.613779	 0.919388
O	 -2.505356	 -1.102282	 2.587902
C	 -1.220012	 1.144545	 0.209990
H	 -2.997045	 -0.115006	 0.311514
H	 -3.155344	 1.441910	 1.109065
C	 -0.252658	 0.041456	 -0.226725
H	 -1.532576	 1.715253	 -0.659424
H	 -0.705033	 1.846829	 0.863710
C	 1.180775	 0.282413	 0.250794
H	 -0.266029	 -0.034465	 -1.312038
H	 -0.597733	 -0.921000	 0.146291
C	 2.148627	 -0.814315	 -0.201312
H	 1.516199	 1.249228	 -0.115937
H	 1.192670	 0.346017	 1.338083
C	 3.580890	 -0.659131	 0.322722
H	 2.166869	 -0.852443	 -1.289387
H	 1.762857	 -1.776509	 0.128956
C	 4.324889	 0.564933	 -0.213704
H	 4.142010	 -1.551473	 0.056605
H	 3.564836	 -0.624694	 1.410140
H	 4.342616	 0.565491	 -1.300421
H	 3.866655	 1.493402	 0.110242
H	 5.353900	 0.572371	 0.132816

	symmetry c1
}
set optking {
	frozen_dihedral = ("
		3 5 8 12
	")
}

ee = optimize('scf')
oeprop('DIPOLE', 'QUADRUPOLE', 'MULLIKEN_CHARGES')
f=open( 'psi4out.xyz', 'w' )
f.write( "25  " )
f.write( str(ee) + "\n" )
f.write( MOL.save_string_xyz() )
f.close()
--------------------------------------------------------------------------

    Molecular point group: c1
  Charge       = 0
  Multiplicity = 1
  Basis Set: 6-31G*
  Basis Set:
  @DF-RHF Final Energy:  -387.11671083878969
    Total Energy =                       -387.1167108387900271
    Molecular point group: c1
  Basis Set: 6-31G*
  Basis Set:
  Basis Set: 6-31G*
  Basis Set:
  @DF-RHF Final Energy:  -387.11685660707849
    Total Energy =                       -387.1168566070787165
  Basis Set: 6-31G*
  Basis Set:
  Basis Set: 6-31G*
  Basis Set:
  @DF-RHF Final Energy:  -387.11688540906681
    Total Energy =                       -387.1168854090662990
  Basis Set: 6-31G*
  Basis Set:
  Basis Set: 6-31G*
  Basis Set:
  @DF-RHF Final Energy:  -387.11701419901448
    Total Energy =                       -387.1170141990146476
  Basis Set: 6-31G*
  Basis Set:
  @DF-RHF Final Energy:  -387.11705589945490
    Total Energy =                       -387.1170558994547264
  @DF-RHF Final Energy:  -387.11706656635351
    Total Energy =                       -387.1170665663537420
  @DF-RHF Final Energy:  -387.11707444691120
    Total Energy =                       -387.1170744469108058
  @DF-RHF Final Energy:  -387.11709141221871
    Total Energy =                       -387.1170914122189970
  Basis Set: 6-31G*
  Basis Set:
  @DF-RHF Final Energy:  -387.11709487647289
    Total Energy =                       -387.1170948764727200
  Basis Set: 6-31G*
  Basis Set:
  Basis Set: 6-31G*
  Basis Set:
  @DF-RHF Final Energy:  -387.11709670988586
    Total Energy =                       -387.1170967098862548
  Basis Set: 6-31G*
  Basis Set:
  Basis Set: 6-31G*
  Basis Set:
  @DF-RHF Final Energy:  -387.11709954262381
    Total Energy =                       -387.1170995426238051
  Basis Set: 6-31G*
  Basis Set:
  Charge       = 0
  Multiplicity = 1
  Basis Set: 6-31G*
  Basis Set:

    Orbital Energies (a.u.)
    -----------------------

    Doubly Occupied:

       1A    -20.563385     2A    -11.326610     3A    -11.235279
       4A    -11.234689     5A    -11.221578     6A    -11.218798
       7A    -11.216499     8A    -11.215156     9A    -11.209629
      10A     -1.402867    11A     -1.101158    12A     -1.068035
      13A     -1.011774    14A     -0.940915    15A     -0.875877
      16A     -0.817870    17A     -0.789097    18A     -0.779365
      19A     -0.667354    20A     -0.656197    21A     -0.638609
      22A     -0.618134    23A     -0.610336    24A     -0.580895
      25A     -0.572867    26A     -0.558666    27A     -0.533489
      28A     -0.519346    29A     -0.510116    30A     -0.499642
      31A     -0.485569    32A     -0.475716    33A     -0.461777
      34A     -0.457348    35A     -0.440238    36A     -0.409879

  @DF-RHF Final Energy:  -387.11709986640290

   => Energetics <=

    Nuclear Repulsion Energy =            445.1702323869217253
    One-Electron Energy =               -1406.7251427613632586
    Two-Electron Energy =                 574.4378105080389787
    DFT Exchange-Correlation Energy =       0.0000000000000000
    Empirical Dispersion Energy =           0.0000000000000000
    PCM Polarization Energy =               0.0000000000000000
    EFP Energy =                            0.0000000000000000
    Total Energy =                       -387.1170998664025547
    Molecular point group: c1
  Basis Set: 6-31G*
  Basis Set:

  -Total Gradient:
     Atom            X                  Y                   Z
    ------   -----------------  -----------------  -----------------
       1        0.000000466012     0.000001253164     0.000006192285
       2        0.000010254228     0.000000131967     0.000011289966
       3        0.000577295267     0.000073521285     0.001110016488
       4       -0.000001429451     0.000013910269    -0.000008693057
       5       -0.000501462318     0.000157668279    -0.001586762347
       6       -0.000007734023     0.000005376676    -0.000010538757
       7        0.000002487529    -0.000007148255     0.000005750539
       8       -0.001364270042    -0.001416126499     0.000572029463
       9       -0.000003238428    -0.000010399140    -0.000000214819
      10       -0.000000725387     0.000016383044    -0.000002689112
      11       -0.000012735773    -0.000003214224     0.000003726160
      12        0.001299139458     0.001165762838    -0.000093262697
      13       -0.000000080185     0.000001649063     0.000000211456
      14        0.000002852053     0.000002373834    -0.000012158876
      15       -0.000005918134     0.000004520359     0.000008729960
      16        0.000000761807    -0.000010360672    -0.000001259036
      17       -0.000001049261     0.000005394560    -0.000001429159
      18        0.000000354811    -0.000000132135    -0.000000751850
      19        0.000003084134     0.000001476738    -0.000000498374
      20        0.000002319893    -0.000000999783    -0.000000202970
      21       -0.000001330504    -0.000001913430     0.000001271295
      22       -0.000001561147     0.000002882365     0.000000110725
      23       -0.000000889970     0.000000547482    -0.000000831666
      24        0.000002325549    -0.000001635492     0.000000557220
      25        0.000001083887    -0.000000922291    -0.000000592841

  **** Optimization is complete! (in 12 steps) ****
    Final optimized geometry and variables:
    Molecular point group: c1

    Geometry (in Angstrom), charge = 0, multiplicity = 1:

    H           -2.035826123285     0.691273197864     2.324733827912
    C           -2.490639405175     0.008647854865     1.596414651645
    C           -2.811150732879     0.624327383240     0.259071351096
    O           -2.687119075730    -1.127502897168     1.885298303094
    C           -1.546984971926     1.146762688952    -0.443686620266
    H           -3.322048419267    -0.115284368995    -0.346418995896
    H           -3.495075887705     1.453483115166     0.432424289512
    C           -0.566392539352     0.031425865353    -0.872357461851
    H           -1.851459306431     1.730479866231    -1.305467003329
    H           -1.044353958641     1.845169842114     0.222379646332
    C            0.872274832957     0.275984948336    -0.406514702084
    H           -0.567359056620    -0.051872924580    -1.955720932440
    H           -0.902876840273    -0.929073888287    -0.492370637028
    C            1.838367244806    -0.817132155551    -0.868844878128
    H            1.201317768370     1.245665754140    -0.772024951087
    H            0.892738072779     0.335838864286     0.681096294921
    C            3.272080976742    -0.666873375161    -0.347344978519
    H            1.854484013933    -0.846064935002    -1.957357138109
    H            1.452481622523    -1.781460988062    -0.545400862345
    C            4.014409578069     0.563041319844    -0.873250785597
    H            3.832665037397    -1.556523163137    -0.623198436135
    H            3.258143856087    -0.643364108211     0.740366970716
    H            4.033249636668     0.572469811907    -1.959842398921
    H            3.554400438148     1.488325508152    -0.542307408491
    H            5.043034149669     0.569668192353    -0.526074309605

  Mulliken Charges: (a.u.)
   Center  Symbol    Alpha    Beta     Spin     Total
       1     H     0.43185  0.43185  0.00000  0.13629
       2     C     2.83134  2.83134  0.00000  0.33733
       3     C     3.20731  3.20731  0.00000 -0.41462
       4     O     4.23771  4.23771  0.00000 -0.47542
       5     C     3.16880  3.16880  0.00000 -0.33760
       6     H     0.39993  0.39993  0.00000  0.20013
       7     H     0.40991  0.40991  0.00000  0.18019
       8     C     3.16207  3.16207  0.00000 -0.32413
       9     H     0.40999  0.40999  0.00000  0.18003
      10     H     0.41731  0.41731  0.00000  0.16539
      11     C     3.15605  3.15605  0.00000 -0.31210
      12     H     0.41718  0.41718  0.00000  0.16563
      13     H     0.40972  0.40972  0.00000  0.18056
      14     C     3.15393  3.15393  0.00000 -0.30786
      15     H     0.42096  0.42096  0.00000  0.15808
      16     H     0.42434  0.42434  0.00000  0.15132
      17     C     3.15270  3.15270  0.00000 -0.30540
      18     H     0.42411  0.42411  0.00000  0.15178
      19     H     0.41894  0.41894  0.00000  0.16212
      20     C     3.24123  3.24123  0.00000 -0.48246
      21     H     0.42010  0.42010  0.00000  0.15981
      22     H     0.42256  0.42256  0.00000  0.15489
      23     H     0.42230  0.42230  0.00000  0.15540
      24     H     0.42092  0.42092  0.00000  0.15817
      25     H     0.41876  0.41876  0.00000  0.16248

   Total alpha = 36.00000, Total beta = 36.00000, Total charge =  0.00000
