  ==> Input File <==

--------------------------------------------------------------------------
set {
	reference rhf
	basis 6-31G*
}

set_num_threads( 4 )
memory 2 gb

molecule MOL {
0 1

O	 -2.416148	 1.147053	 -0.068792
C	 -2.140670	 -0.010390	 0.025404
C	 -0.903672	 -0.573800	 -0.651878
C	 -2.983324	 -0.962975	 0.843873
C	 0.360854	 -0.251622	 0.160721
H	 -0.829309	 -0.117542	 -1.633001
H	 -0.996219	 -1.647993	 -0.784435
C	 1.631333	 -0.777471	 -0.511575
H	 0.414551	 0.823384	 0.290581
H	 0.276884	 -0.684751	 1.156258
C	 2.915987	 -0.544314	 0.291766
H	 1.733226	 -0.318216	 -1.493119
H	 1.519978	 -1.845852	 -0.684811
C	 3.373361	 0.914346	 0.347591
H	 3.708709	 -1.142521	 -0.150311
H	 2.780642	 -0.921148	 1.303579
H	 3.506512	 1.320010	 -0.651625
H	 4.322697	 0.999599	 0.867103
H	 2.660624	 1.545032	 0.868198
H	 -3.450764	 -1.692859	 0.188103
H	 -3.749190	 -0.416120	 1.376022
H	 -2.366530	 -1.514019	 1.547946

	symmetry c1
}
set optking {
	frozen_dihedral = ("
		12 8 11 15
	")
}

ee = optimize('scf')
oeprop('DIPOLE', 'QUADRUPOLE', 'MULLIKEN_CHARGES')
f=open( 'psi4out.xyz', 'w' )
f.write( "22  " )
f.write( str(ee) + "\n" )
f.write( MOL.save_string_xyz() )
f.close()
--------------------------------------------------------------------------

    Molecular point group: c1
  Charge       = 0
  Multiplicity = 1
  Basis Set: 6-31G*
  Basis Set:
  @DF-RHF Final Energy:  -348.09821509737310
    Total Energy =                       -348.0982150973728722
    Molecular point group: c1
  Basis Set: 6-31G*
  Basis Set:
  Basis Set: 6-31G*
  Basis Set:
  @DF-RHF Final Energy:  -348.09802133847086
    Total Energy =                       -348.0980213384705735
  Basis Set: 6-31G*
  Basis Set:
  Basis Set: 6-31G*
  Basis Set:
  @DF-RHF Final Energy:  -348.09798464458640
    Total Energy =                       -348.0979846445861767
  Basis Set: 6-31G*
  Basis Set:
  Basis Set: 6-31G*
  Basis Set:
  @DF-RHF Final Energy:  -348.09823314054762
    Total Energy =                       -348.0982331405478476
  Basis Set: 6-31G*
  Basis Set:
  Basis Set: 6-31G*
  Basis Set:
  @DF-RHF Final Energy:  -348.09789475646397
    Total Energy =                       -348.0978947564643704
  Basis Set: 6-31G*
  Basis Set:
  Basis Set: 6-31G*
  Basis Set:
  @DF-RHF Final Energy:  -348.09822934273484
    Total Energy =                       -348.0982293427341574
  Basis Set: 6-31G*
  Basis Set:
  Basis Set: 6-31G*
  Basis Set:
  @DF-RHF Final Energy:  -348.09825210145681
    Total Energy =                       -348.0982521014569215
  Basis Set: 6-31G*
  Basis Set:
  Charge       = 0
  Multiplicity = 1
  Basis Set: 6-31G*
  Basis Set:

    Orbital Energies (a.u.)
    -----------------------

    Doubly Occupied:

       1A    -20.547359     2A    -11.324501     3A    -11.229582
       4A    -11.228999     5A    -11.228219     6A    -11.222401
       7A    -11.220589     8A    -11.211153     9A     -1.393126
      10A     -1.095606    11A     -1.044266    12A     -0.999545
      13A     -0.937752    14A     -0.856642    15A     -0.787642
      16A     -0.732882    17A     -0.662568    18A     -0.643784
      19A     -0.625352    20A     -0.621010    21A     -0.597108
      22A     -0.582403    23A     -0.563040    24A     -0.542112
      25A     -0.534196    26A     -0.517939    27A     -0.498560
      28A     -0.488053    29A     -0.471367    30A     -0.463913
      31A     -0.459652    32A     -0.396200

  @DF-RHF Final Energy:  -348.09825212944503

   => Energetics <=

    Nuclear Repulsion Energy =            372.7387065048573618
    One-Electron Energy =               -1210.2188758431191218
    Two-Electron Energy =                 489.3819172088167306
    DFT Exchange-Correlation Energy =       0.0000000000000000
    Empirical Dispersion Energy =           0.0000000000000000
    PCM Polarization Energy =               0.0000000000000000
    EFP Energy =                            0.0000000000000000
    Total Energy =                       -348.0982521294449725
    Molecular point group: c1
  Basis Set: 6-31G*
  Basis Set:

  -Total Gradient:
     Atom            X                  Y                   Z
    ------   -----------------  -----------------  -----------------
       1       -0.000003559008     0.000004470048    -0.000005231564
       2        0.000010559403     0.000001075313     0.000015216150
       3       -0.000017698066    -0.000002452044    -0.000020779563
       4       -0.000005658678    -0.000002768939    -0.000010773051
       5        0.000003772448    -0.000002366629    -0.000000026351
       6       -0.000009808876    -0.000001822119    -0.000003192356
       7       -0.000002952716     0.000001979788    -0.000003943111
       8        0.000365287852    -0.001075875873    -0.000255847704
       9        0.000012792503    -0.000005552932     0.000003154132
      10        0.000009810993    -0.000001586652    -0.000001877200
      11        0.000180313626     0.001004565671    -0.000587154602
      12       -0.000355202687     0.000749531529     0.000313560474
      13       -0.000006708967    -0.000001737640     0.000003187489
      14        0.000007941101    -0.000006557879     0.000012805367
      15       -0.000191907707    -0.000665928276     0.000542694547
      16        0.000001247934     0.000009772369    -0.000004731470
      17       -0.000008550418    -0.000007607678     0.000001163818
      18        0.000006412586     0.000004139553    -0.000003764917
      19        0.000000941646    -0.000000305036     0.000003731534
      20       -0.000000354277    -0.000002167621     0.000001885010
      21        0.000002027956     0.000000820641    -0.000000921856
      22        0.000001293359     0.000000374403     0.000000845226

  **** Optimization is complete! (in 8 steps) ****
    Final optimized geometry and variables:
    Molecular point group: c1

    Geometry (in Angstrom), charge = 0, multiplicity = 1:

    O           -2.388273574872     1.277188737171    -0.115169457532
    C           -2.118103850674     0.117722267836    -0.031766629251
    C           -0.884998950873    -0.445650059878    -0.716208579561
    C           -2.967799523816    -0.839766355763     0.773817317829
    C            0.381555818822    -0.143047611547     0.100545468821
    H           -0.807600776836     0.022406370923    -1.691518605877
    H           -0.985275249449    -1.517429497370    -0.862373587822
    C            1.648858623858    -0.674432034340    -0.574257306125
    H            0.445618713389     0.930204069735     0.241157264344
    H            0.292545223942    -0.584563291499     1.091821833843
    C            2.935376555449    -0.425245061298     0.222144562900
    H            1.742089130546    -0.220375514195    -1.559092829383
    H            1.537219454117    -1.744268838692    -0.736462970362
    C            3.372756017286     1.039349720767     0.273987956264
    H            3.734076948235    -1.017683105744    -0.216867635507
    H            2.807890832709    -0.801391784506     1.235377240281
    H            3.516629465125     1.438370465521    -0.726252866652
    H            4.312099699506     1.142068530761     0.808307394173
    H            2.642482658316     1.664290830158     0.777188902339
    H           -3.438674468083    -1.558645282066     0.108464851177
    H           -3.731091843714    -0.294675458457     1.311407309957
    H           -2.355514735461    -1.403134291808     1.472009784179

  Mulliken Charges: (a.u.)
   Center  Symbol    Alpha    Beta     Spin     Total
       1     O     4.26245  4.26245  0.00000 -0.52490
       2     C     2.73714  2.73714  0.00000  0.52571
       3     C     3.19960  3.19960  0.00000 -0.39920
       4     C     3.28950  3.28950  0.00000 -0.57901
       5     C     3.16387  3.16387  0.00000 -0.32774
       6     H     0.40116  0.40116  0.00000  0.19768
       7     H     0.41702  0.41702  0.00000  0.16597
       8     C     3.15271  3.15271  0.00000 -0.30541
       9     H     0.40398  0.40398  0.00000  0.19205
      10     H     0.42126  0.42126  0.00000  0.15747
      11     C     3.15384  3.15384  0.00000 -0.30768
      12     H     0.42065  0.42065  0.00000  0.15870
      13     H     0.42169  0.42169  0.00000  0.15661
      14     C     3.24165  3.24165  0.00000 -0.48330
      15     H     0.41945  0.41945  0.00000  0.16110
      16     H     0.42301  0.42301  0.00000  0.15399
      17     H     0.42076  0.42076  0.00000  0.15848
      18     H     0.41824  0.41824  0.00000  0.16352
      19     H     0.41831  0.41831  0.00000  0.16338
      20     H     0.40685  0.40685  0.00000  0.18630
      21     H     0.39710  0.39710  0.00000  0.20580
      22     H     0.40976  0.40976  0.00000  0.18049

   Total alpha = 32.00000, Total beta = 32.00000, Total charge =  0.00000
