                              Psi4 1.0.54 Driver

  ==> Input File <==

--------------------------------------------------------------------------
set {
	reference rhf
	basis cc-pvtz
}

set_num_threads( 4 )
memory 2 gb

molecule MOL {
0 1

H	 3.129010	 -0.768935	 -0.911531
N	 3.091268	 -0.241216	 -0.065538
C	 1.860978	 0.530248	 0.016256
H	 3.889428	 0.358964	 -0.056981
C	 0.644130	 -0.381765	 -0.031064
H	 1.835721	 1.204666	 -0.833114
H	 1.808789	 1.151975	 0.911067
C	 -0.678115	 0.376691	 0.025731
H	 0.693998	 -0.977147	 -0.936845
H	 0.693309	 -1.082142	 0.800523
C	 -1.900706	 -0.535531	 -0.022488
H	 -0.725296	 1.079516	 -0.802982
H	 -0.715474	 0.974884	 0.933278
C	 -3.220513	 0.226854	 0.028039
H	 -1.865036	 -1.134397	 -0.928236
H	 -1.857948	 -1.236381	 0.806820
H	 -3.309098	 0.911849	 -0.808725
H	 -4.066838	 -0.449485	 -0.008086
H	 -3.301685	 0.809374	 0.939860

	symmetry c1
}
set optking {
	frozen_dihedral = ("
		1 2 3 6
	")
}

ee,wfn = optimize('scf', return_wfn=True)
oeprop( wfn, 'DIPOLE', 'QUADRUPOLE', 'MULLIKEN_CHARGES')
f=open( 'psi4out.xyz', 'w' )
f.write( "19  " )
f.write( str(ee) + "\n" )
f.write( MOL.save_string_xyz() )
f.close()
--------------------------------------------------------------------------

    Molecular point group: c1
  Charge       = 0
  Multiplicity = 1
  Basis Set: CC-PVTZ
  Basis Set:
  @DF-RHF Final Energy:  -251.44618248258854
    Total Energy =                       -251.4461824825883696
    Molecular point group: c1
  Basis Set: CC-PVTZ
  Basis Set:
  Basis Set: CC-PVTZ
  Basis Set:
  @DF-RHF Final Energy:  -251.44788733363188
    Total Energy =                       -251.4478873336320248
  Basis Set: CC-PVTZ
  Basis Set:
  Basis Set: CC-PVTZ
  Basis Set:
  @DF-RHF Final Energy:  -251.44813613981543
    Total Energy =                       -251.4481361398152330
  Basis Set: CC-PVTZ
  Basis Set:
  Basis Set: CC-PVTZ
  Basis Set:
  @DF-RHF Final Energy:  -251.44814157967176
    Total Energy =                       -251.4481415796716988
  Basis Set: CC-PVTZ
  Basis Set:
  Charge       = 0
  Multiplicity = 1
  Basis Set: CC-PVTZ
  Basis Set:

    Orbital Energies (a.u.)
    -----------------------

    Doubly Occupied:

       1A    -15.526311     2A    -11.237869     3A    -11.211963
       4A    -11.210567     5A    -11.207886     6A    -11.205511
       7A     -1.178103     8A     -1.074377     9A     -0.999690
      10A     -0.901007    11A     -0.813470    12A     -0.789787
      13A     -0.665472    14A     -0.643896    15A     -0.617777
      16A     -0.590115    17A     -0.565456    18A     -0.549135
      19A     -0.531219    20A     -0.498629    21A     -0.481122
      22A     -0.465229    23A     -0.461588    24A     -0.451004
      25A     -0.383689

  @DF-RHF Final Energy:  -251.44814211346576

   => Energetics <=

    Nuclear Repulsion Energy =            246.0719640769824252
    One-Electron Energy =                -826.5184657262184373
    Two-Electron Energy =                 328.9983595357700210
    DFT Exchange-Correlation Energy =       0.0000000000000000
    Empirical Dispersion Energy =           0.0000000000000000
    PCM Polarization Energy =               0.0000000000000000
    EFP Energy =                            0.0000000000000000
    Total Energy =                       -251.4481421134659627
    Molecular point group: c1
  Basis Set: CC-PVTZ
  Basis Set:

  -Total Gradient:
     Atom            X                  Y                   Z
    ------   -----------------  -----------------  -----------------
       1       -0.000090984464    -0.000141585967     0.000087997663
       2        0.000178478072     0.000175744848    -0.000078569534
       3       -0.000220525453    -0.000185957547    -0.000109704042
       4        0.000016472574     0.000015114344    -0.000010343906
       5        0.000031807550     0.000030107697     0.000002892897
       6        0.000097740310     0.000098037607     0.000104845585
       7       -0.000009372449    -0.000016163729     0.000000492040
       8       -0.000007167712    -0.000004860503     0.000000551786
       9        0.000013157677     0.000020819420     0.000008930026
      10        0.000006997850     0.000013462009    -0.000006076188
      11       -0.000009306891     0.000012638320    -0.000006145027
      12        0.000001198034    -0.000006629236     0.000004367461
      13        0.000004411534    -0.000005778350    -0.000004536805
      14       -0.000010230514    -0.000010086785     0.000007076075
      15        0.000001990301     0.000000516929     0.000000216003
      16       -0.000003421302     0.000005493048    -0.000001418262
      17        0.000003832905    -0.000003424070     0.000000710799
      18       -0.000006079410     0.000002477501     0.000001143673
      19        0.000001001385     0.000000074465    -0.000002430245

  **** Optimization is complete! (in 5 steps) ****
    Final optimized geometry and variables:
    Molecular point group: c1

    Geometry (in Angstrom), charge = 0, multiplicity = 1:

    H            3.096126658436    -0.757855525621    -1.100953937654
    N            3.082462743240    -0.227320609233    -0.254977379198
    C            1.852478493932     0.540902138225    -0.144081948729
    H            3.880856123134     0.371009156927    -0.268968798668
    C            0.642813694876    -0.378632731077    -0.070347875341
    H            1.717825922344     1.247065572024    -0.964534243764
    H            1.910054226781     1.129215721183     0.765654965090
    C           -0.676011154234     0.373424051118     0.077766458891
    H            0.608322932550    -0.991895893755    -0.968785066548
    H            0.778288955784    -1.061130219983     0.762256508307
    C           -1.891252884713    -0.546700523208     0.153121199515
    H           -0.799329587509     1.058815943023    -0.757601212324
    H           -0.639779995892     0.989665491784     0.973202251981
    C           -3.207238267588     0.208796127198     0.304753377931
    H           -1.930748913074    -1.162317627164    -0.741425392805
    H           -1.770702444102    -1.231349085111     0.987970055774
    H           -3.373661016092     0.877535428006    -0.533353308150
    H           -4.048454934474    -0.473018287402     0.355209617146
    H           -3.212621881952     0.807691014186     1.209466702949

  Mulliken Charges: (a.u.)
   Center  Symbol    Alpha    Beta     Spin     Total
       1     H     0.43098  0.43098  0.00000  0.13804
       2     N     3.68924  3.68924  0.00000 -0.37848
       3     C     3.02632  3.02632  0.00000 -0.05264
       4     H     0.43029  0.43029  0.00000  0.13943
       5     C     3.08198  3.08198  0.00000 -0.16397
       6     H     0.46871  0.46871  0.00000  0.06259
       7     H     0.45721  0.45721  0.00000  0.08559
       8     C     3.09316  3.09316  0.00000 -0.18631
       9     H     0.46036  0.46036  0.00000  0.07927
      10     H     0.44885  0.44885  0.00000  0.10229
      11     C     3.08330  3.08330  0.00000 -0.16660
      12     H     0.45669  0.45669  0.00000  0.08661
      13     H     0.45493  0.45493  0.00000  0.09015
      14     C     3.14987  3.14987  0.00000 -0.29974
      15     H     0.45498  0.45498  0.00000  0.09004
      16     H     0.45377  0.45377  0.00000  0.09245
      17     H     0.45565  0.45565  0.00000  0.08871
      18     H     0.44854  0.44854  0.00000  0.10292
      19     H     0.45518  0.45518  0.00000  0.08964

   Total alpha = 25.00000, Total beta = 25.00000, Total charge =  0.00000

*** Psi4 exiting successfully. Buy a developer a beer!
