  ==> Input File <==

--------------------------------------------------------------------------
set {
	reference rhf
	basis 6-31G*
}

set_num_threads( 4 )
memory 2 gb

molecule MOL {
0 1

H	 -2.273092	 1.173159	 0.000295
O	 -1.438904	 1.618192	 0.000114
C	 -0.409536	 0.736003	 0.000030
C	 0.202717	 0.494892	 1.219953
C	 0.023337	 0.095557	 -1.159018
H	 -0.162546	 1.009981	 2.089008
C	 1.259137	 -0.392500	 1.297550
C	 1.087515	 -0.791547	 -1.051501
C	 -0.645904	 0.360092	 -2.489109
H	 1.729856	 -0.575193	 2.247045
C	 1.708486	 -1.042292	 0.159204
H	 1.433859	 -1.294403	 -1.937801
H	 -0.573568	 1.406101	 -2.779931
H	 -0.180033	 -0.221848	 -3.274148
H	 -1.700361	 0.091950	 -2.474355
H	 2.529628	 -1.733756	 0.212145

	symmetry c1
}
set optking {
	frozen_dihedral = ("
		4 3 2 1
	")
}

ee = optimize('scf')
oeprop('DIPOLE', 'QUADRUPOLE', 'MULLIKEN_CHARGES')
f=open( 'psi4out.xyz', 'w' )
f.write( "16  " )
f.write( str(ee) + "\n" )
f.write( MOL.save_string_xyz() )
f.close()
--------------------------------------------------------------------------

    Molecular point group: c1
  Charge       = 0
  Multiplicity = 1
  Basis Set: 6-31G*
  Basis Set:
  @DF-RHF Final Energy:  -344.58995171722938
    Total Energy =                       -344.5899517172293258
    Molecular point group: c1
  Basis Set: 6-31G*
  Basis Set:
  Basis Set: 6-31G*
  Basis Set:
  @DF-RHF Final Energy:  -344.59088408945428
    Total Energy =                       -344.5908840894541072
  Basis Set: 6-31G*
  Basis Set:
  Basis Set: 6-31G*
  Basis Set:
  @DF-RHF Final Energy:  -344.59096105782294
    Total Energy =                       -344.5909610578230513
  Basis Set: 6-31G*
  Basis Set:
  Basis Set: 6-31G*
  Basis Set:
  @DF-RHF Final Energy:  -344.59097500948042
    Total Energy =                       -344.5909750094805304
  Basis Set: 6-31G*
  Basis Set:
  Basis Set: 6-31G*
  Basis Set:
  @DF-RHF Final Energy:  -344.59097862875467
    Total Energy =                       -344.5909786287544421
  Basis Set: 6-31G*
  Basis Set:
  Charge       = 0
  Multiplicity = 1
  Basis Set: 6-31G*
  Basis Set:

    Orbital Energies (a.u.)
    -----------------------

    Doubly Occupied:

       1A    -20.575721     2A    -11.282960     3A    -11.234812
       4A    -11.229137     5A    -11.228504     6A    -11.225403
       7A    -11.224251     8A    -11.220544     9A     -1.389946
      10A     -1.148475    11A     -1.044681    12A     -1.002970
      13A     -0.933178    14A     -0.827047    15A     -0.806387
      16A     -0.724518    17A     -0.667053    18A     -0.652845
      19A     -0.621534    20A     -0.590265    21A     -0.570790
      22A     -0.566066    23A     -0.544989    24A     -0.517095
      25A     -0.499730    26A     -0.482489    27A     -0.461427
      28A     -0.328835    29A     -0.317806

  @DF-RHF Final Energy:  -344.59097942239470

   => Energetics <=

    Nuclear Repulsion Energy =            349.6565308423450347
    One-Electron Energy =               -1160.6561005808657683
    Two-Electron Energy =                 466.4085903161260376
    DFT Exchange-Correlation Energy =       0.0000000000000000
    Empirical Dispersion Energy =           0.0000000000000000
    PCM Polarization Energy =               0.0000000000000000
    EFP Energy =                            0.0000000000000000
    Total Energy =                       -344.5909794223946392
    Molecular point group: c1
  Basis Set: 6-31G*
  Basis Set:

  -Total Gradient:
     Atom            X                  Y                   Z
    ------   -----------------  -----------------  -----------------
       1        0.000001035256     0.000039343075     0.000654422154
       2       -0.000210868739    -0.000161599255    -0.000767351762
       3        0.000542678440     0.000445708873     0.000056175354
       4       -0.000409064568    -0.000254133081     0.000106718686
       5        0.000052729848    -0.000043619332    -0.000050856758
       6        0.000006752095    -0.000013164490    -0.000018713191
       7        0.000076333510    -0.000078328492    -0.000049698613
       8       -0.000107907704     0.000085155775    -0.000059178335
       9       -0.000009609363    -0.000020465128     0.000042489689
      10        0.000004035349    -0.000005395554     0.000011018211
      11        0.000028071712     0.000007821966     0.000110154604
      12        0.000005550328    -0.000008165482    -0.000009551449
      13        0.000014225748     0.000000833056    -0.000002832007
      14        0.000007143006    -0.000002432859    -0.000023657748
      15        0.000008848007     0.000004553364     0.000008737393
      16       -0.000009952925     0.000003887562    -0.000007876231

  **** Optimization is complete! (in 6 steps) ****
    Final optimized geometry and variables:
    Molecular point group: c1

    Geometry (in Angstrom), charge = 0, multiplicity = 1:

    H           -2.419012635882     1.022380810926     0.227748974877
    O           -1.580492214217     1.465215689729     0.224007043995
    C           -0.559050547207     0.549771039837     0.288436567212
    C            0.053977776381     0.316896317689     1.505206186100
    C           -0.131882970774    -0.092451717517    -0.871104844303
    H           -0.301017993969     0.843607982265     2.372109529860
    C            1.112433705897    -0.573836592862     1.588407793546
    C            0.927795171201    -0.983031111883    -0.765173510662
    C           -0.808242186349     0.185314597328    -2.191595449572
    H            1.589530612112    -0.752430836361     2.535354296151
    C            1.548946128954    -1.227481978726     0.450248932660
    H            1.275206115354    -1.490031069880    -1.648521802790
    H           -0.825686441302     1.248023299009    -2.404136232388
    H           -0.293922851653    -0.318385145720    -3.001358024554
    H           -1.839207862880    -0.159280807934    -2.192106601269
    H            2.369701662035    -1.920107985333     0.503059760180

  Mulliken Charges: (a.u.)
   Center  Symbol    Alpha    Beta     Spin     Total
       1     H     0.27190  0.27190  0.00000  0.45620
       2     O     4.38800  4.38800  0.00000 -0.77600
       3     C     2.83608  2.83608  0.00000  0.32783
       4     C     3.11229  3.11229  0.00000 -0.22459
       5     C     2.99919  2.99919  0.00000  0.00161
       6     H     0.39401  0.39401  0.00000  0.21199
       7     C     3.10205  3.10205  0.00000 -0.20410
       8     C     3.11333  3.11333  0.00000 -0.22665
       9     C     3.24664  3.24664  0.00000 -0.49328
      10     H     0.39898  0.39898  0.00000  0.20205
      11     C     3.10044  3.10044  0.00000 -0.20089
      12     H     0.40101  0.40101  0.00000  0.19798
      13     H     0.40253  0.40253  0.00000  0.19494
      14     H     0.41449  0.41449  0.00000  0.17102
      15     H     0.41895  0.41895  0.00000  0.16209
      16     H     0.40010  0.40010  0.00000  0.19981

   Total alpha = 29.00000, Total beta = 29.00000, Total charge = -0.00000
