  ==> Input File <==

--------------------------------------------------------------------------
set {
	reference rhf
	basis 6-31G*
}

set_num_threads( 4 )
memory 2 gb

molecule MOL {
0 1

H	 -3.301617	 0.570527	 0.000000
C	 -2.250981	 0.344174	 0.000000
C	 -1.813665	 -0.976045	 0.000000
C	 -1.315303	 1.358057	 0.000000
H	 -2.528860	 -1.779366	 0.000000
C	 -0.467298	 -1.270142	 0.000000
H	 -1.635074	 2.385107	 0.000000
C	 0.047081	 1.078114	 0.000000
H	 -0.115948	 -2.285222	 0.000000
C	 0.472063	 -0.241155	 0.000000
H	 0.749976	 1.888426	 0.000000
O	 1.765256	 -0.628444	 0.000000
C	 2.778419	 0.335181	 0.000000
H	 2.731280	 0.961222	 -0.884976
H	 3.711703	 -0.207767	 0.000000
H	 2.731280	 0.961222	 0.884976

	symmetry c1
}
set optking {
	frozen_dihedral = ("
		13 12 10 8
	")
}

ee = optimize('scf')
oeprop('DIPOLE', 'QUADRUPOLE', 'MULLIKEN_CHARGES')
f=open( 'psi4out.xyz', 'w' )
f.write( "16  " )
f.write( str(ee) + "\n" )
f.write( MOL.save_string_xyz() )
f.close()
--------------------------------------------------------------------------

    Molecular point group: c1
  Charge       = 0
  Multiplicity = 1
  Basis Set: 6-31G*
  Basis Set:

    Orbital Energies (a.u.)
    -----------------------

    Doubly Occupied:

       1A    -20.585251     2A    -11.294040     3A    -11.279991
       4A    -11.232819     5A    -11.231297     6A    -11.223747
       7A    -11.219188     8A    -11.219106     9A     -1.414331
      10A     -1.145721    11A     -1.021761    12A     -1.012618
      13A     -0.941624    14A     -0.830290    15A     -0.804542
      16A     -0.721729    17A     -0.663802    18A     -0.661511
      19A     -0.656515    20A     -0.616842    21A     -0.586611
      22A     -0.575496    23A     -0.523789    24A     -0.520732
      25A     -0.508710    26A     -0.475335    27A     -0.462330
      28A     -0.334579    29A     -0.304834

  @DF-RHF Final Energy:  -344.58279650839739

   => Energetics <=

    Nuclear Repulsion Energy =            348.1329759911239421
    One-Electron Energy =               -1157.2932601060695106
    Two-Electron Energy =                 464.5774876065482317
    DFT Exchange-Correlation Energy =       0.0000000000000000
    Empirical Dispersion Energy =           0.0000000000000000
    PCM Polarization Energy =               0.0000000000000000
    EFP Energy =                            0.0000000000000000
    Total Energy =                       -344.5827965083973936
    Molecular point group: c1
  Basis Set: 6-31G*
  Basis Set:

  -Total Gradient:
     Atom            X                  Y                   Z
    ------   -----------------  -----------------  -----------------
       1        0.000017788887     0.000009156804    -0.000000000001
       2       -0.000029739132    -0.000172204381     0.000000000021
       3       -0.000178065517     0.000129155820    -0.000000000011
       4        0.000169928518     0.000071918727     0.000000000012
       5        0.000043231559     0.000005937062     0.000000000002
       6        0.000172997540     0.000035524502     0.000000000070
       7       -0.000018348802    -0.000010518732     0.000000000003
       8       -0.000152099743     0.000106556057     0.000000000079
       9       -0.000021343872    -0.000010985576    -0.000000000016
      10       -0.000147298586    -0.000172962693    -0.000000000307
      11        0.000011575084     0.000015224653    -0.000000000088
      12        0.000110012189     0.000000054540     0.000000000411
      13        0.000037063168     0.000009549296    -0.000000000692
      14       -0.000000128884    -0.000018639983    -0.000000629172
      15       -0.000015443523     0.000020873600     0.000000000077
      16       -0.000000128887    -0.000018639697     0.000000629612

  **** Optimization is complete! (in 1 steps) ****
    Final optimized geometry and variables:
    Molecular point group: c1

    Geometry (in Angstrom), charge = 0, multiplicity = 1:

    H           -3.301616842836     0.570527317676     0.000000000000
    C           -2.250980842836     0.344174317676     0.000000000000
    C           -1.813664842836    -0.976044682324     0.000000000000
    C           -1.315302842836     1.358057317676     0.000000000000
    H           -2.528859842836    -1.779365682324     0.000000000000
    C           -0.467297842836    -1.270141682324     0.000000000000
    H           -1.635073842836     2.385107317676     0.000000000000
    C            0.047081157164     1.078114317676     0.000000000000
    H           -0.115947842836    -2.285221682324     0.000000000000
    C            0.472063157164    -0.241154682324     0.000000000000
    H            0.749976157164     1.888426317676     0.000000000000
    O            1.765256157164    -0.628443682324     0.000000000000
    C            2.778419157164     0.335181317676     0.000000000000
    H            2.731280157164     0.961222317676    -0.884976000000
    H            3.711703157164    -0.207766682324     0.000000000000
    H            2.731280157164     0.961222317676     0.884976000000

  Mulliken Charges: (a.u.)
   Center  Symbol    Alpha    Beta     Spin     Total
       1     H     0.40127  0.40127  0.00000  0.19747
       2     C     3.11207  3.11207  0.00000 -0.22415
       3     C     3.09181  3.09181  0.00000 -0.18362
       4     C     3.09097  3.09097  0.00000 -0.18195
       5     H     0.39880  0.39880  0.00000  0.20240
       6     C     3.12547  3.12547  0.00000 -0.25093
       7     H     0.39969  0.39969  0.00000  0.20062
       8     C     3.14503  3.14503  0.00000 -0.29006
       9     H     0.39294  0.39294  0.00000  0.21411
      10     C     2.78221  2.78221  0.00000  0.43558
      11     H     0.39739  0.39739  0.00000  0.20521
      12     O     4.32597  4.32597  0.00000 -0.65195
      13     C     3.09241  3.09241  0.00000 -0.18482
      14     H     0.41968  0.41968  0.00000  0.16063
      15     H     0.40460  0.40460  0.00000  0.19081
      16     H     0.41968  0.41968  0.00000  0.16063

   Total alpha = 29.00000, Total beta = 29.00000, Total charge = -0.00000
