  ==> Input File <==

--------------------------------------------------------------------------
set {
	reference rhf
	basis 6-31G*
}

set_num_threads( 4 )
memory 2 gb

molecule MOL {
0 1

H	 -3.650283	 0.221984	 0.000000
C	 -2.577024	 0.154109	 0.000000
C	 -1.960329	 -1.089307	 0.000000
C	 -1.811733	 1.307557	 0.000000
H	 -2.554473	 -1.985285	 0.000000
C	 -0.581547	 -1.175855	 0.000000
H	 -2.287118	 2.271701	 0.000000
C	 -0.428719	 1.219221	 0.000000
H	 -0.090826	 -2.129898	 0.000000
C	 0.198341	 -0.021559	 0.000000
H	 0.149947	 2.124040	 0.000000
C	 1.691355	 -0.173192	 0.000000
C	 2.357215	 -0.905874	 -1.146015
O	 2.347841	 0.277619	 0.891723
H	 1.996102	 -1.926952	 -1.215126
H	 3.423941	 -0.914520	 -0.974226
H	 2.149550	 -0.416066	 -2.091924

	symmetry c1
}
set optking {
	frozen_dihedral = ("
		13 12 10 8
	")
}

ee = optimize('scf')
oeprop('DIPOLE', 'QUADRUPOLE', 'MULLIKEN_CHARGES')
f=open( 'psi4out.xyz', 'w' )
f.write( "17  " )
f.write( str(ee) + "\n" )
f.write( MOL.save_string_xyz() )
f.close()
--------------------------------------------------------------------------

    Molecular point group: c1
  Charge       = 0
  Multiplicity = 1
  Basis Set: 6-31G*
  Basis Set:
  @DF-RHF Final Energy:  -382.46769622526460
    Total Energy =                       -382.4676962252650583
    Molecular point group: c1
  Basis Set: 6-31G*
  Basis Set:
  Basis Set: 6-31G*
  Basis Set:
  @DF-RHF Final Energy:  -382.46744657565790
    Total Energy =                       -382.4674465756579593
  Basis Set: 6-31G*
  Basis Set:
  Basis Set: 6-31G*
  Basis Set:
  @DF-RHF Final Energy:  -382.46861113974802
    Total Energy =                       -382.4686111397476225
  Basis Set: 6-31G*
  Basis Set:
  Basis Set: 6-31G*
  Basis Set:
  @DF-RHF Final Energy:  -382.46925159184275
    Total Energy =                       -382.4692515918428626
  Basis Set: 6-31G*
  Basis Set:
  Basis Set: 6-31G*
  Basis Set:
  @DF-RHF Final Energy:  -382.46926908519049
    Total Energy =                       -382.4692690851902626
  Basis Set: 6-31G*
  Basis Set:
  Basis Set: 6-31G*
  Basis Set:
  @DF-RHF Final Energy:  -382.46927766926882
    Total Energy =                       -382.4692776692691041
  Basis Set: 6-31G*
  Basis Set:
  Charge       = 0
  Multiplicity = 1
  Basis Set: 6-31G*
  Basis Set:

    Orbital Energies (a.u.)
    -----------------------

    Doubly Occupied:

       1A    -20.554709     2A    -11.333055     3A    -11.246850
       4A    -11.245659     5A    -11.242565     6A    -11.242302
       7A    -11.241037     8A    -11.239702     9A    -11.230981
      10A     -1.400041    11A     -1.166092    12A     -1.050486
      13A     -1.026293    14A     -0.997661    15A     -0.859900
      16A     -0.837150    17A     -0.761180    18A     -0.704148
      19A     -0.660912    20A     -0.644717    21A     -0.624018
      22A     -0.619204    23A     -0.599817    24A     -0.589420
      25A     -0.559939    26A     -0.524445    27A     -0.513810
      28A     -0.503469    29A     -0.490898    30A     -0.409918
      31A     -0.344177    32A     -0.342042

  @DF-RHF Final Energy:  -382.46927923859630

   => Energetics <=

    Nuclear Repulsion Energy =            402.9979451851552312
    One-Electron Energy =               -1317.3212560930983273
    Two-Electron Energy =                 531.8540316693467958
    DFT Exchange-Correlation Energy =       0.0000000000000000
    Empirical Dispersion Energy =           0.0000000000000000
    PCM Polarization Energy =               0.0000000000000000
    EFP Energy =                            0.0000000000000000
    Total Energy =                       -382.4692792385963003
    Molecular point group: c1
  Basis Set: 6-31G*
  Basis Set:

  -Total Gradient:
     Atom            X                  Y                   Z
    ------   -----------------  -----------------  -----------------
       1       -0.000005644558    -0.000011995610     0.000002322317
       2        0.000006024787    -0.000098031437    -0.000045302260
       3       -0.000055776844     0.000063468017     0.000065503512
       4        0.000092739596     0.000083151573     0.000004489437
       5       -0.000005098280     0.000002930156    -0.000001189502
       6       -0.000018562264     0.000042998500    -0.000069291413
       7       -0.000002613003    -0.000009163300     0.000011976684
       8       -0.000142974661     0.000003696067    -0.004202641606
       9        0.000026447131     0.000025319930     0.000022845865
      10        0.000211759148     0.001396283053     0.005133000152
      11       -0.000010041501    -0.000000198554    -0.000002500400
      12       -0.000268604675    -0.004810847800     0.001098480285
      13        0.000126880869     0.003365398861    -0.002047971768
      14        0.000013786909     0.000001713532    -0.000014496439
      15       -0.000001413232    -0.000018547368     0.000035904737
      16        0.000010066090    -0.000009133584    -0.000003528844
      17        0.000023024487    -0.000027042037     0.000012399238

  **** Optimization is complete! (in 7 steps) ****
    Final optimized geometry and variables:
    Molecular point group: c1

    Geometry (in Angstrom), charge = 0, multiplicity = 1:

    H           -3.639455459326     0.286791229289    -0.006901651379
    C           -2.567955123327     0.199206642140     0.013162622363
    C           -1.975262546154    -1.052608453669     0.031643657752
    C           -1.778239635740     1.338595845250     0.018744235590
    H           -2.584679923505    -1.938363224539     0.030747396630
    C           -0.594555135031    -1.165573278811     0.042180807210
    H           -2.235497713739     2.311468510046     0.000046199251
    C           -0.399252645891     1.226238315023     0.054071935478
    H           -0.143132432021    -2.142077907488     0.046205158046
    C            0.200650450289    -0.027253200923     0.072455596143
    H            0.216423551380     2.106782257267     0.077451421780
    C            1.702983742621    -0.107674349705     0.054996777188
    C            2.345444988333    -0.839921737253    -1.102430295824
    O            2.356887037357     0.473570204978     0.866347887673
    H            1.969223917736    -1.852916462551    -1.197947942915
    H            3.418179465939    -0.859153584309    -0.968431262408
    H            2.101981241915    -0.320520600064    -2.024593916809

  Mulliken Charges: (a.u.)
   Center  Symbol    Alpha    Beta     Spin     Total
       1     H     0.39625  0.39625  0.00000  0.20751
       2     C     3.09681  3.09681  0.00000 -0.19361
       3     C     3.10037  3.10037  0.00000 -0.20074
       4     C     3.10018  3.10018  0.00000 -0.20035
       5     H     0.39629  0.39629  0.00000  0.20743
       6     C     3.10455  3.10455  0.00000 -0.20909
       7     H     0.39562  0.39562  0.00000  0.20876
       8     C     3.09871  3.09871  0.00000 -0.19741
       9     H     0.39555  0.39555  0.00000  0.20890
      10     C     3.03373  3.03373  0.00000 -0.06747
      11     H     0.38614  0.38614  0.00000  0.22773
      12     C     2.74626  2.74626  0.00000  0.50748
      13     C     3.28631  3.28631  0.00000 -0.57262
      14     O     4.25490  4.25490  0.00000 -0.50981
      15     H     0.40889  0.40889  0.00000  0.18222
      16     H     0.39714  0.39714  0.00000  0.20572
      17     H     0.40231  0.40231  0.00000  0.19537

   Total alpha = 32.00000, Total beta = 32.00000, Total charge = -0.00000
