  ==> Input File <==

--------------------------------------------------------------------------
set {
	reference rhf
	basis 6-31G*
}

set_num_threads( 1 )
memory 2 gb

molecule MOL {
0 1

O	 1.988689	 0.024782	 -0.808013
C	 1.122059	 0.121804	 -0.000188
C	 -0.170150	 -0.657997	 -0.000612
O	 1.182273	 0.951621	 1.033617
C	 -1.412532	 0.227344	 -0.000452
H	 -0.153702	 -1.313099	 -0.867402
H	 -0.153924	 -1.313811	 0.865644
C	 -2.706999	 -0.587347	 -0.000541
H	 -1.388000	 0.879466	 -0.868000
H	 -1.387972	 0.879138	 0.867341
C	 -3.956778	 0.291888	 0.000910
H	 -2.726114	 -1.239230	 -0.871609
H	 -2.725217	 -1.240844	 0.869333
H	 -3.985213	 0.933254	 -0.875158
H	 -4.860123	 -0.309979	 0.000519
H	 -3.984618	 0.931166	 0.878514
C	 2.348248	 1.746257	 1.152776
H	 3.224478	 1.122382	 1.255190
H	 2.208779	 2.343702	 2.040220
H	 2.464506	 2.382633	 0.287319

	symmetry c1
}
set optking {
	frozen_dihedral = ("
		9 5 8 12,
		9 5 3 6,
		1 2 4 17
	")
}

ee = energy('scf')
oeprop('DIPOLE', 'QUADRUPOLE', 'MULLIKEN_CHARGES')
f=open( 'psi4out.xyz', 'w' )
f.write( "20  " )
f.write( str(ee) + "\n" )
f.write( MOL.save_string_xyz() )
f.close()
--------------------------------------------------------------------------

    Molecular point group: c1

    Geometry (in Angstrom), charge = 0, multiplicity = 1:

       Center              X                  Y                   Z               Mass
    ------------   -----------------  -----------------  -----------------  -----------------
           O          2.162417551446    -0.263004906015    -0.989271582529    15.994914619560
           C          1.295787551446    -0.165982906015    -0.181446582529    12.000000000000
           C          0.003578551446    -0.945783906015    -0.181870582529    12.000000000000
           O          1.356001551446     0.663834093985     0.852358417471    15.994914619560
           C         -1.238803448554    -0.060442906015    -0.181710582529    12.000000000000
           H          0.020026551446    -1.600885906015    -1.048660582529     1.007825032070
           H          0.019804551446    -1.601597906015     0.684385417471     1.007825032070
           C         -2.533270448554    -0.875133906015    -0.181799582529    12.000000000000
           H         -1.214271448554     0.591679093985    -1.049258582529     1.007825032070
           H         -1.214243448554     0.591351093985     0.686082417471     1.007825032070
           C         -3.783049448554     0.004101093985    -0.180348582529    12.000000000000
           H         -2.552385448554    -1.527016906015    -1.052867582529     1.007825032070
           H         -2.551488448554    -1.528630906015     0.688074417471     1.007825032070
           H         -3.811484448554     0.645467093985    -1.056416582529     1.007825032070
           H         -4.686394448554    -0.597765906015    -0.180739582529     1.007825032070
           H         -3.810889448554     0.643379093985     0.697255417471     1.007825032070
           C          2.521976551446     1.458470093985     0.971517417471    12.000000000000
           H          3.398206551446     0.834595093985     1.073931417471     1.007825032070
           H          2.382507551446     2.055915093985     1.858961417471     1.007825032070
           H          2.638234551446     2.094846093985     0.106060417471     1.007825032070

  Charge       = 0
  Multiplicity = 1
  Basis Set: 6-31G*
  Basis Set:

    Orbital Energies (a.u.)
    -----------------------

    Doubly Occupied:

       1A    -20.604380     2A    -20.544314     3A    -11.371442
       4A    -11.281088     5A    -11.234309     6A    -11.227121
       7A    -11.223881     8A    -11.214078     9A     -1.469313
      10A     -1.361908    11A     -1.093387    12A     -1.025353
      13A     -0.966635    14A     -0.891173    15A     -0.807762
      16A     -0.774363    17A     -0.693802    18A     -0.680713
      19A     -0.673346    20A     -0.646605    21A     -0.597342
      22A     -0.591391    23A     -0.576375    24A     -0.550486
      25A     -0.532982    26A     -0.522228    27A     -0.506862
      28A     -0.487658    29A     -0.482489    30A     -0.473373
      31A     -0.454844    32A     -0.428822

  @DF-RHF Final Energy:  -383.93995197958861

   => Energetics <=

    Nuclear Repulsion Energy =            383.9885974553037613
    One-Electron Energy =               -1283.8775036762358468
    Two-Electron Energy =                 515.9489542413438130
    DFT Exchange-Correlation Energy =       0.0000000000000000
    Empirical Dispersion Energy =           0.0000000000000000
    PCM Polarization Energy =               0.0000000000000000
    EFP Energy =                            0.0000000000000000
    Total Energy =                       -383.9399519795882725

  Mulliken Charges: (a.u.)
   Center  Symbol    Alpha    Beta     Spin     Total
       1     O     4.28560  4.28560  0.00000 -0.57119
       2     C     2.61387  2.61387  0.00000  0.77226
       3     C     3.19916  3.19916  0.00000 -0.39831
       4     O     4.30196  4.30196  0.00000 -0.60391
       5     C     3.16174  3.16174  0.00000 -0.32349
       6     H     0.39942  0.39942  0.00000  0.20116
       7     H     0.40396  0.40396  0.00000  0.19209
       8     C     3.15362  3.15362  0.00000 -0.30723
       9     H     0.41544  0.41544  0.00000  0.16913
      10     H     0.40715  0.40715  0.00000  0.18570
      11     C     3.24005  3.24005  0.00000 -0.48010
      12     H     0.42027  0.42027  0.00000  0.15945
      13     H     0.42092  0.42092  0.00000  0.15816
      14     H     0.42015  0.42015  0.00000  0.15969
      15     H     0.41755  0.41755  0.00000  0.16490
      16     H     0.42032  0.42032  0.00000  0.15937
      17     C     3.09237  3.09237  0.00000 -0.18473
      18     H     0.40878  0.40878  0.00000  0.18244
      19     H     0.40886  0.40886  0.00000  0.18229
      20     H     0.40884  0.40884  0.00000  0.18232

   Total alpha = 32.00000, Total beta = 32.00000, Total charge =  0.00000
