  ==> Input File <==

--------------------------------------------------------------------------
set {
	reference rhf
	basis cc-pvtz
}

set_num_threads( 4 )
memory 2 gb

molecule MOL {
0 1

H	 -1.436000	 1.347000	 -0.000000
C	 -0.864000	 0.417000	 -0.000000
N	 0.465000	 0.636000	 0.000000
O	 -1.397000	 -0.653000	 0.000000
C	 1.448000	 -0.425000	 -0.000000
H	 0.779000	 1.579000	 -0.000000
H	 2.076000	 -0.370000	 -0.882000
H	 0.925000	 -1.368000	 -0.000000
H	 2.076000	 -0.370000	 0.882000

	symmetry c1
}
ee = optimize('scf')
oeprop('DIPOLE', 'QUADRUPOLE', 'MULLIKEN_CHARGES')
f=open( 'psi4out.xyz', 'w' )
f.write( "9  " )
f.write( str(ee) + "\n" )
f.write( MOL.save_string_xyz() )
f.close()
--------------------------------------------------------------------------

    Molecular point group: c1
  Charge       = 0
  Multiplicity = 1
  Basis Set: CC-PVTZ
  Basis Set:
  @DF-RHF Final Energy:  -208.04347407360646
    Total Energy =                       -208.0434740736064612
    Molecular point group: c1
  Basis Set: CC-PVTZ
  Basis Set:
  Basis Set: CC-PVTZ
  Basis Set:
  @DF-RHF Final Energy:  -208.04356388316029
    Total Energy =                       -208.0435638831603455
  Basis Set: CC-PVTZ
  Basis Set:
  Charge       = 0
  Multiplicity = 1
  Basis Set: CC-PVTZ
  Basis Set:

    Orbital Energies (a.u.)
    -----------------------

    Doubly Occupied:

       1A    -20.515820     2A    -15.585210     3A    -11.337632
       4A    -11.259128     5A     -1.393377     6A     -1.240057
       7A     -0.970638     8A     -0.808332     9A     -0.748890
      10A     -0.646333    11A     -0.629280    12A     -0.596960
      13A     -0.554790    14A     -0.542897    15A     -0.427985
      16A     -0.395801

  @DF-RHF Final Energy:  -208.04356668335618

   => Energetics <=

    Nuclear Repulsion Energy =            122.6867848842713755
    One-Electron Energy =                -526.1544428848569623
    Two-Electron Energy =                 195.4240913172293119
    DFT Exchange-Correlation Energy =       0.0000000000000000
    Empirical Dispersion Energy =           0.0000000000000000
    PCM Polarization Energy =               0.0000000000000000
    EFP Energy =                            0.0000000000000000
    Total Energy =                       -208.0435666833562607
    Molecular point group: c1
  Basis Set: CC-PVTZ
  Basis Set:

  -Total Gradient:
     Atom            X                  Y                   Z
    ------   -----------------  -----------------  -----------------
       1       -0.000020537525     0.000134125458    -0.000000000049
       2       -0.000337621864     0.000001917893     0.000000000154
       3        0.000135558498    -0.000225510569    -0.000000000030
       4        0.000239874760     0.000014649893    -0.000000000060
       5       -0.000040671154     0.000130255529    -0.000000000001
       6       -0.000023887935     0.000103166104    -0.000000000007
       7        0.000028862485    -0.000029153973     0.000021619194
       8       -0.000010439795    -0.000100296380     0.000000000022
       9        0.000028862531    -0.000029153957    -0.000021619222

  **** Optimization is complete! (in 3 steps) ****
    Final optimized geometry and variables:
    Molecular point group: c1

    Geometry (in Angstrom), charge = 0, multiplicity = 1:

    H            1.357882328962    -1.360835714337     0.000000000007
    C            0.788096265031    -0.429818842727     0.000000000244
    N           -0.537713336204    -0.645116586317     0.000000000164
    O            1.323889106669     0.633027898545    -0.000000000375
    C           -1.522612663619     0.412524675072     0.000000000026
    H           -0.845893298334    -1.585865519937     0.000000000247
    H           -2.150255375318     0.356137735741    -0.880771296167
    H           -1.005620764656     1.357208141806     0.000000000476
    H           -2.150255375620     0.356137735475     0.880771295904

  Mulliken Charges: (a.u.)
   Center  Symbol    Alpha    Beta     Spin     Total
       1     H     0.46272  0.46272  0.00000  0.07455
       2     C     2.88102  2.88102  0.00000  0.23796
       3     N     3.60828  3.60828  0.00000 -0.21655
       4     O     4.21537  4.21537  0.00000 -0.43074
       5     C     3.08129  3.08129  0.00000 -0.16259
       6     H     0.40928  0.40928  0.00000  0.18143
       7     H     0.45469  0.45469  0.00000  0.09062
       8     H     0.43265  0.43265  0.00000  0.13471
       9     H     0.45469  0.45469  0.00000  0.09062

   Total alpha = 16.00000, Total beta = 16.00000, Total charge = -0.00000
