  ==> Input File <==

--------------------------------------------------------------------------
set {
	reference rhf
	basis 6-31G*
}

set_num_threads( 1 )
memory 2 gb

molecule MOL {
0 1

H	 -3.001339	 0.326516	 2.019600
O	 -2.148347	 0.603182	 1.716885
C	 -2.026376	 0.340750	 0.341611
C	 -0.673256	 0.843270	 -0.132153
H	 -2.108411	 -0.727790	 0.150745
H	 -2.822116	 0.835554	 -0.213925
C	 0.486613	 -0.083066	 0.235839
H	 -0.715586	 0.970948	 -1.210718
H	 -0.508072	 1.829858	 0.297090
C	 1.840406	 0.433480	 -0.254303
H	 0.300215	 -1.068318	 -0.178947
H	 0.519509	 -0.203625	 1.318070
C	 3.000220	 -0.489290	 0.118523
H	 1.809207	 0.553576	 -1.335192
H	 2.021860	 1.424500	 0.157276
H	 2.864959	 -1.479103	 -0.307933
H	 3.946603	 -0.099227	 -0.243630
H	 3.080049	 -0.602997	 1.196117

	symmetry c1
}
set optking {
	frozen_dihedral = ("
		14 10 7 11,
		10 7 4 8,
		1 2 3 4
	")
}

ee = energy('scf')
oeprop('DIPOLE', 'QUADRUPOLE', 'MULLIKEN_CHARGES')
f=open( 'psi4out.xyz', 'w' )
f.write( "18  " )
f.write( str(ee) + "\n" )
f.write( MOL.save_string_xyz() )
f.close()
--------------------------------------------------------------------------

    Molecular point group: c1

    Geometry (in Angstrom), charge = 0, multiplicity = 1:

       Center              X                  Y                   Z               Mass
    ------------   -----------------  -----------------  -----------------  -----------------
           H         -3.030828415368     0.054481056628     1.646827520712     1.007825032070
           O         -2.177836415368     0.331147056628     1.344112520712    15.994914619560
           C         -2.055865415368     0.068715056628    -0.031161479288    12.000000000000
           C         -0.702745415368     0.571235056628    -0.504925479288    12.000000000000
           H         -2.137900415368    -0.999824943372    -0.222027479288     1.007825032070
           H         -2.851605415368     0.563519056628    -0.586697479288     1.007825032070
           C          0.457123584632    -0.355100943372    -0.136933479288    12.000000000000
           H         -0.745075415368     0.698913056628    -1.583490479288     1.007825032070
           H         -0.537561415368     1.557823056628    -0.075682479288     1.007825032070
           C          1.810916584632     0.161445056628    -0.627075479288    12.000000000000
           H          0.270725584632    -1.340352943372    -0.551719479288     1.007825032070
           H          0.490019584632    -0.475659943372     0.945297520712     1.007825032070
           C          2.970730584632    -0.761324943372    -0.254249479288    12.000000000000
           H          1.779717584632     0.281541056628    -1.707964479288     1.007825032070
           H          1.992370584632     1.152465056628    -0.215496479288     1.007825032070
           H          2.835469584632    -1.751137943372    -0.680705479288     1.007825032070
           H          3.917113584632    -0.371261943372    -0.616402479288     1.007825032070
           H          3.050559584632    -0.875031943372     0.823344520712     1.007825032070

  Charge       = 0
  Multiplicity = 1
  Basis Set: 6-31G*
  Basis Set:

    Orbital Energies (a.u.)
    -----------------------

    Doubly Occupied:

       1A    -20.552330     2A    -11.267496     3A    -11.211752
       4A    -11.211461     5A    -11.208450     6A    -11.205385
       7A     -1.359023     8A     -1.076023     9A     -1.009165
      10A     -0.913045    11A     -0.817979    12A     -0.785970
      13A     -0.704990    14A     -0.638606    15A     -0.628535
      16A     -0.578658    17A     -0.571190    18A     -0.559174
      19A     -0.522976    20A     -0.501428    21A     -0.488337
      22A     -0.468070    23A     -0.460471    24A     -0.448120
      25A     -0.427971

  @DF-RHF Final Energy:  -271.17882116492933

   => Energetics <=

    Nuclear Repulsion Energy =            248.2238167808216929
    One-Electron Energy =                -859.5721402324691098
    Two-Electron Energy =                 340.1695022867176021
    DFT Exchange-Correlation Energy =       0.0000000000000000
    Empirical Dispersion Energy =           0.0000000000000000
    PCM Polarization Energy =               0.0000000000000000
    EFP Energy =                            0.0000000000000000
    Total Energy =                       -271.1788211649297864

  Mulliken Charges: (a.u.)
   Center  Symbol    Alpha    Beta     Spin     Total
       1     H     0.28094  0.28094  0.00000  0.43811
       2     O     4.37016  4.37016  0.00000 -0.74032
       3     C     2.99704  2.99704  0.00000  0.00592
       4     C     3.16013  3.16013  0.00000 -0.32026
       5     H     0.43224  0.43224  0.00000  0.13552
       6     H     0.42997  0.42997  0.00000  0.14007
       7     C     3.15411  3.15411  0.00000 -0.30822
       8     H     0.42391  0.42391  0.00000  0.15219
       9     H     0.41191  0.41191  0.00000  0.17617
      10     C     3.15193  3.15193  0.00000 -0.30386
      11     H     0.42624  0.42624  0.00000  0.14752
      12     H     0.41204  0.41204  0.00000  0.17592
      13     C     3.23906  3.23906  0.00000 -0.47812
      14     H     0.42488  0.42488  0.00000  0.15025
      15     H     0.42182  0.42182  0.00000  0.15636
      16     H     0.42263  0.42263  0.00000  0.15473
      17     H     0.42007  0.42007  0.00000  0.15986
      18     H     0.42092  0.42092  0.00000  0.15816

   Total alpha = 25.00000, Total beta = 25.00000, Total charge =  0.00000
