  ==> Input File <==

--------------------------------------------------------------------------
set {
	reference rhf
	basis cc-pvtz
}

set_num_threads( 4 )
memory 2 gb

molecule MOL {
0 1

H	 2.416493	 -0.708526	 0.353417
C	 1.692903	 0.085809	 0.426094
O	 0.462329	 -0.453336	 -0.000137
H	 2.000343	 0.906222	 -0.210005
H	 1.636159	 0.422267	 1.453622
C	 -0.590565	 0.341382	 0.000062
O	 -1.693898	 -0.053880	 0.000252
H	 -0.340426	 1.403822	 0.000200

	symmetry c1
}
set optking {
	frozen_dihedral = ("
		2 3 6 7
	")
}

ee = optimize('scf')
oeprop('DIPOLE', 'QUADRUPOLE', 'MULLIKEN_CHARGES')
f=open( 'psi4out.xyz', 'w' )
f.write( "8  " )
f.write( str(ee) + "\n" )
f.write( MOL.save_string_xyz() )
f.close()
--------------------------------------------------------------------------

    Molecular point group: c1
  Charge       = 0
  Multiplicity = 1
  Basis Set: CC-PVTZ
  Basis Set:
  @DF-RHF Final Energy:  -227.86895562450616
    Total Energy =                       -227.8689556245061567
    Molecular point group: c1
  Basis Set: CC-PVTZ
  Basis Set:
  Basis Set: CC-PVTZ
  Basis Set:
  @DF-RHF Final Energy:  -227.86899299382236
    Total Energy =                       -227.8689929938220757
  Basis Set: CC-PVTZ
  Basis Set:
  Basis Set: CC-PVTZ
  Basis Set:
  @DF-RHF Final Energy:  -227.86908161075473
    Total Energy =                       -227.8690816107547334
  Basis Set: CC-PVTZ
  Basis Set:
  Basis Set: CC-PVTZ
  Basis Set:
  @DF-RHF Final Energy:  -227.86914952809013
    Total Energy =                       -227.8691495280901052
  Basis Set: CC-PVTZ
  Basis Set:
  Basis Set: CC-PVTZ
  Basis Set:
  @DF-RHF Final Energy:  -227.86915371048843
    Total Energy =                       -227.8691537104885185
  Basis Set: CC-PVTZ
  Basis Set:
  Charge       = 0
  Multiplicity = 1
  Basis Set: CC-PVTZ
  Basis Set:

    Orbital Energies (a.u.)
    -----------------------

    Doubly Occupied:

       1A    -20.608889     2A    -20.548233     3A    -11.374613
       4A    -11.302103     5A     -1.479613     6A     -1.386634
       7A     -0.993933     8A     -0.849432     9A     -0.740759
      10A     -0.688557    11A     -0.685239    12A     -0.609693
      13A     -0.573605    14A     -0.540095    15A     -0.467041
      16A     -0.457571

  @DF-RHF Final Energy:  -227.86915423038019

   => Energetics <=

    Nuclear Repulsion Energy =            121.5206234010047694
    One-Electron Energy =                -552.1675332422000793
    Two-Electron Energy =                 202.7777556108152339
    DFT Exchange-Correlation Energy =       0.0000000000000000
    Empirical Dispersion Energy =           0.0000000000000000
    PCM Polarization Energy =               0.0000000000000000
    EFP Energy =                            0.0000000000000000
    Total Energy =                       -227.8691542303801043
    Molecular point group: c1
  Basis Set: CC-PVTZ
  Basis Set:

  -Total Gradient:
     Atom            X                  Y                   Z
    ------   -----------------  -----------------  -----------------
       1        0.000011603247     0.000003881133    -0.000005976753
       2       -0.000512813292    -0.000261658194     0.002437664331
       3        0.000913950474     0.000678164347    -0.002116829879
       4       -0.000000268391    -0.000014933382     0.000007035449
       5       -0.000037025414    -0.000008827184    -0.000001464164
       6       -0.000418472645    -0.000947830597    -0.003501491772
       7        0.000023084963     0.000588416032     0.003172407237
       8        0.000019941061    -0.000037212155     0.000008655551

  **** Optimization is complete! (in 6 steps) ****
    Final optimized geometry and variables:
    Molecular point group: c1

    Geometry (in Angstrom), charge = 0, multiplicity = 1:

    H            2.455068512284    -0.650200457330     0.085174520912
    C            1.707806521501     0.092583086497     0.309910372744
    O            0.460186129660    -0.464552965938    -0.030491672393
    H            1.911794123228     0.986328202829    -0.267866756760
    H            1.741019573153     0.328192505921     1.365444761125
    C           -0.567054610600     0.352642398676    -0.177099214222
    O           -1.683322778198     0.001079662246    -0.121381280057
    H           -0.278553561653     1.390113834895    -0.353778270206

  Mulliken Charges: (a.u.)
   Center  Symbol    Alpha    Beta     Spin     Total
       1     H     0.44139  0.44139  0.00000  0.11723
       2     C     3.02946  3.02946  0.00000 -0.05892
       3     O     4.12304  4.12304  0.00000 -0.24608
       4     H     0.46432  0.46432  0.00000  0.07135
       5     H     0.45575  0.45575  0.00000  0.08850
       6     C     2.83565  2.83565  0.00000  0.32871
       7     O     4.17293  4.17293  0.00000 -0.34586
       8     H     0.47747  0.47747  0.00000  0.04507

   Total alpha = 16.00000, Total beta = 16.00000, Total charge = -0.00000
