                              Psi4 1.0.54 Driver

  ==> Input File <==

--------------------------------------------------------------------------
set {
	reference rhf
	basis cc-pvtz
}

set_num_threads( 4 )
memory 2 gb

molecule MOL {
0 1

H	 -1.516470	 3.315382	 1.707599
O	 -1.320748	 2.437420	 1.437545
C	 -0.260281	 2.439980	 0.516990
C	 0.027642	 1.012027	 0.090274
H	 0.633194	 2.861633	 0.970508
H	 -0.507470	 3.054176	 -0.344476
C	 -1.138737	 0.285728	 -0.581921
H	 0.329944	 0.454049	 0.970490
H	 0.883612	 1.029939	 -0.579957
C	 -1.933983	 -0.631436	 0.343653
H	 -0.763151	 -0.285569	 -1.422081
H	 -1.808359	 1.035291	 -0.992333
H	 -2.789188	 -1.049673	 -0.174718
H	 -1.335629	 -1.461368	 0.700418
H	 -2.305435	 -0.092167	 1.209725

	symmetry c1
}
set optking {
	frozen_dihedral = ("
		8 4 7 11
	")
}

ee,wfn = optimize('scf', return_wfn=True)
oeprop( wfn, 'DIPOLE', 'QUADRUPOLE', 'MULLIKEN_CHARGES')
f=open( 'psi4out.xyz', 'w' )
f.write( "15  " )
f.write( str(ee) + "\n" )
f.write( MOL.save_string_xyz() )
f.close()
--------------------------------------------------------------------------

    Molecular point group: c1
  Charge       = 0
  Multiplicity = 1
  Basis Set: CC-PVTZ
  Basis Set:
  @DF-RHF Final Energy:  -232.23468379593228
    Total Energy =                       -232.2346837959322556
    Molecular point group: c1
  Basis Set: CC-PVTZ
  Basis Set:
  Basis Set: CC-PVTZ
  Basis Set:
  @DF-RHF Final Energy:  -232.23502827332453
    Total Energy =                       -232.2350282733245876
  Basis Set: CC-PVTZ
  Basis Set:
  Basis Set: CC-PVTZ
  Basis Set:
  @DF-RHF Final Energy:  -232.23506777449978
    Total Energy =                       -232.2350677744996688
  Basis Set: CC-PVTZ
  Basis Set:
  Charge       = 0
  Multiplicity = 1
  Basis Set: CC-PVTZ
  Basis Set:

    Orbital Energies (a.u.)
    -----------------------

    Doubly Occupied:

       1A    -20.547562     2A    -11.266525     3A    -11.210969
       4A    -11.208444     5A    -11.195641     6A     -1.365391
       7A     -1.062690     8A     -0.972592     9A     -0.858026
      10A     -0.784032    11A     -0.708717    12A     -0.643676
      13A     -0.602574    14A     -0.590511    15A     -0.547979
      16A     -0.536211    17A     -0.508768    18A     -0.472814
      19A     -0.465634    20A     -0.452282    21A     -0.433340

  @DF-RHF Final Energy:  -232.23506857673490

   => Energetics <=

    Nuclear Repulsion Energy =            191.9759925860729197
    One-Electron Energy =                -695.5533649888636774
    Two-Electron Energy =                 271.3423038260558542
    DFT Exchange-Correlation Energy =       0.0000000000000000
    Empirical Dispersion Energy =           0.0000000000000000
    PCM Polarization Energy =               0.0000000000000000
    EFP Energy =                            0.0000000000000000
    Total Energy =                       -232.2350685767348750
    Molecular point group: c1
  Basis Set: CC-PVTZ
  Basis Set:

  -Total Gradient:
     Atom            X                  Y                   Z
    ------   -----------------  -----------------  -----------------
       1        0.000023633819    -0.000006802322    -0.000014499077
       2       -0.000079453076    -0.000007623034     0.000010749678
       3        0.000116941956     0.000042049733     0.000081958659
       4        0.001416586827    -0.000883364704    -0.001595898724
       5        0.000020698300     0.000015484454    -0.000013292527
       6       -0.000003731083    -0.000031015248    -0.000014740134
       7       -0.000003845415    -0.001581028151     0.001689697149
       8       -0.001208273688     0.001037165371     0.001032966031
       9       -0.000019803210     0.000018653752     0.000009128256
      10       -0.000044642842    -0.000060065595    -0.000017954711
      11       -0.000254181862     0.001450602691    -0.001140593676
      12        0.000006590805     0.000007861531    -0.000019737847
      13        0.000001231413    -0.000002616556    -0.000003188506
      14        0.000005668438     0.000000709547     0.000008050458
      15        0.000022579620    -0.000000011468    -0.000012645031

  **** Optimization is complete! (in 4 steps) ****
    Final optimized geometry and variables:
    Molecular point group: c1

    Geometry (in Angstrom), charge = 0, multiplicity = 1:

    H           -0.574373266118     2.174279400245     1.280896068934
    O           -0.359063420742     1.290778433998     1.046271419666
    C            0.687119531170     1.280733611405     0.109607441222
    C            0.979084456844    -0.149890324266    -0.302821164644
    H            1.582098152594     1.725269966130     0.538219081244
    H            0.415200235091     1.866251777836    -0.766327605325
    C           -0.202847984390    -0.863684242733    -0.982507915158
    H            1.281812316399    -0.696845346854     0.584396812362
    H            1.835283932699    -0.124381415885    -0.968941059668
    C           -1.003539818662    -1.767624960340    -0.050164788910
    H            0.164976277111    -1.445995026955    -1.821062809676
    H           -0.867293034333    -0.120089119107    -1.412230317044
    H           -1.832674557895    -2.229462531164    -0.575080704972
    H           -0.380795422043    -2.563053727974     0.346601643366
    H           -1.400590120745    -1.205773811901     0.784861878002

  Mulliken Charges: (a.u.)
   Center  Symbol    Alpha    Beta     Spin     Total
       1     H     0.39678  0.39678  0.00000  0.20645
       2     O     4.19757  4.19757  0.00000 -0.39514
       3     C     2.97237  2.97237  0.00000  0.05525
       4     C     3.09642  3.09642  0.00000 -0.19284
       5     H     0.46569  0.46569  0.00000  0.06862
       6     H     0.47433  0.47433  0.00000  0.05135
       7     C     3.08309  3.08309  0.00000 -0.16619
       8     H     0.45323  0.45323  0.00000  0.09355
       9     H     0.44761  0.44761  0.00000  0.10479
      10     C     3.14694  3.14694  0.00000 -0.29388
      11     H     0.45068  0.45068  0.00000  0.09863
      12     H     0.45725  0.45725  0.00000  0.08549
      13     H     0.45313  0.45313  0.00000  0.09373
      14     H     0.45899  0.45899  0.00000  0.08202
      15     H     0.44591  0.44591  0.00000  0.10817

   Total alpha = 21.00000, Total beta = 21.00000, Total charge = -0.00000

*** Psi4 exiting successfully. Buy a developer a beer!
