  ==> Input File <==

--------------------------------------------------------------------------
set {
	reference rhf
	basis 6-31G*
}

set_num_threads( 4 )
memory 2 gb

molecule MOL {
0 1

H	 3.876844	 0.386858	 -0.282127
N	 3.081728	 -0.221684	 -0.250323
C	 1.865559	 0.531981	 0.018834
H	 3.253496	 -0.884215	 0.482056
C	 0.645745	 -0.382037	 -0.029944
H	 1.773413	 1.294121	 -0.748962
H	 1.888343	 1.055176	 0.978077
C	 -0.679275	 0.379305	 0.025956
H	 0.698998	 -0.976915	 -0.937203
H	 0.693479	 -1.083846	 0.802235
C	 -1.903357	 -0.536963	 -0.023547
H	 -0.726309	 1.082987	 -0.803784
H	 -0.717680	 0.977832	 0.934877
C	 -3.225172	 0.228290	 0.028445
H	 -1.867824	 -1.134999	 -0.931459
H	 -1.860449	 -1.239604	 0.805977
H	 -3.313397	 0.915643	 -0.808262
H	 -4.073500	 -0.448134	 -0.008893
H	 -3.306061	 0.809945	 0.942516

	symmetry c1
}
set optking {
	frozen_dihedral = ("
		6 3 5 9
	")
}

ee = optimize('scf')
oeprop('DIPOLE', 'QUADRUPOLE', 'MULLIKEN_CHARGES')
f=open( 'psi4out.xyz', 'w' )
f.write( "19  " )
f.write( str(ee) + "\n" )
f.write( MOL.save_string_xyz() )
f.close()
--------------------------------------------------------------------------

    Molecular point group: c1
  Charge       = 0
  Multiplicity = 1
  Basis Set: 6-31G*
  Basis Set:
  @DF-RHF Final Energy:  -251.35148728209160
    Total Energy =                       -251.3514872820916821
    Molecular point group: c1
  Basis Set: 6-31G*
  Basis Set:
  Basis Set: 6-31G*
  Basis Set:
  @DF-RHF Final Energy:  -251.35150889311674
    Total Energy =                       -251.3515088931168862
  Basis Set: 6-31G*
  Basis Set:
  Basis Set: 6-31G*
  Basis Set:
  @DF-RHF Final Energy:  -251.35152571957082
    Total Energy =                       -251.3515257195708728
  Basis Set: 6-31G*
  Basis Set:
  Basis Set: 6-31G*
  Basis Set:
  @DF-RHF Final Energy:  -251.35152782224009
    Total Energy =                       -251.3515278222401435
  Basis Set: 6-31G*
  Basis Set:
  Charge       = 0
  Multiplicity = 1
  Basis Set: 6-31G*
  Basis Set:

    Orbital Energies (a.u.)
    -----------------------

    Doubly Occupied:

       1A    -15.532681     2A    -11.239685     3A    -11.213988
       4A    -11.212889     5A    -11.209402     6A    -11.207499
       7A     -1.176741     8A     -1.072994     9A     -0.998406
      10A     -0.900235    11A     -0.813025    12A     -0.789563
      13A     -0.662898    14A     -0.643817    15A     -0.616150
      16A     -0.589833    17A     -0.563279    18A     -0.548158
      19A     -0.531741    20A     -0.497396    21A     -0.480504
      22A     -0.465046    23A     -0.460811    24A     -0.450317
      25A     -0.380921

  @DF-RHF Final Energy:  -251.35152792867407

   => Energetics <=

    Nuclear Repulsion Energy =            245.6250449037305259
    One-Electron Energy =                -825.4371895071303697
    Two-Electron Energy =                 328.4606166747257134
    DFT Exchange-Correlation Energy =       0.0000000000000000
    Empirical Dispersion Energy =           0.0000000000000000
    PCM Polarization Energy =               0.0000000000000000
    EFP Energy =                            0.0000000000000000
    Total Energy =                       -251.3515279286741020
    Molecular point group: c1
  Basis Set: 6-31G*
  Basis Set:

  -Total Gradient:
     Atom            X                  Y                   Z
    ------   -----------------  -----------------  -----------------
       1        0.000008689381     0.000001315970    -0.000004645678
       2       -0.000017364091     0.000002803224    -0.000008309508
       3        0.001098589551    -0.001421469190    -0.001095597208
       4        0.000004014662    -0.000005776466     0.000004348736
       5       -0.001139929507     0.001620443942    -0.000710003568
       6       -0.000759135327     0.000945790257     0.001024134889
       7        0.000006372865    -0.000000217734     0.000018995379
       8        0.000013698089    -0.000007580681    -0.000010687340
       9        0.000795616279    -0.001132705131     0.000769532454
      10       -0.000005165880    -0.000001771425     0.000009487202
      11       -0.000000898772     0.000000548638     0.000015035421
      12       -0.000006591338     0.000001010267     0.000000272908
      13        0.000005463624    -0.000004953811    -0.000004157078
      14       -0.000004144850    -0.000001109498    -0.000017413335
      15       -0.000005400780     0.000001298671     0.000005875424
      16        0.000007341296     0.000001556296     0.000003689542
      17       -0.000000706489     0.000006914239     0.000002974371
      18       -0.000001531266     0.000001420522    -0.000005375721
      19        0.000001082554    -0.000007518093     0.000001843110

  **** Optimization is complete! (in 5 steps) ****
    Final optimized geometry and variables:
    Molecular point group: c1

    Geometry (in Angstrom), charge = 0, multiplicity = 1:

    H            3.884782105806     0.382303062701    -0.202614620075
    N            3.087805558336    -0.224699715100    -0.201870741625
    C            1.867292201204     0.528227855033     0.046543652359
    H            3.238308843031    -0.897968169551     0.525546256477
    C            0.645662077807    -0.382880295554    -0.019557178622
    H            1.785088669253     1.298003827255    -0.714956938541
    H            1.873195359206     1.049016538966     1.007636827907
    C           -0.679313197728     0.376651271086     0.046938096315
    H            0.704927569992    -0.970293770719    -0.931324358286
    H            0.692431649535    -1.096394497962     0.803181675303
    C           -1.902668372484    -0.541341004234     0.015796557881
    H           -0.735686523891     1.075527118972    -0.785985053742
    H           -0.708437781221     0.980047369849     0.953142277714
    C           -3.224831238804     0.222990483790     0.072092604722
    H           -1.873920791189    -1.147110052137    -0.887184422961
    H           -1.852073803860    -1.236623298304     0.851033646527
    H           -3.320754006832     0.902994297907    -0.769715575588
    H           -4.072711579375    -0.454633007947     0.047616612187
    H           -3.298792473393     0.812381587442     0.981798072743

  Mulliken Charges: (a.u.)
   Center  Symbol    Alpha    Beta     Spin     Total
       1     H     0.33247  0.33247  0.00000  0.33506
       2     N     3.92154  3.92154  0.00000 -0.84308
       3     C     3.06003  3.06003  0.00000 -0.12006
       4     H     0.33534  0.33534  0.00000  0.32932
       5     C     3.15324  3.15324  0.00000 -0.30648
       6     H     0.42102  0.42102  0.00000  0.15797
       7     H     0.43494  0.43494  0.00000  0.13013
       8     C     3.15456  3.15456  0.00000 -0.30911
       9     H     0.41226  0.41226  0.00000  0.17547
      10     H     0.42790  0.42790  0.00000  0.14419
      11     C     3.15098  3.15098  0.00000 -0.30195
      12     H     0.42307  0.42307  0.00000  0.15386
      13     H     0.42486  0.42486  0.00000  0.15027
      14     C     3.23936  3.23936  0.00000 -0.47871
      15     H     0.42176  0.42176  0.00000  0.15647
      16     H     0.42334  0.42334  0.00000  0.15332
      17     H     0.42169  0.42169  0.00000  0.15661
      18     H     0.41937  0.41937  0.00000  0.16126
      19     H     0.42227  0.42227  0.00000  0.15546

   Total alpha = 25.00000, Total beta = 25.00000, Total charge =  0.00000
