                              Psi4 1.0.54 Driver

  ==> Input File <==

--------------------------------------------------------------------------
set {
	reference rhf
	basis cc-pvtz
}

set_num_threads( 4 )
memory 2 gb

molecule MOL {
0 1

O	 -0.651652	 -2.672608	 -1.472808
C	 -0.606846	 -1.519868	 -1.756735
C	 -0.881910	 -0.448129	 -0.720509
C	 -0.256748	 -1.061124	 -3.152354
C	 0.376695	 -0.140025	 0.100361
H	 -1.661105	 -0.817541	 -0.065909
H	 -1.239776	 0.456470	 -1.200609
C	 1.630207	 -0.772146	 -0.501001
H	 0.486632	 0.935267	 0.162725
H	 0.248225	 -0.501310	 1.117842
C	 2.907848	 -0.545876	 0.309149
H	 1.772784	 -0.391628	 -1.509394
H	 1.468529	 -1.842059	 -0.599744
C	 3.373802	 0.906639	 0.372125
H	 3.699140	 -1.146831	 -0.127906
H	 2.764321	 -0.923458	 1.318191
H	 3.519798	 1.311927	 -0.623875
H	 4.316899	 0.983758	 0.900700
H	 2.661122	 1.540651	 0.885346
H	 -1.129201	 -0.602102	 -3.606361
H	 0.061169	 -1.900724	 -3.751160
H	 0.522770	 -0.308051	 -3.123643

	symmetry c1
}
set optking {
	frozen_dihedral = ("
		6 3 5 8
	")
}

ee,wfn = optimize('scf', return_wfn=True)
oeprop( wfn, 'DIPOLE', 'QUADRUPOLE', 'MULLIKEN_CHARGES')
f=open( 'psi4out.xyz', 'w' )
f.write( "22  " )
f.write( str(ee) + "\n" )
f.write( MOL.save_string_xyz() )
f.close()
--------------------------------------------------------------------------

    Molecular point group: c1
  Charge       = 0
  Multiplicity = 1
  Basis Set: CC-PVTZ
  Basis Set:
  @DF-RHF Final Energy:  -348.20928933406896
    Total Energy =                       -348.2092893340689557
    Molecular point group: c1
  Basis Set: CC-PVTZ
  Basis Set:
  Basis Set: CC-PVTZ
  Basis Set:
  @DF-RHF Final Energy:  -348.21341901133428
    Total Energy =                       -348.2134190113343948
  Basis Set: CC-PVTZ
  Basis Set:
  Basis Set: CC-PVTZ
  Basis Set:
  @DF-RHF Final Energy:  -348.21201624066072
    Total Energy =                       -348.2120162406608870
  Basis Set: CC-PVTZ
  Basis Set:
  Basis Set: CC-PVTZ
  Basis Set:
  @DF-RHF Final Energy:  -348.21429211859709
    Total Energy =                       -348.2142921185974274
  Basis Set: CC-PVTZ
  Basis Set:
  @DF-RHF Final Energy:  -348.21438300570969
    Total Energy =                       -348.2143830057099194
  Basis Set: CC-PVTZ
  Basis Set:
  @DF-RHF Final Energy:  -348.21440091533827
    Total Energy =                       -348.2144009153387287
  Basis Set: CC-PVTZ
  Basis Set:
  Basis Set: CC-PVTZ
  Basis Set:
  @DF-RHF Final Energy:  -348.21440563309534
    Total Energy =                       -348.2144056330949979
  Basis Set: CC-PVTZ
  Basis Set:
  Basis Set: CC-PVTZ
  Basis Set:
  @DF-RHF Final Energy:  -348.21440816696071
    Total Energy =                       -348.2144081669608227
  Basis Set: CC-PVTZ
  Basis Set:
  Charge       = 0
  Multiplicity = 1
  Basis Set: CC-PVTZ
  Basis Set:

    Orbital Energies (a.u.)
    -----------------------

    Doubly Occupied:

       1A    -20.535841     2A    -11.319643     3A    -11.228290
       4A    -11.227536     5A    -11.226204     6A    -11.217582
       7A    -11.216902     8A    -11.210224     9A     -1.396648
      10A     -1.092648    11A     -1.042334    12A     -0.998546
      13A     -0.940502    14A     -0.860464    15A     -0.791236
      16A     -0.724329    17A     -0.661250    18A     -0.638695
      19A     -0.628465    20A     -0.624191    21A     -0.600634
      22A     -0.583693    23A     -0.563807    24A     -0.545815
      25A     -0.534082    26A     -0.528773    27A     -0.494943
      28A     -0.485371    29A     -0.467412    30A     -0.463444
      31A     -0.455376    32A     -0.398332

  @DF-RHF Final Energy:  -348.21440882096954

   => Energetics <=

    Nuclear Repulsion Energy =            382.1076968363437345
    One-Electron Energy =               -1229.2377905924556671
    Two-Electron Energy =                 498.9156849351423375
    DFT Exchange-Correlation Energy =       0.0000000000000000
    Empirical Dispersion Energy =           0.0000000000000000
    PCM Polarization Energy =               0.0000000000000000
    EFP Energy =                            0.0000000000000000
    Total Energy =                       -348.2144088209695951
    Molecular point group: c1
  Basis Set: CC-PVTZ
  Basis Set:

  -Total Gradient:
     Atom            X                  Y                   Z
    ------   -----------------  -----------------  -----------------
       1       -0.000126638186    -0.000012153589    -0.000067521133
       2       -0.000023118561    -0.000054667344     0.000038755343
       3       -0.000925984914     0.002411921780     0.001096161370
       4        0.000137248177     0.000003093495     0.000055540876
       5        0.000744983207     0.001827805017    -0.001641923489
       6        0.000702422540    -0.002552821397    -0.000432786697
       7       -0.000024333360     0.000004669301    -0.000005072594
       8       -0.000407485412    -0.001615472833     0.000963652033
       9       -0.000004665987     0.000012238931     0.000003316816
      10       -0.000002803762    -0.000002754878     0.000003166503
      11       -0.000021684229    -0.000018120066     0.000000922472
      12       -0.000009267067     0.000002712832     0.000005045755
      13       -0.000016248890    -0.000010741640    -0.000008226569
      14        0.000010502570     0.000006190950     0.000003747749
      15       -0.000007879545    -0.000003903994     0.000004790828
      16        0.000015570354     0.000005705598     0.000018543903
      17       -0.000000311318    -0.000003487569    -0.000001630392
      18        0.000000227749     0.000008164797    -0.000003002536
      19       -0.000010501145     0.000002481944     0.000005892560
      20       -0.000027840822    -0.000032888725    -0.000010400832
      21        0.000024756576     0.000006608428    -0.000022082854
      22       -0.000026947975     0.000015418968    -0.000006889115

  **** Optimization is complete! (in 9 steps) ****
    Final optimized geometry and variables:
    Molecular point group: c1

    Geometry (in Angstrom), charge = 0, multiplicity = 1:

    O           -1.575345449934    -1.806251067042    -0.743046913597
    C           -1.458508507078    -0.650771502859    -0.994000099837
    C           -1.551359661239     0.402713512079     0.097211191847
    C           -1.249051806636    -0.171693740500    -2.410925622388
    C           -0.257264949171     0.592897278561     0.941268081565
    H           -2.349086983018     0.068393272404     0.746334854793
    H           -1.846370789333     1.346702482088    -0.343680919840
    C            1.017374436320    -0.067083571389     0.410392049050
    H           -0.095429322584     1.655439594051     1.065818308648
    H           -0.441931167975     0.197572014796     1.933255609378
    C            2.231974107750     0.124119238762     1.321445660917
    H            1.258329835727     0.320151579367    -0.577111915562
    H            0.841903620438    -1.128949490685     0.291904818739
    C            2.744510619655     1.559087017822     1.419513442673
    H            3.034392368422    -0.505909078972     0.951272071207
    H            1.994076448535    -0.243829144568     2.315819883725
    H            2.983327605606     1.955248997239     0.437545947249
    H            3.646063519089     1.603541018875     2.019515387598
    H            2.019425970108     2.221771856248     1.876384719719
    H           -2.151101204546     0.330081157817    -2.747824579860
    H           -1.042633250460    -1.009045931247    -3.059892254688
    H           -0.443505180754     0.550836557380    -2.462374037968

  Mulliken Charges: (a.u.)
   Center  Symbol    Alpha    Beta     Spin     Total
       1     O     4.18341  4.18341  0.00000 -0.36682
       2     C     2.84937  2.84937  0.00000  0.30126
       3     C     3.10694  3.10694  0.00000 -0.21387
       4     C     3.15432  3.15432  0.00000 -0.30864
       5     C     3.09293  3.09293  0.00000 -0.18586
       6     H     0.43727  0.43727  0.00000  0.12546
       7     H     0.44694  0.44694  0.00000  0.10612
       8     C     3.11487  3.11487  0.00000 -0.22974
       9     H     0.44726  0.44726  0.00000  0.10549
      10     H     0.44722  0.44722  0.00000  0.10557
      11     C     3.09234  3.09234  0.00000 -0.18468
      12     H     0.45220  0.45220  0.00000  0.09560
      13     H     0.43279  0.43279  0.00000  0.13441
      14     C     3.15247  3.15247  0.00000 -0.30494
      15     H     0.44630  0.44630  0.00000  0.10740
      16     H     0.45261  0.45261  0.00000  0.09478
      17     H     0.45551  0.45551  0.00000  0.08898
      18     H     0.44519  0.44519  0.00000  0.10961
      19     H     0.45447  0.45447  0.00000  0.09107
      20     H     0.44717  0.44717  0.00000  0.10566
      21     H     0.43686  0.43686  0.00000  0.12628
      22     H     0.45156  0.45156  0.00000  0.09687

   Total alpha = 32.00000, Total beta = 32.00000, Total charge = -0.00000

*** Psi4 exiting successfully. Buy a developer a beer!
