                              Psi4 1.0.54 Driver

  ==> Input File <==

--------------------------------------------------------------------------
set {
	reference rhf
	basis cc-pvtz
}

set_num_threads( 4 )
memory 2 gb

molecule MOL {
0 1

H	 1.404098	 -1.021244	 2.158279
O	 0.726281	 -0.466050	 1.820080
C	 1.135873	 0.113391	 0.608264
C	 0.027642	 1.012027	 0.090274
H	 1.340930	 -0.658145	 -0.129606
H	 2.052648	 0.679167	 0.749270
C	 -1.138737	 0.285728	 -0.581921
H	 0.464661	 1.708096	 -0.618252
H	 -0.340737	 1.603071	 0.925246
C	 -1.933983	 -0.631436	 0.343653
H	 -0.763151	 -0.285569	 -1.422081
H	 -1.808359	 1.035291	 -0.992333
H	 -2.789188	 -1.049673	 -0.174718
H	 -1.335629	 -1.461368	 0.700418
H	 -2.305435	 -0.092167	 1.209725

	symmetry c1
}
set optking {
	frozen_dihedral = ("
		2 3 4 8
	")
}

ee,wfn = optimize('scf', return_wfn=True)
oeprop( wfn, 'DIPOLE', 'QUADRUPOLE', 'MULLIKEN_CHARGES')
f=open( 'psi4out.xyz', 'w' )
f.write( "15  " )
f.write( str(ee) + "\n" )
f.write( MOL.save_string_xyz() )
f.close()
--------------------------------------------------------------------------

    Molecular point group: c1
  Charge       = 0
  Multiplicity = 1
  Basis Set: CC-PVTZ
  Basis Set:
  @DF-RHF Final Energy:  -232.23550415928145
    Total Energy =                       -232.2355041592813336
    Molecular point group: c1
  Basis Set: CC-PVTZ
  Basis Set:
  Basis Set: CC-PVTZ
  Basis Set:
  @DF-RHF Final Energy:  -232.23586490657507
    Total Energy =                       -232.2358649065751024
  Basis Set: CC-PVTZ
  Basis Set:
  Basis Set: CC-PVTZ
  Basis Set:
  @DF-RHF Final Energy:  -232.23593770035060
    Total Energy =                       -232.2359377003507461
  Basis Set: CC-PVTZ
  Basis Set:
  Basis Set: CC-PVTZ
  Basis Set:
  @DF-RHF Final Energy:  -232.23594838983681
    Total Energy =                       -232.2359483898368353
  Basis Set: CC-PVTZ
  Basis Set:
  Basis Set: CC-PVTZ
  Basis Set:
  @DF-RHF Final Energy:  -232.23594972832677
    Total Energy =                       -232.2359497283266592
  Basis Set: CC-PVTZ
  Basis Set:
  Charge       = 0
  Multiplicity = 1
  Basis Set: CC-PVTZ
  Basis Set:

    Orbital Energies (a.u.)
    -----------------------

    Doubly Occupied:

       1A    -20.546718     2A    -11.266773     3A    -11.211568
       4A    -11.210457     5A    -11.195274     6A     -1.364507
       7A     -1.064226     8A     -0.971292     9A     -0.864191
      10A     -0.779672    11A     -0.706310    12A     -0.648033
      13A     -0.606522    14A     -0.577874    15A     -0.554289
      16A     -0.540269    17A     -0.507624    18A     -0.473873
      19A     -0.468019    20A     -0.454161    21A     -0.429671

  @DF-RHF Final Energy:  -232.23594996773241

   => Energetics <=

    Nuclear Repulsion Energy =            192.3069347723623252
    One-Electron Energy =                -696.2031230591014719
    Two-Electron Energy =                 271.6602383190066234
    DFT Exchange-Correlation Energy =       0.0000000000000000
    Empirical Dispersion Energy =           0.0000000000000000
    PCM Polarization Energy =               0.0000000000000000
    EFP Energy =                            0.0000000000000000
    Total Energy =                       -232.2359499677325516
    Molecular point group: c1
  Basis Set: CC-PVTZ
  Basis Set:

  -Total Gradient:
     Atom            X                  Y                   Z
    ------   -----------------  -----------------  -----------------
       1       -0.000000840057     0.000003461931    -0.000001069570
       2        0.000328764859     0.000709632196     0.000509077958
       3       -0.000399577312    -0.000787796719    -0.000468161777
       4       -0.000128393464    -0.000686296243    -0.000948623132
       5        0.000002676547     0.000000017219    -0.000009573849
       6       -0.000013979447     0.000002282945    -0.000006597783
       7        0.000037738074     0.000009551743     0.000007349837
       8        0.000181933575     0.000751304961     0.000900005942
       9       -0.000004154051     0.000003338879     0.000006109925
      10       -0.000010743872     0.000000186921    -0.000005887188
      11       -0.000003299513    -0.000002188505     0.000006899754
      12        0.000005503741     0.000004968996     0.000001964030
      13        0.000004651188    -0.000001723560     0.000005543796
      14        0.000000213106    -0.000008167295     0.000001780021
      15       -0.000000493373     0.000001426531     0.000001182039

  **** Optimization is complete! (in 6 steps) ****
    Final optimized geometry and variables:
    Molecular point group: c1

    Geometry (in Angstrom), charge = 0, multiplicity = 1:

    H            1.675039983955    -1.090759673596     1.626955514807
    O            0.977396338697    -0.542745281548     1.318211517063
    C            1.357732694419     0.092130310291     0.123954238262
    C            0.226601986372     0.976647621505    -0.375325504258
    H            1.619118593926    -0.643475631258    -0.634364874174
    H            2.236836346605     0.706853835081     0.299349989210
    C           -0.925247001016     0.261132306633    -1.084211827525
    H            0.659277855051     1.700046731302    -1.060375142652
    H           -0.151589238456     1.544538993300     0.469476106083
    C           -1.787189057933    -0.634696223691    -0.198002753507
    H           -0.523999673487    -0.323757358597    -1.908288724834
    H           -1.559899957202     1.017759546939    -1.535930886537
    H           -2.610566864088    -1.050463191452    -0.768625524394
    H           -1.217650237474    -1.452043196773     0.221355674561
    H           -2.206446135441    -0.072732748228     0.629618441916

  Mulliken Charges: (a.u.)
   Center  Symbol    Alpha    Beta     Spin     Total
       1     H     0.39577  0.39577  0.00000  0.20847
       2     O     4.19801  4.19801  0.00000 -0.39603
       3     C     2.97581  2.97581  0.00000  0.04837
       4     C     3.09523  3.09523  0.00000 -0.19046
       5     H     0.47299  0.47299  0.00000  0.05403
       6     H     0.46254  0.46254  0.00000  0.07492
       7     C     3.09006  3.09006  0.00000 -0.18012
       8     H     0.44890  0.44890  0.00000  0.10220
       9     H     0.45125  0.45125  0.00000  0.09749
      10     C     3.14153  3.14153  0.00000 -0.28306
      11     H     0.45771  0.45771  0.00000  0.08458
      12     H     0.45082  0.45082  0.00000  0.09836
      13     H     0.45293  0.45293  0.00000  0.09413
      14     H     0.45048  0.45048  0.00000  0.09904
      15     H     0.45596  0.45596  0.00000  0.08808

   Total alpha = 21.00000, Total beta = 21.00000, Total charge = -0.00000

*** Psi4 exiting successfully. Buy a developer a beer!
