  ==> Input File <==

--------------------------------------------------------------------------
set {
	reference rhf
	basis cc-pvtz
}

set_num_threads( 4 )
memory 2 gb

molecule MOL {
0 1

H	 1.166964	 -1.062386	 0.758429
O	 1.324748	 -0.612467	 -0.052206
C	 0.706474	 0.636793	 -0.025501
C	 -0.015377	 0.950561	 1.254387
H	 -0.001602	 0.646154	 -0.845771
H	 1.424695	 1.429349	 -0.227270
C	 -0.188015	 0.124606	 2.262505
H	 -0.413752	 1.950195	 1.311647
H	 0.178847	 -0.883702	 2.236039
H	 -0.716626	 0.430275	 3.145226

	symmetry c1
}
set optking {
	frozen_dihedral = ("
		5 3 2 1
	")
}

ee = optimize('scf')
oeprop('DIPOLE', 'QUADRUPOLE', 'MULLIKEN_CHARGES')
f=open( 'psi4out.xyz', 'w' )
f.write( "10  " )
f.write( str(ee) + "\n" )
f.write( MOL.save_string_xyz() )
f.close()
--------------------------------------------------------------------------

    Molecular point group: c1
  Charge       = 0
  Multiplicity = 1
  Basis Set: CC-PVTZ
  Basis Set:
  @DF-RHF Final Energy:  -191.99337317156170
    Total Energy =                       -191.9933731715617000
    Molecular point group: c1
  Basis Set: CC-PVTZ
  Basis Set:
  Basis Set: CC-PVTZ
  Basis Set:
  @DF-RHF Final Energy:  -191.99425114218741
    Total Energy =                       -191.9942511421874372
  Basis Set: CC-PVTZ
  Basis Set:
  Basis Set: CC-PVTZ
  Basis Set:
  @DF-RHF Final Energy:  -191.99465459298466
    Total Energy =                       -191.9946545929846309
  Basis Set: CC-PVTZ
  Basis Set:
  Basis Set: CC-PVTZ
  Basis Set:
  @DF-RHF Final Energy:  -191.99469727844590
    Total Energy =                       -191.9946972784459263
  Basis Set: CC-PVTZ
  Basis Set:
  Basis Set: CC-PVTZ
  Basis Set:
  @DF-RHF Final Energy:  -191.99473033184361
    Total Energy =                       -191.9947303318435843
  Basis Set: CC-PVTZ
  Basis Set:
  Basis Set: CC-PVTZ
  Basis Set:
  @DF-RHF Final Energy:  -191.99474535437676
    Total Energy =                       -191.9947453543767324
  Basis Set: CC-PVTZ
  Basis Set:
  Basis Set: CC-PVTZ
  Basis Set:
  @DF-RHF Final Energy:  -191.99474681554824
    Total Energy =                       -191.9947468155480408
  Basis Set: CC-PVTZ
  Basis Set:
  Charge       = 0
  Multiplicity = 1
  Basis Set: CC-PVTZ
  Basis Set:

    Orbital Energies (a.u.)
    -----------------------

    Doubly Occupied:

       1A    -20.550978     2A    -11.279111     3A    -11.241514
       4A    -11.227004     5A     -1.372768     6A     -1.069866
       7A     -0.940131     8A     -0.779402     9A     -0.695314
      10A     -0.655642    11A     -0.638345    12A     -0.573917
      13A     -0.555963    14A     -0.486984    15A     -0.458369
      16A     -0.375295

  @DF-RHF Final Energy:  -191.99474692590655

   => Energetics <=

    Nuclear Repulsion Energy =            119.3801538454657702
    One-Electron Energy =                -496.9485967032973122
    Two-Electron Energy =                 185.5736959319249308
    DFT Exchange-Correlation Energy =       0.0000000000000000
    Empirical Dispersion Energy =           0.0000000000000000
    PCM Polarization Energy =               0.0000000000000000
    EFP Energy =                            0.0000000000000000
    Total Energy =                       -191.9947469259066111
    Molecular point group: c1
  Basis Set: CC-PVTZ
  Basis Set:

  -Total Gradient:
     Atom            X                  Y                   Z
    ------   -----------------  -----------------  -----------------
       1        0.000706890734     0.000300616766     0.000409531670
       2       -0.000745189636    -0.000294490501    -0.000597761797
       3       -0.000538165415    -0.000319975599     0.000577784167
       4        0.000033110356     0.000011225386     0.000018233567
       5        0.000557019110     0.000294233190    -0.000402302874
       6       -0.000004273812     0.000012030734     0.000007334768
       7        0.000014307927     0.000005901643     0.000008915784
       8       -0.000007115679    -0.000001188744    -0.000006891668
       9       -0.000005495563    -0.000005438859    -0.000009648687
      10       -0.000011088021    -0.000002914017    -0.000005194930

  **** Optimization is complete! (in 8 steps) ****
    Final optimized geometry and variables:
    Molecular point group: c1

    Geometry (in Angstrom), charge = 0, multiplicity = 1:

    H            0.619323602344    -1.374931841671    -0.176097993957
    O            0.817738186831    -0.846794543884    -0.924484932783
    C            0.221267837195     0.410022627762    -0.827678199006
    C           -0.540232091010     0.693075768131     0.433479354389
    H           -0.451288291343     0.543965760642    -1.670486741333
    H            0.994712022494     1.166648567936    -0.929638875677
    C           -0.661461294726    -0.074406070892     1.493742288817
    H           -1.028077437466     1.653315152080     0.432958907773
    H           -0.202061934484    -1.042334642711     1.582115049762
    H           -1.236947360939     0.244117636808     2.341320998510

  Mulliken Charges: (a.u.)
   Center  Symbol    Alpha    Beta     Spin     Total
       1     H     0.38816  0.38816  0.00000  0.22367
       2     O     4.20297  4.20297  0.00000 -0.40594
       3     C     2.92906  2.92906  0.00000  0.14189
       4     C     3.07367  3.07367  0.00000 -0.14735
       5     H     0.47112  0.47112  0.00000  0.05775
       6     H     0.46952  0.46952  0.00000  0.06096
       7     C     3.17524  3.17524  0.00000 -0.35048
       8     H     0.42230  0.42230  0.00000  0.15541
       9     H     0.44307  0.44307  0.00000  0.11387
      10     H     0.42488  0.42488  0.00000  0.15023

   Total alpha = 16.00000, Total beta = 16.00000, Total charge = -0.00000
