                              Psi4 1.0.54 Driver

  ==> Input File <==

--------------------------------------------------------------------------
set {
	reference rhf
	basis cc-pvtz
}

set_num_threads( 4 )
memory 2 gb

molecule MOL {
0 1

O	 1.224258	 1.326665	 0.398958
C	 0.860843	 0.273204	 -0.013120
C	 -0.623368	 -0.117453	 -0.005652
C	 1.877049	 -0.713798	 -0.552728
C	 -0.892588	 -1.253841	 -1.002900
C	 -1.473463	 1.100646	 -0.372896
C	 -0.981836	 -0.579025	 1.418506
H	 -0.609333	 -0.970024	 -2.010649
H	 -1.950451	 -1.487353	 -1.013175
H	 -0.360848	 -2.161259	 -0.746463
H	 -1.232203	 1.461623	 -1.364827
H	 -2.524364	 0.834451	 -0.354500
H	 -1.312381	 1.914833	 0.318657
H	 -2.035706	 -0.826342	 1.468082
H	 -0.425078	 -1.458934	 1.716857
H	 -0.788494	 0.205047	 2.140903
H	 1.860309	 -0.685349	 -1.636551
H	 2.858823	 -0.421273	 -0.213584
H	 1.669200	 -1.730870	 -0.250082

	symmetry c1
}
set optking {
	frozen_dihedral = ("
		1 2 3 5
	")
}

ee,wfn = optimize('scf', return_wfn=True)
oeprop( wfn, 'DIPOLE', 'QUADRUPOLE', 'MULLIKEN_CHARGES')
f=open( 'psi4out.xyz', 'w' )
f.write( "19  " )
f.write( str(ee) + "\n" )
f.write( MOL.save_string_xyz() )
f.close()
--------------------------------------------------------------------------

    Molecular point group: c1
  Charge       = 0
  Multiplicity = 1
  Basis Set: CC-PVTZ
  Basis Set:
  @DF-RHF Final Energy:  -309.17235236344021
    Total Energy =                       -309.1723523634403250
    Molecular point group: c1
  Basis Set: CC-PVTZ
  Basis Set:
  Basis Set: CC-PVTZ
  Basis Set:
  @DF-RHF Final Energy:  -309.17157021866319
    Total Energy =                       -309.1715702186634189
  Basis Set: CC-PVTZ
  Basis Set:
  Basis Set: CC-PVTZ
  Basis Set:
  @DF-RHF Final Energy:  -309.17238417725213
    Total Energy =                       -309.1723841772521268
  Basis Set: CC-PVTZ
  Basis Set:
  Basis Set: CC-PVTZ
  Basis Set:
  @DF-RHF Final Energy:  -309.17350026308054
    Total Energy =                       -309.1735002630804843
  Basis Set: CC-PVTZ
  Basis Set:
  @DF-RHF Final Energy:  -309.17338438175983
    Total Energy =                       -309.1733843817597176
  @DF-RHF Final Energy:  -309.17304062994327
    Total Energy =                       -309.1730406299434435
  Basis Set: CC-PVTZ
  Basis Set:
  @DF-RHF Final Energy:  -309.17353964009624
    Total Energy =                       -309.1735396400962941
  Basis Set: CC-PVTZ
  Basis Set:
  Basis Set: CC-PVTZ
  Basis Set:
  @DF-RHF Final Energy:  -309.17352642633944
    Total Energy =                       -309.1735264263393219
  Basis Set: CC-PVTZ
  Basis Set:
  Basis Set: CC-PVTZ
  Basis Set:
  @DF-RHF Final Energy:  -309.17358008741593
    Total Energy =                       -309.1735800874157576
  Basis Set: CC-PVTZ
  Basis Set:
  Charge       = 0
  Multiplicity = 1
  Basis Set: CC-PVTZ
  Basis Set:

    Orbital Energies (a.u.)
    -----------------------

    Doubly Occupied:

       1A    -20.536634     2A    -11.318287     3A    -11.245579
       4A    -11.225879     5A    -11.220471     6A    -11.219760
       7A    -11.209233     8A     -1.398260     9A     -1.109880
      10A     -1.004326    11A     -0.945062    12A     -0.937922
      13A     -0.834638    14A     -0.705586    15A     -0.666900
      16A     -0.634072    17A     -0.623329    18A     -0.592427
      19A     -0.588754    20A     -0.570532    21A     -0.549898
      22A     -0.546671    23A     -0.524929    24A     -0.514223
      25A     -0.503210    26A     -0.473153    27A     -0.464244
      28A     -0.393931

  @DF-RHF Final Energy:  -309.17358078179012

   => Energetics <=

    Nuclear Repulsion Energy =            326.9142456840879163
    One-Electron Energy =               -1067.0600653198180225
    Two-Electron Energy =                 430.9722388539397571
    DFT Exchange-Correlation Energy =       0.0000000000000000
    Empirical Dispersion Energy =           0.0000000000000000
    PCM Polarization Energy =               0.0000000000000000
    EFP Energy =                            0.0000000000000000
    Total Energy =                       -309.1735807817902923
    Molecular point group: c1
  Basis Set: CC-PVTZ
  Basis Set:

  -Total Gradient:
     Atom            X                  Y                   Z
    ------   -----------------  -----------------  -----------------
       1        0.000036851886    -0.000563249248     0.001271588104
       2       -0.000093214184     0.000514030989    -0.001387406643
       3       -0.000191841068     0.000738414649    -0.000495262662
       4       -0.000051861554    -0.000002692769     0.000006682930
       5        0.000227199928    -0.000732489237     0.000749362135
       6        0.000081074326    -0.000025582728    -0.000004811732
       7        0.000026068464    -0.000027532647    -0.000033157211
       8        0.000031722813     0.000060537440    -0.000052475370
       9       -0.000053948248     0.000001121542     0.000031245759
      10        0.000085164085    -0.000050201623     0.000031899299
      11       -0.000022458250     0.000031156888    -0.000086485203
      12       -0.000088663907    -0.000008245324     0.000062093596
      13        0.000047301227     0.000113243225     0.000012062213
      14       -0.000010667617     0.000008819263    -0.000023338184
      15        0.000008274930    -0.000026859345    -0.000004680715
      16        0.000036276939    -0.000003844854    -0.000035891332
      17       -0.000001200266    -0.000025175342    -0.000063979293
      18       -0.000021603175     0.000008233990     0.000008039381
      19       -0.000044476326    -0.000009684870     0.000014514928

  **** Optimization is complete! (in 10 steps) ****
    Final optimized geometry and variables:
    Molecular point group: c1

    Geometry (in Angstrom), charge = 0, multiplicity = 1:

    O            1.163826313192     1.331722860453     0.503128383421
    C            0.857823589748     0.288971997775     0.021883567953
    C           -0.618965210557    -0.137113583746    -0.028792575533
    C            1.927832002071    -0.655791534652    -0.480485570625
    C           -0.893151462680    -1.223189465698    -1.075617666763
    C           -1.485185134013     1.092397210740    -0.321228935745
    C           -0.952562923330    -0.683704724545     1.371493015456
    H           -0.641916065010    -0.888679062247    -2.076148809588
    H           -1.947811839412    -1.471350921514    -1.071685369118
    H           -0.344543177243    -2.135203679352    -0.877476980721
    H           -1.274689091528     1.493386035357    -1.306673285597
    H           -2.534702020743     0.821921496236    -0.288090251743
    H           -1.305913331605     1.874862840732     0.400692822696
    H           -1.989582232374    -0.996637074459     1.409030872013
    H           -0.340113993605    -1.543477806436     1.622303644264
    H           -0.795851709533     0.074621980642     2.127039941417
    H            1.831418002467    -0.807248352829    -1.548851963264
    H            2.895858942715    -0.232626251246    -0.262216524507
    H            1.839117124796    -1.626656074121    -0.007732090429

  Mulliken Charges: (a.u.)
   Center  Symbol    Alpha    Beta     Spin     Total
       1     O     4.18027  4.18027  0.00000 -0.36054
       2     C     2.84776  2.84776  0.00000  0.30447
       3     C     3.00617  3.00617  0.00000 -0.01233
       4     C     3.16437  3.16437  0.00000 -0.32874
       5     C     3.16542  3.16542  0.00000 -0.33083
       6     C     3.15291  3.15291  0.00000 -0.30582
       7     C     3.15455  3.15455  0.00000 -0.30909
       8     H     0.44476  0.44476  0.00000  0.11048
       9     H     0.44260  0.44260  0.00000  0.11481
      10     H     0.44563  0.44563  0.00000  0.10875
      11     H     0.44992  0.44992  0.00000  0.10016
      12     H     0.45128  0.45128  0.00000  0.09743
      13     H     0.43493  0.43493  0.00000  0.13014
      14     H     0.44781  0.44781  0.00000  0.10439
      15     H     0.44852  0.44852  0.00000  0.10296
      16     H     0.43847  0.43847  0.00000  0.12307
      17     H     0.44652  0.44652  0.00000  0.10697
      18     H     0.43172  0.43172  0.00000  0.13655
      19     H     0.44641  0.44641  0.00000  0.10717

   Total alpha = 28.00000, Total beta = 28.00000, Total charge = -0.00000

*** Psi4 exiting successfully. Buy a developer a beer!
