  ==> Input File <==

--------------------------------------------------------------------------
set {
	reference rhf
	basis 6-31G*
}

set_num_threads( 4 )
memory 2 gb

molecule MOL {
0 1

H	 -0.996800	 0.602478	 -0.843988
N	 -0.712432	 0.000013	 -0.096310
C	 0.734192	 -0.000004	 0.040609
H	 -1.046513	 -0.917347	 -0.319242
H	 1.139899	 -0.873598	 -0.456463
H	 1.139939	 0.873831	 -0.456100
H	 1.096456	 -0.000300	 1.069655

	symmetry c1
}
set optking {
	frozen_dihedral = ("
		1 2 3 7
	")
}

ee = optimize('scf')
oeprop('DIPOLE', 'QUADRUPOLE', 'MULLIKEN_CHARGES')
f=open( 'psi4out.xyz', 'w' )
f.write( "7  " )
f.write( str(ee) + "\n" )
f.write( MOL.save_string_xyz() )
f.close()
--------------------------------------------------------------------------

    Molecular point group: c1
  Charge       = 0
  Multiplicity = 1
  Basis Set: 6-31G*
  Basis Set:
  @DF-RHF Final Energy:   -95.20544727849587
    Total Energy =                        -95.2054472784958961
    Molecular point group: c1
  Basis Set: 6-31G*
  Basis Set:
  Basis Set: 6-31G*
  Basis Set:
  @DF-RHF Final Energy:   -95.20689947228001
    Total Energy =                        -95.2068994722800142
  Basis Set: 6-31G*
  Basis Set:
  Basis Set: 6-31G*
  Basis Set:
  @DF-RHF Final Energy:   -95.20707617258637
    Total Energy =                        -95.2070761725863406
  Basis Set: 6-31G*
  Basis Set:
  Basis Set: 6-31G*
  Basis Set:
  @DF-RHF Final Energy:   -95.20708242396420
    Total Energy =                        -95.2070824239642093
  Basis Set: 6-31G*
  Basis Set:
  Charge       = 0
  Multiplicity = 1
  Basis Set: 6-31G*
  Basis Set:

    Orbital Energies (a.u.)
    -----------------------

    Doubly Occupied:

       1A    -15.531612     2A    -11.237166     3A     -1.167161
       4A     -0.896967     5A     -0.665379     6A     -0.599841
       7A     -0.560287     8A     -0.517348     9A     -0.378203

  @DF-RHF Final Energy:   -95.20708312020599

   => Energetics <=

    Nuclear Repulsion Energy =             42.2858138304727547
    One-Electron Energy =                -211.8778648541367602
    Two-Electron Energy =                  74.3849679034579623
    DFT Exchange-Correlation Energy =       0.0000000000000000
    Empirical Dispersion Energy =           0.0000000000000000
    PCM Polarization Energy =               0.0000000000000000
    EFP Energy =                            0.0000000000000000
    Total Energy =                        -95.2070831202060361
    Molecular point group: c1
  Basis Set: 6-31G*
  Basis Set:

  -Total Gradient:
     Atom            X                  Y                   Z
    ------   -----------------  -----------------  -----------------
       1       -0.000144295984     0.002338626122     0.001942292392
       2        0.000084128993    -0.002195383118    -0.002465175931
       3        0.000026790291    -0.002987491006     0.000561865615
       4        0.000018455508     0.000020266955    -0.000000651757
       5       -0.000007039984     0.000031311382     0.000004575369
       6       -0.000017826007     0.000001180025    -0.000002631250
       7        0.000039787184     0.002791489640    -0.000040274438

  **** Optimization is complete! (in 5 steps) ****
    Final optimized geometry and variables:
    Molecular point group: c1

    Geometry (in Angstrom), charge = 0, multiplicity = 1:

    H           -1.020367723237     0.612838103981    -0.775789221979
    N           -0.718317246983     0.018593468349    -0.032303645321
    C            0.732560498027    -0.002064526479     0.086989264048
    H           -1.099083024561    -0.892433479927    -0.183744487945
    H            1.202319610653    -0.852959478050    -0.401855446506
    H            1.147873253117     0.896210741284    -0.356657133765
    H            1.027336966949     0.002581913874     1.131118188891

  Mulliken Charges: (a.u.)
   Center  Symbol    Alpha    Beta     Spin     Total
       1     H     0.33097  0.33097  0.00000  0.33806
       2     N     3.92540  3.92540  0.00000 -0.85079
       3     C     3.14462  3.14462  0.00000 -0.28923
       4     H     0.33110  0.33110  0.00000  0.33780
       5     H     0.42919  0.42919  0.00000  0.14163
       6     H     0.42191  0.42191  0.00000  0.15617
       7     H     0.41682  0.41682  0.00000  0.16636

   Total alpha =  9.00000, Total beta =  9.00000, Total charge =  0.00000
