  ==> Input File <==

--------------------------------------------------------------------------
set {
	reference rhf
	basis 6-31G*
}

set_num_threads( 4 )
memory 2 gb

molecule MOL {
0 1

H	 0.781139	 -0.407796	 2.321462
C	 -0.178995	 -0.448768	 1.825711
O	 0.000000	 0.000000	 0.521119
H	 -0.543437	 -1.474619	 1.848070
H	 -0.883459	 0.178268	 2.369995
C	 -1.165642	 0.000000	 -0.238270
H	 -1.228672	 0.883184	 -0.872070
H	 -2.003012	 0.000000	 0.445920
H	 -1.228672	 -0.883184	 -0.872070

	symmetry c1
}
set optking {
	frozen_dihedral = ("
		2 3 6 7
	")
}

ee = optimize('scf')
oeprop('DIPOLE', 'QUADRUPOLE', 'MULLIKEN_CHARGES')
f=open( 'psi4out.xyz', 'w' )
f.write( "9  " )
f.write( str(ee) + "\n" )
f.write( MOL.save_string_xyz() )
f.close()
--------------------------------------------------------------------------

    Molecular point group: c1
  Charge       = 0
  Multiplicity = 1
  Basis Set: 6-31G*
  Basis Set:
  @DF-RHF Final Energy:  -154.06040307699266
    Total Energy =                       -154.0604030769927135
    Molecular point group: c1
  Basis Set: 6-31G*
  Basis Set:
  Basis Set: 6-31G*
  Basis Set:
  @DF-RHF Final Energy:  -154.06129792896496
    Total Energy =                       -154.0612979289649616
  Basis Set: 6-31G*
  Basis Set:
  Basis Set: 6-31G*
  Basis Set:
  @DF-RHF Final Energy:  -154.06156333994392
    Total Energy =                       -154.0615633399439730
  Basis Set: 6-31G*
  Basis Set:
  Charge       = 0
  Multiplicity = 1
  Basis Set: 6-31G*
  Basis Set:

    Orbital Energies (a.u.)
    -----------------------

    Doubly Occupied:

       1A    -20.553161     2A    -11.265548     3A    -11.264739
       4A     -1.375330     5A     -0.974906     6A     -0.872914
       7A     -0.658398     8A     -0.652722     9A     -0.643288
      10A     -0.558548    11A     -0.527133    12A     -0.472956
      13A     -0.413382

  @DF-RHF Final Energy:  -154.06156499563741

   => Energetics <=

    Nuclear Repulsion Energy =             84.5516782153221698
    One-Electron Energy =                -376.7604367879939673
    Two-Electron Energy =                 138.1471935770343862
    DFT Exchange-Correlation Energy =       0.0000000000000000
    Empirical Dispersion Energy =           0.0000000000000000
    PCM Polarization Energy =               0.0000000000000000
    EFP Energy =                            0.0000000000000000
    Total Energy =                       -154.0615649956374114
    Molecular point group: c1
  Basis Set: 6-31G*
  Basis Set:

  -Total Gradient:
     Atom            X                  Y                   Z
    ------   -----------------  -----------------  -----------------
       1        0.000014128458     0.000018243175    -0.000048425207
       2       -0.000523702868     0.002106770660     0.000658466697
       3        0.000274631523    -0.002666234878    -0.000572474892
       4        0.000006039354     0.000020706452    -0.000025832958
       5       -0.000010476394     0.000014123838    -0.000033751477
       6        0.001467155489    -0.000875287217    -0.002094726851
       7       -0.001235905228     0.001373072942     0.002087443853
       8       -0.000040517671     0.000003529545     0.000022453897
       9        0.000048647336     0.000005075483     0.000006846937

  **** Optimization is complete! (in 4 steps) ****
    Final optimized geometry and variables:
    Molecular point group: c1

    Geometry (in Angstrom), charge = 0, multiplicity = 1:

    H            1.269533124693    -0.235642118257     1.599480253009
    C            0.300178423666    -0.292806339660     1.123455276652
    O            0.452870135576     0.149760251588    -0.187261467969
    H           -0.048847453929    -1.323185662118     1.165354133634
    H           -0.399655268894     0.331423819821     1.675408568197
    C           -0.713607765531     0.154288695218    -0.953820015099
    H           -0.720487914708     1.049164161910    -1.563688048141
    H           -1.603983346214     0.172578794980    -0.330069520401
    H           -0.761304485907    -0.721837005324    -1.594327995362

  Mulliken Charges: (a.u.)
   Center  Symbol    Alpha    Beta     Spin     Total
       1     H     0.41258  0.41258  0.00000  0.17484
       2     C     3.07912  3.07912  0.00000 -0.15825
       3     O     4.29911  4.29911  0.00000 -0.59821
       4     H     0.43042  0.43042  0.00000  0.13915
       5     H     0.42972  0.42972  0.00000  0.14055
       6     C     3.07784  3.07784  0.00000 -0.15569
       7     H     0.41597  0.41597  0.00000  0.16807
       8     H     0.43115  0.43115  0.00000  0.13769
       9     H     0.42407  0.42407  0.00000  0.15185

   Total alpha = 13.00000, Total beta = 13.00000, Total charge = -0.00000
