                              Psi4 1.0.54 Driver

  ==> Input File <==

--------------------------------------------------------------------------
set {
	reference rhf
	basis cc-pvtz
}

set_num_threads( 4 )
memory 2 gb

molecule MOL {
0 1

O	 -2.440701	 -0.934798	 -0.415053
C	 -1.922978	 0.063265	 -0.045005
C	 -2.632749	 1.372204	 0.158357
O	 -0.637375	 0.157174	 0.243149
H	 -2.187724	 2.129143	 -0.474664
H	 -3.677681	 1.257276	 -0.079438
H	 -2.516788	 1.693160	 1.185542
C	 0.162530	 -1.009518	 0.097799
C	 1.587210	 -0.664190	 0.477086
H	 0.096803	 -1.356267	 -0.924704
H	 -0.233803	 -1.785900	 0.736810
C	 2.256770	 0.342732	 -0.454344
H	 2.154716	 -1.590834	 0.479041
H	 1.598751	 -0.289614	 1.496104
C	 1.598384	 0.400747	 -1.828673
H	 2.224278	 1.327849	 0.003463
H	 3.304669	 0.088722	 -0.564928
H	 2.089961	 1.125161	 -2.467390
H	 0.553243	 0.682380	 -1.752800
H	 1.644713	 -0.562675	 -2.325351

	symmetry c1
}
set optking {
	frozen_dihedral = ("
		16 12 9 8
	")
}

ee,wfn = optimize('scf', return_wfn=True)
oeprop( wfn, 'DIPOLE', 'QUADRUPOLE', 'MULLIKEN_CHARGES')
f=open( 'psi4out.xyz', 'w' )
f.write( "20  " )
f.write( str(ee) + "\n" )
f.write( MOL.save_string_xyz() )
f.close()
--------------------------------------------------------------------------

    Molecular point group: c1
  Charge       = 0
  Multiplicity = 1
  Basis Set: CC-PVTZ
  Basis Set:
  @DF-RHF Final Energy:  -384.07754122490968
    Total Energy =                       -384.0775412249095098
    Molecular point group: c1
  Basis Set: CC-PVTZ
  Basis Set:
  Basis Set: CC-PVTZ
  Basis Set:
  @DF-RHF Final Energy:  -383.94451385722448
    Total Energy =                       -383.9445138572243650
  Basis Set: CC-PVTZ
  Basis Set:
  Basis Set: CC-PVTZ
  Basis Set:
  @DF-RHF Final Energy:  -384.04432887386071
    Total Energy =                       -384.0443288738601950
  Basis Set: CC-PVTZ
  Basis Set:
  Basis Set: CC-PVTZ
  Basis Set:
  @DF-RHF Final Energy:  -384.07871220269561
    Total Energy =                       -384.0787122026955558
  Basis Set: CC-PVTZ
  Basis Set:
  @DF-RHF Final Energy:  -384.08064261115874
    Total Energy =                       -384.0806426111587371
  @DF-RHF Final Energy:  -384.08096896843915
    Total Energy =                       -384.0809689684391515
  @DF-RHF Final Energy:  -384.07953652332719
    Total Energy =                       -384.0795365233278744
  Basis Set: CC-PVTZ
  Basis Set:
  @DF-RHF Final Energy:  -384.08108459270613
    Total Energy =                       -384.0810845927057926
  Basis Set: CC-PVTZ
  Basis Set:
  Basis Set: CC-PVTZ
  Basis Set:
  @DF-RHF Final Energy:  -384.08109466171067
    Total Energy =                       -384.0810946617103809
  Basis Set: CC-PVTZ
  Basis Set:
  Basis Set: CC-PVTZ
  Basis Set:
  @DF-RHF Final Energy:  -384.08109663581678
    Total Energy =                       -384.0810966358164933
  Basis Set: CC-PVTZ
  Basis Set:
  Charge       = 0
  Multiplicity = 1
  Basis Set: CC-PVTZ
  Basis Set:

    Orbital Energies (a.u.)
    -----------------------

    Doubly Occupied:

       1A    -20.593695     2A    -20.532469     3A    -11.366324
       4A    -11.279370     5A    -11.231518     6A    -11.224205
       7A    -11.220336     8A    -11.211183     9A     -1.470364
      10A     -1.364603    11A     -1.084623    12A     -1.026992
      13A     -0.980455    14A     -0.894536    15A     -0.804515
      16A     -0.771315    17A     -0.692758    18A     -0.690990
      19A     -0.665850    20A     -0.627485    21A     -0.616193
      22A     -0.580423    23A     -0.571822    24A     -0.561966
      25A     -0.540152    26A     -0.530020    27A     -0.523353
      28A     -0.480572    29A     -0.471813    30A     -0.470203
      31A     -0.452299    32A     -0.440780

  @DF-RHF Final Energy:  -384.08109727959368

   => Energetics <=

    Nuclear Repulsion Energy =            394.0191402274422217
    One-Electron Energy =               -1304.2541062847526518
    Two-Electron Energy =                 526.1538687777168661
    DFT Exchange-Correlation Energy =       0.0000000000000000
    Empirical Dispersion Energy =           0.0000000000000000
    PCM Polarization Energy =               0.0000000000000000
    EFP Energy =                            0.0000000000000000
    Total Energy =                       -384.0810972795935641
    Molecular point group: c1
  Basis Set: CC-PVTZ
  Basis Set:

  -Total Gradient:
     Atom            X                  Y                   Z
    ------   -----------------  -----------------  -----------------
       1       -0.000025872050     0.000026040388     0.000013123077
       2        0.000022833464    -0.000081297663     0.000004687687
       3       -0.000014786832     0.000036365939    -0.000017912320
       4        0.000011941897     0.000032708070     0.000018345728
       5        0.000010489922    -0.000000943449     0.000008106124
       6       -0.000012595852    -0.000002320637     0.000006108721
       7       -0.000001850548    -0.000012504057    -0.000007064578
       8        0.001056021209    -0.002277623249    -0.004072785809
       9       -0.000041839231     0.002991690100     0.006024304827
      10       -0.000006162237     0.000002621287     0.000008860468
      11       -0.000024975791     0.000019854928     0.000013296651
      12       -0.006978002232     0.000504663455    -0.002928578708
      13       -0.000008816794     0.000011351985     0.000007950873
      14        0.000004037693    -0.000004019612    -0.000009694880
      15        0.000002996946    -0.000011848901     0.000010537364
      16        0.006013831782    -0.001238803201     0.000914182508
      17        0.000003611986     0.000005653788     0.000007993907
      18       -0.000002352088    -0.000000660256    -0.000000140131
      19       -0.000005748659    -0.000006332108    -0.000006134886
      20       -0.000002762589     0.000005403191     0.000004813378

  **** Optimization is complete! (in 11 steps) ****
    Final optimized geometry and variables:
    Molecular point group: c1

    Geometry (in Angstrom), charge = 0, multiplicity = 1:

    O           -2.093255312650    -1.189741319444     0.113091382642
    C           -1.574398899211    -0.262199434281     0.634374587111
    C           -2.296726739881     0.785294772707     1.433751873760
    O           -0.276176862011    -0.025385185704     0.580691212509
    H           -2.132196363599     1.759048120392     0.990683750646
    H           -3.350630584960     0.560522453276     1.455652096982
    H           -1.899824356780     0.811205325255     2.440383824708
    C            0.537707160104    -0.944851587687    -0.140275658031
    C            1.981685446477    -0.502704469432    -0.031417016516
    H            0.199668060275    -0.987004579504    -1.164475333802
    H            0.411863575309    -1.929207252923     0.287608202990
    C            2.358400357825     0.838245652247    -0.694605135501
    H            2.561440453676    -1.297169087035    -0.493120781947
    H            2.267905086760    -0.485644555797     1.013440954259
    C            1.503239587303     1.285090498859    -1.875101000792
    H            2.402067863601     1.615388728728     0.060105654886
    H            3.384441516611     0.745934582677    -1.038451542493
    H            1.900901246644     2.201087777949    -2.295833739753
    H            0.477805844643     1.474544497618    -1.585207921268
    H            1.496134103697     0.541429034824    -2.665079887343

  Mulliken Charges: (a.u.)
   Center  Symbol    Alpha    Beta     Spin     Total
       1     O     4.19705  4.19705  0.00000 -0.39410
       2     C     2.81045  2.81045  0.00000  0.37910
       3     C     3.13806  3.13806  0.00000 -0.27612
       4     O     4.15798  4.15798  0.00000 -0.31595
       5     H     0.44631  0.44631  0.00000  0.10738
       6     H     0.43798  0.43798  0.00000  0.12404
       7     H     0.44564  0.44564  0.00000  0.10873
       8     C     2.99677  2.99677  0.00000  0.00646
       9     C     3.09393  3.09393  0.00000 -0.18787
      10     H     0.44672  0.44672  0.00000  0.10657
      11     H     0.43774  0.43774  0.00000  0.12453
      12     C     3.08336  3.08336  0.00000 -0.16671
      13     H     0.45145  0.45145  0.00000  0.09709
      14     H     0.44801  0.44801  0.00000  0.10398
      15     C     3.15929  3.15929  0.00000 -0.31857
      16     H     0.44989  0.44989  0.00000  0.10023
      17     H     0.45158  0.45158  0.00000  0.09685
      18     H     0.44406  0.44406  0.00000  0.11188
      19     H     0.45065  0.45065  0.00000  0.09870
      20     H     0.45311  0.45311  0.00000  0.09378

   Total alpha = 32.00000, Total beta = 32.00000, Total charge =  0.00000

*** Psi4 exiting successfully. Buy a developer a beer!
