  ==> Input File <==

--------------------------------------------------------------------------
set {
	reference rhf
	basis 6-31G*
}

set_num_threads( 4 )
memory 2 gb

molecule MOL {
0 1

O	 3.611587	 -2.614834	 1.844424
C	 2.906958	 -1.858454	 1.257529
C	 1.423793	 -1.685079	 1.478780
O	 3.347903	 -1.046386	 0.304773
C	 0.871082	 -2.591308	 2.576675
H	 1.254748	 -0.635253	 1.694373
H	 0.930973	 -1.876131	 0.528872
C	 -0.649938	 -2.503512	 2.741852
H	 1.357648	 -2.352465	 3.517593
H	 1.145156	 -3.615916	 2.349772
C	 -1.167486	 -1.153266	 3.245923
H	 -0.957886	 -3.276793	 3.441801
H	 -1.131907	 -2.744458	 1.795458
C	 -2.676479	 -1.151298	 3.498781
H	 -0.648324	 -0.892441	 4.166934
H	 -0.930602	 -0.370037	 2.529397
C	 -3.205676	 0.194456	 3.997810
H	 -2.920466	 -1.924264	 4.225574
H	 -3.195756	 -1.422523	 2.580910
C	 -4.712749	 0.186863	 4.251529
H	 -2.687117	 0.467482	 4.914432
H	 -2.966577	 0.967629	 3.270614
H	 -5.057584	 1.154024	 4.604084
H	 -4.980414	 -0.552838	 5.000791
H	 -5.261894	 -0.049448	 3.344406
C	 4.728119	 -1.109107	 -0.004993
H	 4.882018	 -1.033965	 -1.071845
H	 5.068212	 -2.067527	 0.355250
H	 5.265056	 -0.311663	 0.488280

	symmetry c1
}
set optking {
	frozen_dihedral = ("
		2 4 26 27
	")
}

ee = optimize('scf')
oeprop('DIPOLE', 'QUADRUPOLE', 'MULLIKEN_CHARGES')
f=open( 'psi4out.xyz', 'w' )
f.write( "29  " )
f.write( str(ee) + "\n" )
f.write( MOL.save_string_xyz() )
f.close()
--------------------------------------------------------------------------

    Molecular point group: c1
  Charge       = 0
  Multiplicity = 1
  Basis Set: 6-31G*
  Basis Set:
  @DF-RHF Final Energy:  -501.04050017122790
    Total Energy =                       -501.0405001712283592
    Molecular point group: c1
  Basis Set: 6-31G*
  Basis Set:
  Basis Set: 6-31G*
  Basis Set:
  @DF-RHF Final Energy:  -501.04166780362243
    Total Energy =                       -501.0416678036231133
  Basis Set: 6-31G*
  Basis Set:
  Basis Set: 6-31G*
  Basis Set:
  @DF-RHF Final Energy:  -501.04232800727027
    Total Energy =                       -501.0423280072701573
  Basis Set: 6-31G*
  Basis Set:
  Basis Set: 6-31G*
  Basis Set:
  @DF-RHF Final Energy:  -501.04222043934931
    Total Energy =                       -501.0422204393487391
  Basis Set: 6-31G*
  Basis Set:
  Basis Set: 6-31G*
  Basis Set:
  @DF-RHF Final Energy:  -501.04241745174363
    Total Energy =                       -501.0424174517436313
  Basis Set: 6-31G*
  Basis Set:
  Basis Set: 6-31G*
  Basis Set:
  @DF-RHF Final Energy:  -501.04241963922789
    Total Energy =                       -501.0424196392276599
  Basis Set: 6-31G*
  Basis Set:
  Charge       = 0
  Multiplicity = 1
  Basis Set: 6-31G*
  Basis Set:

    Orbital Energies (a.u.)
    -----------------------

    Doubly Occupied:

       1A    -20.602478     2A    -20.544576     3A    -11.373145
       4A    -11.279491     5A    -11.234198     6A    -11.218632
       7A    -11.217342     8A    -11.215784     9A    -11.215670
      10A    -11.214273    11A    -11.208949    12A     -1.466721
      13A     -1.362911    14A     -1.097734    15A     -1.066544
      16A     -1.019544    17A     -0.977720    18A     -0.928441
      19A     -0.861281    20A     -0.798982    21A     -0.790222
      22A     -0.763077    23A     -0.701343    24A     -0.680601
      25A     -0.672115    26A     -0.650708    27A     -0.628902
      28A     -0.604867    29A     -0.594516    30A     -0.580646
      31A     -0.568314    32A     -0.549898    33A     -0.533609
      34A     -0.527648    35A     -0.514369    36A     -0.511819
      37A     -0.496164    38A     -0.477563    39A     -0.469962
      40A     -0.462128    41A     -0.458323    42A     -0.453504
      43A     -0.440618    44A     -0.435391

  @DF-RHF Final Energy:  -501.04241932288005

   => Energetics <=

    Nuclear Repulsion Energy =            609.7226960985228743
    One-Electron Energy =               -1890.5887846308821736
    Two-Electron Energy =                 779.8236692094789078
    DFT Exchange-Correlation Energy =       0.0000000000000000
    Empirical Dispersion Energy =           0.0000000000000000
    PCM Polarization Energy =               0.0000000000000000
    EFP Energy =                            0.0000000000000000
    Total Energy =                       -501.0424193228803915
    Molecular point group: c1
  Basis Set: 6-31G*
  Basis Set:

  -Total Gradient:
     Atom            X                  Y                   Z
    ------   -----------------  -----------------  -----------------
       1        0.000013663529     0.000018863101    -0.000035259053
       2       -0.000253117704    -0.000801918192    -0.000763354609
       3        0.000001484586    -0.000024982124    -0.000023126173
       4        0.000352962761     0.000880136406     0.001132723041
       5       -0.000003045704     0.000028794892     0.000029833336
       6        0.000025717656    -0.000022557238    -0.000004169588
       7       -0.000015102324     0.000008660109    -0.000002736280
       8        0.000001080361     0.000012454289    -0.000026205652
       9        0.000001315458     0.000016303882    -0.000005908072
      10       -0.000004965898    -0.000007173592     0.000015875881
      11       -0.000012792796    -0.000004306789     0.000002601894
      12       -0.000001190890    -0.000011506535    -0.000012806600
      13        0.000007649496     0.000018969706    -0.000011569415
      14        0.000003234361    -0.000006780850     0.000013197097
      15        0.000009846292     0.000007693289     0.000000903625
      16       -0.000032598752    -0.000014565298     0.000013221255
      17        0.000000475912    -0.000001630802     0.000004017462
      18       -0.000004453113    -0.000001851319    -0.000000347362
      19        0.000004035774     0.000002336617     0.000000471294
      20        0.000000009377     0.000000077254     0.000000649673
      21       -0.000000359657     0.000000894633     0.000000185521
      22        0.000000221377    -0.000000568617    -0.000000735961
      23       -0.000000125021     0.000000053118    -0.000000019798
      24        0.000000000541     0.000000018283    -0.000000151215
      25        0.000000099970     0.000000024183    -0.000000044288
      26       -0.000020268169     0.001186943452    -0.000194220292
      27       -0.000084409251    -0.001294978716    -0.000130046251
      28        0.000015842883     0.000005228237    -0.000005974815
      29       -0.000005211057     0.000005368622     0.000002995350

  **** Optimization is complete! (in 7 steps) ****
    Final optimized geometry and variables:
    Molecular point group: c1

    Geometry (in Angstrom), charge = 0, multiplicity = 1:

    O            3.161148019044    -1.248127043066    -0.398230721527
    C            2.469770474766    -0.485198858528    -0.991791457785
    C            0.985452576397    -0.304455122163    -0.781723973921
    O            2.913219079863     0.332134350883    -1.940284244758
    C            0.418633681246    -1.209440570981     0.309888618297
    H            0.820879110450     0.745881560931    -0.565320339229
    H            0.499111690287    -0.490479676969    -1.735905123918
    C           -1.103252746549    -1.113561451750     0.462335430674
    H            0.898533142599    -0.974987436119     1.255307148007
    H            0.688828484220    -2.235175137322     0.083503429965
    C           -1.617273597180     0.236285845797     0.971109465561
    H           -1.421921976751    -1.889650011926     1.154347201349
    H           -1.578404262330    -1.345250470027    -0.489812794313
    C           -3.127851937442     0.244404252596     1.214224158873
    H           -1.102814828880     0.488969512458     1.897013232522
    H           -1.371806875452     1.022564757475     0.260863936279
    C           -3.653506746707     1.589790034618     1.717950867191
    H           -3.380466986952    -0.531674158703     1.934725626828
    H           -3.642509558804    -0.018652755134     0.291388270155
    C           -5.162289627540     1.588463822894     1.961444701198
    H           -3.139779967255     1.854519334198     2.639711171681
    H           -3.405513785956     2.366150757806     0.997157931377
    H           -5.504549940542     2.555266466023     2.317492271126
    H           -5.438815169942     0.845671166421     2.704402638384
    H           -5.706476206025     1.360431482283     1.049228143982
    C            4.283304964370     0.287485038059    -2.300178123189
    H            4.327688879551     0.388547844697    -3.374484484910
    H            4.729702872637    -0.644649783277    -1.995735146718
    H            4.801590001000     1.112393132171    -1.830247542869

  Mulliken Charges: (a.u.)
   Center  Symbol    Alpha    Beta     Spin     Total
       1     O     4.28547  4.28547  0.00000 -0.57093
       2     C     2.60458  2.60458  0.00000  0.79084
       3     C     3.21003  3.21003  0.00000 -0.42007
       4     O     4.30924  4.30924  0.00000 -0.61847
       5     C     3.15378  3.15378  0.00000 -0.30755
       6     H     0.39879  0.39879  0.00000  0.20241
       7     H     0.40147  0.40147  0.00000  0.19706
       8     C     3.15662  3.15662  0.00000 -0.31324
       9     H     0.41312  0.41312  0.00000  0.17376
      10     H     0.40886  0.40886  0.00000  0.18229
      11     C     3.15500  3.15500  0.00000 -0.30999
      12     H     0.41831  0.41831  0.00000  0.16337
      13     H     0.42394  0.42394  0.00000  0.15213
      14     C     3.15030  3.15030  0.00000 -0.30059
      15     H     0.42262  0.42262  0.00000  0.15476
      16     H     0.42361  0.42361  0.00000  0.15278
      17     C     3.15145  3.15145  0.00000 -0.30290
      18     H     0.42334  0.42334  0.00000  0.15331
      19     H     0.42401  0.42401  0.00000  0.15199
      20     C     3.23934  3.23934  0.00000 -0.47869
      21     H     0.42280  0.42280  0.00000  0.15439
      22     H     0.42344  0.42344  0.00000  0.15312
      23     H     0.41925  0.41925  0.00000  0.16150
      24     H     0.42156  0.42156  0.00000  0.15689
      25     H     0.42185  0.42185  0.00000  0.15631
      26     C     3.09697  3.09697  0.00000 -0.19393
      27     H     0.41074  0.41074  0.00000  0.17852
      28     H     0.39637  0.39637  0.00000  0.20727
      29     H     0.41317  0.41317  0.00000  0.17366

   Total alpha = 44.00000, Total beta = 44.00000, Total charge = -0.00000
