  ==> Input File <==

--------------------------------------------------------------------------
set {
	reference rhf
	basis 6-31G*
}

set_num_threads( 4 )
memory 2 gb

molecule MOL {
0 1

O	 -1.622273	 -0.689283	 2.045875
C	 -1.486972	 0.195482	 1.264111
C	 -2.254065	 1.489893	 1.284477
O	 -0.632575	 0.154573	 0.251549
H	 -2.799838	 1.606828	 0.355281
H	 -2.939406	 1.492091	 2.118826
H	 -1.565100	 2.322479	 1.367459
C	 0.160891	 -1.019931	 0.106212
C	 1.589627	 -0.672828	 0.480843
H	 0.089836	 -1.367806	 -0.916050
H	 -0.238459	 -1.792301	 0.749618
C	 2.246377	 0.346236	 -0.452210
H	 2.163194	 -1.597435	 0.473358
H	 1.604769	 -0.303424	 1.502885
C	 3.691736	 0.652107	 -0.061850
H	 2.219579	 -0.032311	 -1.472055
H	 1.666466	 1.263317	 -0.447249
H	 4.134505	 1.377213	 -0.737283
H	 4.305508	 -0.243868	 -0.089969
H	 3.748266	 1.059562	 0.943567

	symmetry c1
}
set optking {
	frozen_dihedral = ("
		2 4 8 10
	")
}

ee = optimize('scf')
oeprop('DIPOLE', 'QUADRUPOLE', 'MULLIKEN_CHARGES')
f=open( 'psi4out.xyz', 'w' )
f.write( "20  " )
f.write( str(ee) + "\n" )
f.write( MOL.save_string_xyz() )
f.close()
--------------------------------------------------------------------------

    Molecular point group: c1
  Charge       = 0
  Multiplicity = 1
  Basis Set: 6-31G*
  Basis Set:
  @DF-RHF Final Energy:  -383.94276982709999
    Total Energy =                       -383.9427698270995961
    Molecular point group: c1
  Basis Set: 6-31G*
  Basis Set:
  Basis Set: 6-31G*
  Basis Set:
  @DF-RHF Final Energy:  -383.94330135286009
    Total Energy =                       -383.9433013528599759
  Basis Set: 6-31G*
  Basis Set:
  Basis Set: 6-31G*
  Basis Set:
  @DF-RHF Final Energy:  -383.94377778263146
    Total Energy =                       -383.9437777826315141
  Basis Set: 6-31G*
  Basis Set:
  Basis Set: 6-31G*
  Basis Set:
  @DF-RHF Final Energy:  -383.94382099128023
    Total Energy =                       -383.9438209912802904
  Basis Set: 6-31G*
  Basis Set:
  Basis Set: 6-31G*
  Basis Set:
  @DF-RHF Final Energy:  -383.94388565619755
    Total Energy =                       -383.9438856561973807
  Basis Set: 6-31G*
  Basis Set:
  Basis Set: 6-31G*
  Basis Set:
  @DF-RHF Final Energy:  -383.94389811842291
    Total Energy =                       -383.9438981184229078
  Basis Set: 6-31G*
  Basis Set:
  Charge       = 0
  Multiplicity = 1
  Basis Set: 6-31G*
  Basis Set:

    Orbital Energies (a.u.)
    -----------------------

    Doubly Occupied:

       1A    -20.600927     2A    -20.544004     3A    -11.376285
       4A    -11.280946     5A    -11.233058     6A    -11.224329
       7A    -11.220122     8A    -11.212944     9A     -1.465676
      10A     -1.362889    11A     -1.084546    12A     -1.028390
      13A     -0.980272    14A     -0.884907    15A     -0.817649
      16A     -0.759596    17A     -0.696673    18A     -0.684247
      19A     -0.660072    20A     -0.631341    21A     -0.597178
      22A     -0.594319    23A     -0.569347    24A     -0.565604
      25A     -0.538866    26A     -0.524994    27A     -0.517651
      28A     -0.489936    29A     -0.474825    30A     -0.465202
      31A     -0.443417    32A     -0.439378

  @DF-RHF Final Energy:  -383.94389811653730

   => Energetics <=

    Nuclear Repulsion Energy =            387.2066685502738892
    One-Electron Energy =               -1290.3619514160413928
    Two-Electron Energy =                 519.2113847492304330
    DFT Exchange-Correlation Energy =       0.0000000000000000
    Empirical Dispersion Energy =           0.0000000000000000
    PCM Polarization Energy =               0.0000000000000000
    EFP Energy =                            0.0000000000000000
    Total Energy =                       -383.9438981165370706
    Molecular point group: c1
  Basis Set: 6-31G*
  Basis Set:

  -Total Gradient:
     Atom            X                  Y                   Z
    ------   -----------------  -----------------  -----------------
       1       -0.000011636507    -0.000000584550     0.000002231053
       2       -0.000644575772    -0.000371835559    -0.000512102057
       3       -0.000014687474    -0.000005528688    -0.000007478176
       4        0.000804726293     0.000423965108     0.000827169447
       5       -0.000000230520     0.000005503690    -0.000001360627
       6        0.000001132791     0.000000671950    -0.000000835092
       7        0.000002030924    -0.000002856606     0.000003202844
       8        0.000669676569     0.000542678067    -0.000556440075
       9        0.000000881358    -0.000003399282     0.000001353824
      10       -0.000806785168    -0.000601071179     0.000253859850
      11        0.000001808454     0.000012105142    -0.000007391239
      12        0.000000262272    -0.000003581619    -0.000001256778
      13       -0.000008288842    -0.000006027284    -0.000005992760
      14        0.000014101859    -0.000000719820     0.000002147909
      15       -0.000004437362     0.000003387505     0.000007969351
      16        0.000006260097     0.000002647894    -0.000000214166
      17       -0.000008349518     0.000001254871    -0.000008586805
      18       -0.000002439199    -0.000000445346     0.000000338109
      19       -0.000003222235     0.000000347956     0.000001350979
      20        0.000003771978     0.000003487752     0.000002034404

  **** Optimization is complete! (in 7 steps) ****
    Final optimized geometry and variables:
    Molecular point group: c1

    Geometry (in Angstrom), charge = 0, multiplicity = 1:

    O           -1.851152220159    -0.707595276643     1.475615447537
    C           -1.709618539525     0.140085833923     0.655091190695
    C           -2.483259246171     1.430426345355     0.614565928420
    O           -0.844545336558     0.073941867929    -0.349116621078
    H           -3.019235471943     1.505709724106    -0.324465672642
    H           -3.177106621847     1.463232858460     1.441192834520
    H           -1.799048769313     2.269223800263     0.669914553051
    C           -0.027937541252    -1.086421033747    -0.500115043518
    C            1.419775245672    -0.768493023958    -0.165264056363
    H           -0.135999055344    -1.387804196132    -1.534201261973
    H           -0.408961683988    -1.871261570977     0.132642196900
    C            2.048330831998     0.294151230256    -1.068071495684
    H            1.985620677565    -1.695118408308    -0.242026501291
    H            1.476440693935    -0.455902603942     0.874513635574
    C            3.504593826025     0.584643507044    -0.707370606386
    H            1.991161646145    -0.036222840360    -2.103310076189
    H            1.467924740314     1.209049869180    -1.005098869119
    H            3.927507456285     1.338939321376    -1.363348183135
    H            4.117290430874    -0.308524740113    -0.792092589735
    H            3.590864189296     0.947884272261     0.312776172920

  Mulliken Charges: (a.u.)
   Center  Symbol    Alpha    Beta     Spin     Total
       1     O     4.28319  4.28319  0.00000 -0.56639
       2     C     2.61955  2.61955  0.00000  0.76091
       3     C     3.28211  3.28211  0.00000 -0.56422
       4     O     4.30970  4.30970  0.00000 -0.61940
       5     H     0.40035  0.40035  0.00000  0.19931
       6     H     0.39711  0.39711  0.00000  0.20579
       7     H     0.40103  0.40103  0.00000  0.19795
       8     C     3.01384  3.01384  0.00000 -0.02768
       9     C     3.16379  3.16379  0.00000 -0.32758
      10     H     0.41331  0.41331  0.00000  0.17338
      11     H     0.39239  0.39239  0.00000  0.21523
      12     C     3.15445  3.15445  0.00000 -0.30889
      13     H     0.41944  0.41944  0.00000  0.16112
      14     H     0.41363  0.41363  0.00000  0.17273
      15     C     3.24018  3.24018  0.00000 -0.48035
      16     H     0.42318  0.42318  0.00000  0.15365
      17     H     0.41287  0.41287  0.00000  0.17427
      18     H     0.41782  0.41782  0.00000  0.16436
      19     H     0.42159  0.42159  0.00000  0.15682
      20     H     0.42050  0.42050  0.00000  0.15900

   Total alpha = 32.00000, Total beta = 32.00000, Total charge = -0.00000
