                              Psi4 1.0.54 Driver

  ==> Input File <==

--------------------------------------------------------------------------
set {
	reference rhf
	basis cc-pvtz
}

set_num_threads( 4 )
memory 2 gb

molecule MOL {
0 1

H	 3.721907	 -0.933076	 -0.066039
O	 2.824271	 -1.154299	 0.131461
C	 2.076458	 -0.067370	 -0.038225
C	 0.626018	 -0.337582	 0.258241
O	 2.538288	 0.965419	 -0.381593
C	 -0.267326	 0.883135	 0.076490
H	 0.325620	 -1.161483	 -0.378003
H	 0.574537	 -0.713685	 1.275261
C	 -1.726822	 0.642622	 0.463839
H	 -0.210803	 1.217591	 -0.953497
H	 0.129920	 1.693110	 0.675679
C	 -2.480891	 -0.340606	 -0.429852
H	 -2.243098	 1.597649	 0.438609
H	 -1.776542	 0.301208	 1.495542
C	 -3.995171	 -0.215425	 -0.296583
H	 -2.195493	 -0.172396	 -1.464882
H	 -2.190714	 -1.359574	 -0.194360
H	 -4.505672	 -0.921245	 -0.941478
H	 -4.330316	 0.780762	 -0.564890
H	 -4.315184	 -0.407233	 0.722218

	symmetry c1
}
set optking {
	frozen_dihedral = ("
		16 12 9 6
	")
}

ee,wfn = optimize('scf', return_wfn=True)
oeprop( wfn, 'DIPOLE', 'QUADRUPOLE', 'MULLIKEN_CHARGES')
f=open( 'psi4out.xyz', 'w' )
f.write( "20  " )
f.write( str(ee) + "\n" )
f.write( MOL.save_string_xyz() )
f.close()
--------------------------------------------------------------------------

    Molecular point group: c1
  Charge       = 0
  Multiplicity = 1
  Basis Set: CC-PVTZ
  Basis Set:
  @DF-RHF Final Energy:  -384.09427495810138
    Total Energy =                       -384.0942749581010958
    Molecular point group: c1
  Basis Set: CC-PVTZ
  Basis Set:
  Basis Set: CC-PVTZ
  Basis Set:
  @DF-RHF Final Energy:  -384.09430694915460
    Total Energy =                       -384.0943069491547703
  Basis Set: CC-PVTZ
  Basis Set:
  Basis Set: CC-PVTZ
  Basis Set:
  @DF-RHF Final Energy:  -384.09438298291775
    Total Energy =                       -384.0943829829174661
  Basis Set: CC-PVTZ
  Basis Set:
  Basis Set: CC-PVTZ
  Basis Set:
  @DF-RHF Final Energy:  -384.09435485807933
    Total Energy =                       -384.0943548580790434
  Basis Set: CC-PVTZ
  Basis Set:
  Basis Set: CC-PVTZ
  Basis Set:
  @DF-RHF Final Energy:  -384.09439337541176
    Total Energy =                       -384.0943933754115278
  Basis Set: CC-PVTZ
  Basis Set:
  Charge       = 0
  Multiplicity = 1
  Basis Set: CC-PVTZ
  Basis Set:

    Orbital Energies (a.u.)
    -----------------------

    Doubly Occupied:

       1A    -20.603794     2A    -20.540435     3A    -11.373319
       4A    -11.238527     5A    -11.221046     6A    -11.218829
       7A    -11.218141     8A    -11.210786     9A     -1.477344
      10A     -1.368886    11A     -1.097560    12A     -1.041852
      13A     -0.962649    14A     -0.870412    15A     -0.818563
      16A     -0.777352    17A     -0.703618    18A     -0.692458
      19A     -0.667347    20A     -0.636855    21A     -0.602744
      22A     -0.597960    23A     -0.576025    24A     -0.560241
      25A     -0.538846    26A     -0.514563    27A     -0.496107
      28A     -0.484393    29A     -0.472333    30A     -0.466794
      31A     -0.458355    32A     -0.446217

  @DF-RHF Final Energy:  -384.09440416312577

   => Energetics <=

    Nuclear Repulsion Energy =            376.6992548345732530
    One-Electron Energy =               -1269.6786138234108421
    Two-Electron Energy =                 508.8849548257117590
    DFT Exchange-Correlation Energy =       0.0000000000000000
    Empirical Dispersion Energy =           0.0000000000000000
    PCM Polarization Energy =               0.0000000000000000
    EFP Energy =                            0.0000000000000000
    Total Energy =                       -384.0944041631258301
    Molecular point group: c1
  Basis Set: CC-PVTZ
  Basis Set:

  -Total Gradient:
     Atom            X                  Y                   Z
    ------   -----------------  -----------------  -----------------
       1       -0.000016863170     0.000019061212    -0.000001192348
       2        0.000004562748    -0.000100278679     0.000000780170
       3       -0.000011127514     0.000063178612     0.000051091290
       4        0.000031031939    -0.000034463093    -0.000032172148
       5       -0.000017162669     0.000030902165    -0.000021819825
       6       -0.000498239163     0.001389890318    -0.001155316999
       7        0.000002388245     0.000000036775     0.000006504756
       8        0.000013127276     0.000003072396     0.000007213157
       9        0.001148014292    -0.002371940760     0.001702876186
      10       -0.000006441098     0.000004237679    -0.000004644438
      11       -0.000006777822     0.000002854196     0.000001680899
      12       -0.002516106733     0.002664687821    -0.000858909372
      13       -0.000006786651     0.000010510138     0.000001665193
      14        0.000001581245    -0.000002497804    -0.000003364042
      15       -0.000005549561     0.000012964399    -0.000003800355
      16        0.001859557541    -0.001679301688     0.000310824625
      17        0.000006655312    -0.000016956349     0.000002543363
      18        0.000009027897    -0.000000584037    -0.000000382288
      19       -0.000003624231     0.000005935685    -0.000000761945
      20        0.000012732122    -0.000001308985    -0.000002815882

  **** Optimization is complete! (in 6 steps) ****
    Final optimized geometry and variables:
    Molecular point group: c1

    Geometry (in Angstrom), charge = 0, multiplicity = 1:

    H            3.695913606077    -1.036236333041    -0.048622498464
    O            2.793982984713    -1.235895826012     0.152296173359
    C            2.072358750674    -0.130398273041    -0.011473038364
    C            0.616960542165    -0.365609111000     0.289760897608
    O            2.557507724696     0.891817041482    -0.354594848160
    C           -0.247319595434     0.877296144154     0.118219202955
    H            0.291394265422    -1.177432383223    -0.350258901426
    H            0.559469859322    -0.746838981507     1.304575989045
    C           -1.713353125715     0.660585327369     0.492764826773
    H           -0.180767793480     1.220237876803    -0.908095877341
    H            0.163379003817     1.672701358222     0.727930249299
    C           -2.463572115079    -0.338310925858    -0.391161087926
    H           -2.212716080836     1.622999525005     0.428918066465
    H           -1.788563615019     0.352397622630     1.532763087695
    C           -3.978487851202    -0.225578299084    -0.264917277856
    H           -2.165105864950    -0.200087187462    -1.427003038501
    H           -2.165066062372    -1.350511185893    -0.133912976773
    H           -4.480199140295    -0.967114846287    -0.875719659558
    H           -4.325126852883     0.753126210955    -0.578598164791
    H           -4.296017875703    -0.373745545556     0.762055167205

  Mulliken Charges: (a.u.)
   Center  Symbol    Alpha    Beta     Spin     Total
       1     H     0.38235  0.38235  0.00000  0.23530
       2     O     4.16028  4.16028  0.00000 -0.32056
       3     C     2.80385  2.80385  0.00000  0.39231
       4     C     3.11094  3.11094  0.00000 -0.22189
       5     O     4.19124  4.19124  0.00000 -0.38249
       6     C     3.09353  3.09353  0.00000 -0.18705
       7     H     0.43638  0.43638  0.00000  0.12723
       8     H     0.43786  0.43786  0.00000  0.12428
       9     C     3.09895  3.09895  0.00000 -0.19791
      10     H     0.44534  0.44534  0.00000  0.10932
      11     H     0.43951  0.43951  0.00000  0.12097
      12     C     3.09011  3.09011  0.00000 -0.18022
      13     H     0.44688  0.44688  0.00000  0.10624
      14     H     0.45235  0.45235  0.00000  0.09530
      15     C     3.14869  3.14869  0.00000 -0.29738
      16     H     0.45197  0.45197  0.00000  0.09606
      17     H     0.45355  0.45355  0.00000  0.09290
      18     H     0.44800  0.44800  0.00000  0.10399
      19     H     0.45366  0.45366  0.00000  0.09268
      20     H     0.45454  0.45454  0.00000  0.09093

   Total alpha = 32.00000, Total beta = 32.00000, Total charge = -0.00000

*** Psi4 exiting successfully. Buy a developer a beer!
