                              Psi4 1.0.54 Driver

  ==> Input File <==

--------------------------------------------------------------------------
set {
	reference rhf
	basis cc-pvtz
}

set_num_threads( 4 )
memory 2 gb

molecule MOL {
0 1

H	 1.126665	 -0.464922	 -0.554184
C	 0.848385	 0.440008	 0.000011
C	 -0.623497	 0.751021	 0.000090
O	 1.679230	 1.086070	 0.538105
C	 -1.523725	 -0.474323	 -0.000013
H	 -0.813143	 1.382932	 -0.864897
H	 -0.813071	 1.382716	 0.865253
H	 -1.342980	 -1.087348	 -0.873016
H	 -2.565269	 -0.177464	 0.000070
H	 -1.342898	 -1.087564	 0.872820

	symmetry c1
}
set optking {
	frozen_dihedral = ("
		4 2 3 6
	")
}

ee,wfn = optimize('scf', return_wfn=True)
oeprop( wfn, 'DIPOLE', 'QUADRUPOLE', 'MULLIKEN_CHARGES')
f=open( 'psi4out.xyz', 'w' )
f.write( "10  " )
f.write( str(ee) + "\n" )
f.write( MOL.save_string_xyz() )
f.close()
--------------------------------------------------------------------------

    Molecular point group: c1
  Charge       = 0
  Multiplicity = 1
  Basis Set: CC-PVTZ
  Basis Set:
  @DF-RHF Final Energy:  -192.02250121946986
    Total Energy =                       -192.0225012194698024
    Molecular point group: c1
  Basis Set: CC-PVTZ
  Basis Set:
  Basis Set: CC-PVTZ
  Basis Set:
  @DF-RHF Final Energy:  -192.02193601200150
    Total Energy =                       -192.0219360120015608
  Basis Set: CC-PVTZ
  Basis Set:
  Basis Set: CC-PVTZ
  Basis Set:
  @DF-RHF Final Energy:  -192.02256299066573
    Total Energy =                       -192.0225629906657900
  Basis Set: CC-PVTZ
  Basis Set:
  Basis Set: CC-PVTZ
  Basis Set:
  @DF-RHF Final Energy:  -192.02282552403355
    Total Energy =                       -192.0228255240335784
  Basis Set: CC-PVTZ
  Basis Set:
  Charge       = 0
  Multiplicity = 1
  Basis Set: CC-PVTZ
  Basis Set:

    Orbital Energies (a.u.)
    -----------------------

    Doubly Occupied:

       1A    -20.553060     2A    -11.323318     3A    -11.238397
       4A    -11.231277     5A     -1.408553     6A     -1.068156
       7A     -0.904196     8A     -0.797282     9A     -0.669459
      10A     -0.643938    11A     -0.629002    12A     -0.560702
      13A     -0.546438    14A     -0.522678    15A     -0.495090
      16A     -0.415094

  @DF-RHF Final Energy:  -192.02282648725142

   => Energetics <=

    Nuclear Repulsion Energy =            117.2583952118848458
    One-Electron Energy =                -492.5491625591461684
    Two-Electron Energy =                 183.2679408600099009
    DFT Exchange-Correlation Energy =       0.0000000000000000
    Empirical Dispersion Energy =           0.0000000000000000
    PCM Polarization Energy =               0.0000000000000000
    EFP Energy =                            0.0000000000000000
    Total Energy =                       -192.0228264872513932
    Molecular point group: c1
  Basis Set: CC-PVTZ
  Basis Set:

  -Total Gradient:
     Atom            X                  Y                   Z
    ------   -----------------  -----------------  -----------------
       1       -0.000026110611    -0.000038835906    -0.000027482098
       2       -0.000098387234    -0.000573447582     0.001444923838
       3       -0.000134754551    -0.000840583280    -0.001046900084
       4        0.000067105022     0.000569463773    -0.000915953642
       5        0.000000361898     0.000029624541     0.000022716326
       6        0.000216947527     0.000864490087     0.000530486581
       7       -0.000019786833    -0.000003005061    -0.000014881393
       8        0.000001882258     0.000007541982     0.000007275975
       9       -0.000000201004    -0.000000451841    -0.000001609981
      10       -0.000007056477    -0.000014796712     0.000001424475

  **** Optimization is complete! (in 5 steps) ****
    Final optimized geometry and variables:
    Molecular point group: c1

    Geometry (in Angstrom), charge = 0, multiplicity = 1:

    H            1.022623356024    -0.908563695105    -0.713698184047
    C            0.749847971598    -0.013155326680    -0.139298550837
    C           -0.721028631393     0.315284738461    -0.108816248586
    O            1.589689359508     0.635927553758     0.380020613423
    C           -1.615384123321    -0.919543025063    -0.142600151378
    H           -0.912931716554     0.942584100159    -0.976363451198
    H           -0.909518830225     0.925376081373     0.764821172841
    H           -1.427240901483    -1.518995919814    -1.026363112389
    H           -2.659298693360    -0.634658116987    -0.153800976504
    H           -1.452201890803    -1.546936088685     0.726377625444

  Mulliken Charges: (a.u.)
   Center  Symbol    Alpha    Beta     Spin     Total
       1     H     0.46624  0.46624  0.00000  0.06753
       2     C     2.90182  2.90182  0.00000  0.19636
       3     C     3.08180  3.08180  0.00000 -0.16360
       4     O     4.16388  4.16388  0.00000 -0.32777
       5     C     3.15241  3.15241  0.00000 -0.30482
       6     H     0.44676  0.44676  0.00000  0.10648
       7     H     0.44010  0.44010  0.00000  0.11980
       8     H     0.45363  0.45363  0.00000  0.09274
       9     H     0.44407  0.44407  0.00000  0.11186
      10     H     0.44929  0.44929  0.00000  0.10143

   Total alpha = 16.00000, Total beta = 16.00000, Total charge =  0.00000

*** Psi4 exiting successfully. Buy a developer a beer!
