                              Psi4 1.0.54 Driver

  ==> Input File <==

--------------------------------------------------------------------------
set {
	reference rhf
	basis cc-pvtz
}

set_num_threads( 4 )
memory 2 gb

molecule MOL {
0 1

H	 -0.098674	 1.285938	 -1.085101
O	 0.057669	 1.301365	 -0.158528
C	 0.004145	 -0.005141	 0.363049
C	 1.199168	 -0.827145	 -0.096690
C	 -1.316386	 -0.602081	 -0.083515
H	 0.012026	 0.043363	 1.450619
H	 1.216685	 -0.896776	 -1.178167
H	 2.129940	 -0.372354	 0.228035
H	 1.160783	 -1.829622	 0.314294
H	 -1.357882	 -0.655920	 -1.165207
H	 -2.140147	 0.011735	 0.257253
H	 -1.440790	 -1.601175	 0.317669

	symmetry c1
}
set optking {
	frozen_dihedral = ("
		1 2 3 4
	")
}

ee,wfn = optimize('scf', return_wfn=True)
oeprop( wfn, 'DIPOLE', 'QUADRUPOLE', 'MULLIKEN_CHARGES')
f=open( 'psi4out.xyz', 'w' )
f.write( "12  " )
f.write( str(ee) + "\n" )
f.write( MOL.save_string_xyz() )
f.close()
--------------------------------------------------------------------------

    Molecular point group: c1
  Charge       = 0
  Multiplicity = 1
  Basis Set: CC-PVTZ
  Basis Set:
  @DF-RHF Final Energy:  -193.19356280476231
    Total Energy =                       -193.1935628047623936
    Molecular point group: c1
  Basis Set: CC-PVTZ
  Basis Set:
  Basis Set: CC-PVTZ
  Basis Set:
  @DF-RHF Final Energy:  -193.19515909593250
    Total Energy =                       -193.1951590959325529
  Basis Set: CC-PVTZ
  Basis Set:
  Basis Set: CC-PVTZ
  Basis Set:
  @DF-RHF Final Energy:  -193.19553517204884
    Total Energy =                       -193.1955351720486647
  Basis Set: CC-PVTZ
  Basis Set:
  Charge       = 0
  Multiplicity = 1
  Basis Set: CC-PVTZ
  Basis Set:

    Orbital Energies (a.u.)
    -----------------------

    Doubly Occupied:

       1A    -20.543878     2A    -11.273926     3A    -11.211995
       4A    -11.209565     5A     -1.364626     6A     -1.042915
       7A     -0.941833     8A     -0.820513     9A     -0.663536
      10A     -0.645192    11A     -0.603331    12A     -0.576647
      13A     -0.545015    14A     -0.517665    15A     -0.511056
      16A     -0.466645    17A     -0.434086

  @DF-RHF Final Energy:  -193.19553739905433

   => Energetics <=

    Nuclear Repulsion Energy =            135.5816482399317806
    One-Electron Energy =                -530.8095235776495429
    Two-Electron Energy =                 202.0323379386632610
    DFT Exchange-Correlation Energy =       0.0000000000000000
    Empirical Dispersion Energy =           0.0000000000000000
    PCM Polarization Energy =               0.0000000000000000
    EFP Energy =                            0.0000000000000000
    Total Energy =                       -193.1955373990545013
    Molecular point group: c1
  Basis Set: CC-PVTZ
  Basis Set:

  -Total Gradient:
     Atom            X                  Y                   Z
    ------   -----------------  -----------------  -----------------
       1       -0.000566844297     0.000013988650     0.000065254561
       2        0.000803376226    -0.000078049923     0.000107419456
       3       -0.000313784126    -0.000223361559    -0.000396741430
       4        0.000108513497     0.000227907978     0.000267907216
       5       -0.000098951436    -0.000032716825    -0.000073554498
       6        0.000030428625     0.000038972571    -0.000037931169
       7       -0.000003417708     0.000005771490     0.000025253967
       8        0.000043801151    -0.000003189020     0.000000701095
       9       -0.000039929995     0.000026928709     0.000021263017
      10       -0.000005095500    -0.000004467980     0.000000791494
      11        0.000010875902     0.000015514107     0.000010789336
      12        0.000031027658     0.000012701804     0.000008846955

  **** Optimization is complete! (in 4 steps) ****
    Final optimized geometry and variables:
    Molecular point group: c1

    Geometry (in Angstrom), charge = 0, multiplicity = 1:

    H           -0.011002476074     1.336077365274    -1.062136348422
    O            0.081823940257     1.329047568255    -0.125887716336
    C           -0.003438477827     0.009013544949     0.353909740809
    C            1.224003987623    -0.795390183313    -0.047195149972
    C           -1.303242147806    -0.650051094054    -0.082702085477
    H           -0.011930329987     0.111396547882     1.432199531262
    H            1.273134297359    -0.912598401874    -1.126203272152
    H            2.125037089577    -0.291973414293     0.279102030294
    H            1.201926810246    -1.785194778398     0.394882683637
    H           -1.336114299674    -0.759989742074    -1.163523077532
    H           -2.151076935041    -0.050144489955     0.222981047401
    H           -1.404162901530    -1.637223534413     0.353348293902

  Mulliken Charges: (a.u.)
   Center  Symbol    Alpha    Beta     Spin     Total
       1     H     0.39451  0.39451  0.00000  0.21097
       2     O     4.20933  4.20933  0.00000 -0.41866
       3     C     2.92763  2.92763  0.00000  0.14474
       4     C     3.14463  3.14463  0.00000 -0.28926
       5     C     3.14759  3.14759  0.00000 -0.29518
       6     H     0.45120  0.45120  0.00000  0.09760
       7     H     0.46147  0.46147  0.00000  0.07705
       8     H     0.44504  0.44504  0.00000  0.10992
       9     H     0.45694  0.45694  0.00000  0.08613
      10     H     0.46168  0.46168  0.00000  0.07664
      11     H     0.44442  0.44442  0.00000  0.11115
      12     H     0.45555  0.45555  0.00000  0.08890

   Total alpha = 17.00000, Total beta = 17.00000, Total charge = -0.00000

*** Psi4 exiting successfully. Buy a developer a beer!
