  ==> Input File <==

--------------------------------------------------------------------------
set {
	reference rhf
	basis 6-31G*
}

set_num_threads( 4 )
memory 2 gb

molecule MOL {
0 1

H	 -3.832560	 -2.162460	 -0.615807
C	 -2.761873	 -2.062507	 -0.636331
C	 -2.001912	 -2.924261	 -1.412855
C	 -2.146383	 -1.072675	 0.113561
H	 -2.480508	 -3.691486	 -1.993955
C	 -0.625273	 -2.795120	 -1.438732
H	 -2.737124	 -0.405584	 0.714910
C	 -0.768493	 -0.941532	 0.089201
H	 -0.021339	 -3.453002	 -2.033817
C	 -0.004018	 -1.803640	 -0.688044
H	 -0.288007	 -0.176989	 0.667931
C	 1.481693	 -1.706657	 -0.750606
O	 1.970282	 -0.730723	 0.000018
O	 2.168735	 -2.427073	 -1.404695
C	 3.377318	 -0.566646	 -0.000065
H	 3.695437	 -0.028981	 -0.881264
H	 3.789299	 -1.563704	 0.000236
H	 3.695516	 -0.028316	 0.880770

	symmetry c1
}
set optking {
	frozen_dihedral = ("
		12 13 15 16
	")
}

ee = optimize('scf')
oeprop('DIPOLE', 'QUADRUPOLE', 'MULLIKEN_CHARGES')
f=open( 'psi4out.xyz', 'w' )
f.write( "18  " )
f.write( str(ee) + "\n" )
f.write( MOL.save_string_xyz() )
f.close()
--------------------------------------------------------------------------

    Molecular point group: c1
  Charge       = 0
  Multiplicity = 1
  Basis Set: 6-31G*
  Basis Set:
  @DF-RHF Final Energy:  -457.34825633907292
    Total Energy =                       -457.3482563390732594
    Molecular point group: c1
  Basis Set: 6-31G*
  Basis Set:
  Basis Set: 6-31G*
  Basis Set:
  @DF-RHF Final Energy:  -457.34961670267069
    Total Energy =                       -457.3496167026703461
  Basis Set: 6-31G*
  Basis Set:
  Basis Set: 6-31G*
  Basis Set:
  @DF-RHF Final Energy:  -457.35005940992863
    Total Energy =                       -457.3500594099288037
  Basis Set: 6-31G*
  Basis Set:
  Basis Set: 6-31G*
  Basis Set:
  @DF-RHF Final Energy:  -457.34909515964216
    Total Energy =                       -457.3490951596420473
  Basis Set: 6-31G*
  Basis Set:
  Basis Set: 6-31G*
  Basis Set:
  @DF-RHF Final Energy:  -457.35009910926061
    Total Energy =                       -457.3500991092600998
  Basis Set: 6-31G*
  Basis Set:
  Basis Set: 6-31G*
  Basis Set:
  @DF-RHF Final Energy:  -457.35010148488556
    Total Energy =                       -457.3501014848854993
  Basis Set: 6-31G*
  Basis Set:
  Charge       = 0
  Multiplicity = 1
  Basis Set: 6-31G*
  Basis Set:

    Orbital Energies (a.u.)
    -----------------------

    Doubly Occupied:

       1A    -20.607460     2A    -20.544202     3A    -11.378246
       4A    -11.282693     5A    -11.245446     6A    -11.245168
       7A    -11.244005     8A    -11.241568     9A    -11.237351
      10A    -11.236587    11A     -1.472106    12A     -1.364037
      13A     -1.165143    14A     -1.048015    15A     -1.024680
      16A     -0.978547    17A     -0.860075    18A     -0.834183
      19A     -0.777514    20A     -0.739862    21A     -0.683450
      22A     -0.676922    23A     -0.671805    24A     -0.631079
      25A     -0.623823    26A     -0.597658    27A     -0.584636
      28A     -0.563132    29A     -0.527848    30A     -0.516499
      31A     -0.503539    32A     -0.498733    33A     -0.458541
      34A     -0.444236    35A     -0.344773    36A     -0.340855

  @DF-RHF Final Energy:  -457.35010229482435

   => Energetics <=

    Nuclear Repulsion Energy =            492.8767821446097628
    One-Electron Energy =               -1600.0649357910008348
    Two-Electron Energy =                 649.8380513515669463
    DFT Exchange-Correlation Energy =       0.0000000000000000
    Empirical Dispersion Energy =           0.0000000000000000
    PCM Polarization Energy =               0.0000000000000000
    EFP Energy =                            0.0000000000000000
    Total Energy =                       -457.3501022948241825
    Molecular point group: c1
  Basis Set: 6-31G*
  Basis Set:

  -Total Gradient:
     Atom            X                  Y                   Z
    ------   -----------------  -----------------  -----------------
       1        0.000000015261     0.000000470705     0.000000116861
       2       -0.000000664688    -0.000002793540    -0.000002674561
       3       -0.000006052283    -0.000001246891     0.000004022976
       4        0.000000985492     0.000001232918    -0.000002051284
       5       -0.000000743528     0.000000094042     0.000000233783
       6        0.000001370559     0.000003996877     0.000000632208
       7       -0.000000852764    -0.000000428531    -0.000000134172
       8       -0.000002868979     0.000000271820     0.000002230834
       9       -0.000000589042     0.000000759198     0.000000197134
      10       -0.000012586951    -0.000005194506    -0.000006929847
      11       -0.000002058591    -0.000001696469    -0.000001248949
      12        0.000059803108    -0.000848525384     0.001036344208
      13       -0.000109146066     0.001541854768    -0.001306918505
      14        0.000003175567     0.000014526694     0.000005312288
      15        0.000236039795    -0.002039514933    -0.000467156956
      16       -0.000173931978     0.001340092658     0.000743790241
      17        0.000001151527    -0.000005198433     0.000000408943
      18        0.000006953552     0.000001299004    -0.000006175202

  **** Optimization is complete! (in 7 steps) ****
    Final optimized geometry and variables:
    Molecular point group: c1

    Geometry (in Angstrom), charge = 0, multiplicity = 1:

    H           -4.028980666677    -0.472990722244     0.011545347037
    C           -2.958244701213    -0.375581247864    -0.015710373592
    C           -2.205464501568    -1.236574402586    -0.800076374676
    C           -2.335472455196     0.610325778198     0.733272305834
    H           -2.689680907738    -2.000720613767    -1.380645692687
    C           -0.828788340268    -1.110548875096    -0.834741532328
    H           -2.920657117979     1.276867359808     1.340611244049
    C           -0.957437336649     0.738176087201     0.700257150686
    H           -0.230537743789    -1.767869712865    -1.436080027565
    C           -0.200060544641    -0.123195412174    -0.084762637930
    H           -0.471631800835     1.499912141874     1.278147294343
    C            1.285869664860    -0.030335150931    -0.156867808978
    O            1.779172400700     0.946894971049     0.589175289235
    O            1.965094302429    -0.754089618334    -0.815402571590
    C            3.187209011498     1.102353618674     0.616157618431
    H            3.518236682956     1.629698423788    -0.268075166897
    H            3.678996264778     0.144773179512     0.677164878507
    H            3.401685101470     1.695291158169     1.492060217398

  Mulliken Charges: (a.u.)
   Center  Symbol    Alpha    Beta     Spin     Total
       1     H     0.39542  0.39542  0.00000  0.20917
       2     C     3.09000  3.09000  0.00000 -0.17999
       3     C     3.10710  3.10710  0.00000 -0.21420
       4     C     3.10715  3.10715  0.00000 -0.21430
       5     H     0.39540  0.39540  0.00000  0.20920
       6     C     3.08644  3.08644  0.00000 -0.17288
       7     H     0.39630  0.39630  0.00000  0.20741
       8     C     3.08711  3.08711  0.00000 -0.17422
       9     H     0.37596  0.37596  0.00000  0.24809
      10     C     3.07725  3.07725  0.00000 -0.15451
      11     H     0.38050  0.38050  0.00000  0.23901
      12     C     2.57957  2.57957  0.00000  0.84086
      13     O     4.31525  4.31525  0.00000 -0.63051
      14     O     4.29172  4.29172  0.00000 -0.58343
      15     C     3.09362  3.09362  0.00000 -0.18723
      16     H     0.41082  0.41082  0.00000  0.17836
      17     H     0.40173  0.40173  0.00000  0.19653
      18     H     0.40867  0.40867  0.00000  0.18266

   Total alpha = 36.00000, Total beta = 36.00000, Total charge =  0.00000
