                              Psi4 1.0.54 Driver

  ==> Input File <==

--------------------------------------------------------------------------
set {
	reference rhf
	basis cc-pvtz
}

set_num_threads( 4 )
memory 2 gb

molecule MOL {
0 1

H	 0.247673	 2.849828	 0.587725
C	 0.794616	 1.907522	 0.447186
C	 0.062554	 0.862911	 -0.350953
O	 1.877573	 1.778362	 0.902901
C	 -1.339253	 0.577611	 0.196911
H	 0.667388	 -0.034163	 -0.381398
H	 -0.021020	 1.246327	 -1.365390
C	 -1.813142	 -0.849710	 -0.061612
H	 -2.032833	 1.276441	 -0.256032
H	 -1.357249	 0.782269	 1.263793
H	 -1.839268	 -1.063526	 -1.124230
H	 -2.810118	 -1.001930	 0.334000
H	 -1.159274	 -1.579980	 0.402282

	symmetry c1
}
set optking {
	frozen_dihedral = ("
		6 3 5 9
	")
}

ee,wfn = optimize('scf', return_wfn=True)
oeprop( wfn, 'DIPOLE', 'QUADRUPOLE', 'MULLIKEN_CHARGES')
f=open( 'psi4out.xyz', 'w' )
f.write( "13  " )
f.write( str(ee) + "\n" )
f.write( MOL.save_string_xyz() )
f.close()
--------------------------------------------------------------------------

    Molecular point group: c1
  Charge       = 0
  Multiplicity = 1
  Basis Set: CC-PVTZ
  Basis Set:
  @DF-RHF Final Energy:  -231.06816491875719
    Total Energy =                       -231.0681649187572759
    Molecular point group: c1
  Basis Set: CC-PVTZ
  Basis Set:
  Basis Set: CC-PVTZ
  Basis Set:
  @DF-RHF Final Energy:  -231.06804509511156
    Total Energy =                       -231.0680450951116995
  Basis Set: CC-PVTZ
  Basis Set:
  Basis Set: CC-PVTZ
  Basis Set:
  @DF-RHF Final Energy:  -231.06565269316934
    Total Energy =                       -231.0656526931695112
  Basis Set: CC-PVTZ
  Basis Set:
  Basis Set: CC-PVTZ
  Basis Set:
  @DF-RHF Final Energy:  -231.06850148967450
    Total Energy =                       -231.0685014896744462
  Basis Set: CC-PVTZ
  Basis Set:
  Basis Set: CC-PVTZ
  Basis Set:
  @DF-RHF Final Energy:  -231.06855544293165
    Total Energy =                       -231.0685554429317392
  Basis Set: CC-PVTZ
  Basis Set:
  Basis Set: CC-PVTZ
  Basis Set:
  @DF-RHF Final Energy:  -231.06856409823183
    Total Energy =                       -231.0685640982318034
  Basis Set: CC-PVTZ
  Basis Set:
  Basis Set: CC-PVTZ
  Basis Set:
  @DF-RHF Final Energy:  -231.06856597907341
    Total Energy =                       -231.0685659790734974
  Basis Set: CC-PVTZ
  Basis Set:
  Charge       = 0
  Multiplicity = 1
  Basis Set: CC-PVTZ
  Basis Set:

    Orbital Energies (a.u.)
    -----------------------

    Doubly Occupied:

       1A    -20.552009     2A    -11.322000     3A    -11.237493
       4A    -11.234559     5A    -11.221787     6A     -1.406966
       7A     -1.087072     8A     -0.977432     9A     -0.839913
      10A     -0.795920    11A     -0.677065    12A     -0.643542
      13A     -0.639478    14A     -0.587288    15A     -0.556808
      16A     -0.539387    17A     -0.509885    18A     -0.494457
      19A     -0.483136    20A     -0.413258

  @DF-RHF Final Energy:  -231.06856627090050

   => Energetics <=

    Nuclear Repulsion Energy =            170.8209865200674074
    One-Electron Energy =                -651.3402018567596770
    Two-Electron Energy =                 249.4506490657919358
    DFT Exchange-Correlation Energy =       0.0000000000000000
    Empirical Dispersion Energy =           0.0000000000000000
    PCM Polarization Energy =               0.0000000000000000
    EFP Energy =                            0.0000000000000000
    Total Energy =                       -231.0685662709003054
    Molecular point group: c1
  Basis Set: CC-PVTZ
  Basis Set:

  -Total Gradient:
     Atom            X                  Y                   Z
    ------   -----------------  -----------------  -----------------
       1        0.000007720606     0.000008348045    -0.000000163485
       2        0.000011996327     0.000004759835     0.000011957594
       3        0.001515273235     0.000307284257     0.003998808824
       4       -0.000016443158     0.000006174034     0.000016869245
       5        0.000378202128     0.002950796223     0.002783854688
       6       -0.001271573168    -0.000719723179    -0.003790365078
       7       -0.000024047451    -0.000015035166     0.000010539950
       8       -0.000006708833    -0.000010712469    -0.000006452801
       9       -0.000608156031    -0.002536094085    -0.003025366158
      10        0.000006109762    -0.000006813510    -0.000002269155
      11       -0.000000025448    -0.000001451571     0.000017950371
      12        0.000017444231     0.000003348412    -0.000009361610
      13       -0.000009792198     0.000009119173    -0.000006002384

  **** Optimization is complete! (in 8 steps) ****
    Final optimized geometry and variables:
    Molecular point group: c1

    Geometry (in Angstrom), charge = 0, multiplicity = 1:

    H            0.289154219904     1.986642829093     0.410564256695
    C            0.863248413688     1.065786808980     0.242654156973
    C            0.151860406511     0.006955248812    -0.550487199469
    O            1.958455622408     0.964259196145     0.676068219695
    C           -1.264148627381    -0.283262676895    -0.024367186419
    H            0.758771632871    -0.888064988913    -0.582250137191
    H            0.083587718091     0.368787651978    -1.574359997413
    C           -1.719314358554    -1.701175973372    -0.358912459547
    H           -1.967130173792     0.411978833166    -0.469656904001
    H           -1.303372699998    -0.140001664419     1.050521605393
    H           -1.697932646934    -1.874799702614    -1.429482373145
    H           -2.731909195503    -1.874656950870    -0.014937212009
    H           -1.076424958216    -2.437964057794     0.108867887131

  Mulliken Charges: (a.u.)
   Center  Symbol    Alpha    Beta     Spin     Total
       1     H     0.46466  0.46466  0.00000  0.07068
       2     C     2.90861  2.90861  0.00000  0.18278
       3     C     3.07945  3.07945  0.00000 -0.15889
       4     O     4.16392  4.16392  0.00000 -0.32785
       5     C     3.09389  3.09389  0.00000 -0.18778
       6     H     0.44325  0.44325  0.00000  0.11351
       7     H     0.44885  0.44885  0.00000  0.10230
       8     C     3.14660  3.14660  0.00000 -0.29319
       9     H     0.45034  0.45034  0.00000  0.09931
      10     H     0.44983  0.44983  0.00000  0.10034
      11     H     0.45309  0.45309  0.00000  0.09383
      12     H     0.44662  0.44662  0.00000  0.10676
      13     H     0.45089  0.45089  0.00000  0.09822

   Total alpha = 20.00000, Total beta = 20.00000, Total charge =  0.00000

*** Psi4 exiting successfully. Buy a developer a beer!
