  ==> Input File <==

--------------------------------------------------------------------------
set {
	reference rhf
	basis cc-pvtz
}

set_num_threads( 4 )
memory 2 gb

molecule MOL {
0 1

H	 2.238528	 -0.950395	 -0.422729
O	 2.063695	 -0.083403	 -0.105237
C	 0.742924	 0.005675	 0.350750
H	 0.731380	 0.039219	 1.440080
C	 -0.064076	 -1.193495	 -0.124425
C	 -0.047832	 1.190568	 -0.194462
H	 0.194729	 -1.376165	 -1.161308
H	 0.163013	 -2.094508	 0.429933
C	 -1.533112	 -0.752002	 0.006102
H	 0.148003	 1.266545	 -1.259275
H	 0.226235	 2.136493	 0.259722
C	 -1.506634	 0.799189	 0.067162
H	 -2.124360	 -1.110499	 -0.826089
H	 -1.983103	 -1.158030	 0.903403
H	 -2.183808	 1.252169	 -0.644677
H	 -1.813926	 1.138698	 1.049457

	symmetry c1
}
set optking {
	frozen_dihedral = ("
		1 2 3 6
	")
}

ee = optimize('scf')
oeprop('DIPOLE', 'QUADRUPOLE', 'MULLIKEN_CHARGES')
f=open( 'psi4out.xyz', 'w' )
f.write( "16  " )
f.write( str(ee) + "\n" )
f.write( MOL.save_string_xyz() )
f.close()
--------------------------------------------------------------------------

    Molecular point group: c1
  Charge       = 0
  Multiplicity = 1
  Basis Set: CC-PVTZ
  Basis Set:
  @DF-RHF Final Energy:  -270.11341697797661
    Total Energy =                       -270.1134169779766125
    Molecular point group: c1
  Basis Set: CC-PVTZ
  Basis Set:
  Basis Set: CC-PVTZ
  Basis Set:
  @DF-RHF Final Energy:  -270.11470523845537
    Total Energy =                       -270.1147052384554286
  Basis Set: CC-PVTZ
  Basis Set:
  Basis Set: CC-PVTZ
  Basis Set:
  @DF-RHF Final Energy:  -270.11486824139513
    Total Energy =                       -270.1148682413952997
  Basis Set: CC-PVTZ
  Basis Set:
  Basis Set: CC-PVTZ
  Basis Set:
  @DF-RHF Final Energy:  -270.11487290325204
    Total Energy =                       -270.1148729032520350
  Basis Set: CC-PVTZ
  Basis Set:
  Charge       = 0
  Multiplicity = 1
  Basis Set: CC-PVTZ
  Basis Set:

    Orbital Energies (a.u.)
    -----------------------

    Doubly Occupied:

       1A    -20.543511     2A    -11.267226     3A    -11.218362
       4A    -11.217588     5A    -11.214790     6A    -11.206952
       7A     -1.363979     8A     -1.117112     9A     -0.969681
      10A     -0.950023    11A     -0.798881    12A     -0.782416
      13A     -0.685304    14A     -0.666849    15A     -0.613673
      16A     -0.601478    17A     -0.575996    18A     -0.531469
      19A     -0.502734    20A     -0.484661    21A     -0.473278
      22A     -0.459007    23A     -0.447289    24A     -0.424008

  @DF-RHF Final Energy:  -270.11487349918497

   => Energetics <=

    Nuclear Repulsion Energy =            255.6348510961908573
    One-Electron Energy =                -873.2669142446554815
    Two-Electron Energy =                 347.5171896492794303
    DFT Exchange-Correlation Energy =       0.0000000000000000
    Empirical Dispersion Energy =           0.0000000000000000
    PCM Polarization Energy =               0.0000000000000000
    EFP Energy =                            0.0000000000000000
    Total Energy =                       -270.1148734991851370
    Molecular point group: c1
  Basis Set: CC-PVTZ
  Basis Set:

  -Total Gradient:
     Atom            X                  Y                   Z
    ------   -----------------  -----------------  -----------------
       1       -0.000294658391     0.000297741872    -0.000921818037
       2        0.000254688150    -0.000528571115     0.000929722045
       3        0.000168312046     0.000599393329     0.000531418602
       4        0.000006267138    -0.000000118241     0.000003503339
       5        0.000061561720     0.000042203854    -0.000041042393
       6       -0.000164638441    -0.000354643918    -0.000532633599
       7       -0.000006580076    -0.000026461284     0.000001938924
       8        0.000001031422     0.000033136390    -0.000002517705
       9       -0.000036446359     0.000019581899     0.000034715144
      10        0.000024033745    -0.000011059012    -0.000005548573
      11        0.000019844161    -0.000009763991     0.000002728907
      12        0.000005759043    -0.000029333060    -0.000005251181
      13       -0.000008595205     0.000000894082    -0.000019313754
      14       -0.000024628753    -0.000001860979    -0.000013748162
      15       -0.000003586542    -0.000022924518     0.000018091103
      16       -0.000002363651    -0.000008215309     0.000019755340

  **** Optimization is complete! (in 5 steps) ****
    Final optimized geometry and variables:
    Molecular point group: c1

    Geometry (in Angstrom), charge = 0, multiplicity = 1:

    H            2.319271981510    -0.842477230767    -0.412909870016
    O            2.083105704761    -0.004451321837    -0.062790511989
    C            0.742758691343    -0.002375417797     0.348705380142
    H            0.720216374460     0.032146289202     1.436182414106
    C           -0.081149607632    -1.194674616320    -0.129389683465
    C           -0.033547149090     1.185410004456    -0.201462063777
    H            0.155488622300    -1.376938545174    -1.174433664489
    H            0.134150076226    -2.104364636601     0.418742164139
    C           -1.544070417543    -0.736776819654     0.014713673313
    H            0.159111013105     1.252845399643    -1.267363532910
    H            0.261422642099     2.126200276490     0.245082096398
    C           -1.495348630694     0.813993867325     0.070575090367
    H           -2.147095955648    -1.092185827916    -0.810306924702
    H           -1.987039508236    -1.136835147842     0.917861081089
    H           -2.172075635816     1.272102762684    -0.638266475041
    H           -1.792232770086     1.159338049054     1.053844856557

  Mulliken Charges: (a.u.)
   Center  Symbol    Alpha    Beta     Spin     Total
       1     H     0.39101  0.39101  0.00000  0.21798
       2     O     4.20773  4.20773  0.00000 -0.41546
       3     C     2.92349  2.92349  0.00000  0.15302
       4     H     0.45936  0.45936  0.00000  0.08129
       5     C     3.11961  3.11961  0.00000 -0.23923
       6     C     3.09076  3.09076  0.00000 -0.18153
       7     H     0.45611  0.45611  0.00000  0.08778
       8     H     0.44175  0.44175  0.00000  0.11650
       9     C     3.10970  3.10970  0.00000 -0.21941
      10     H     0.45715  0.45715  0.00000  0.08570
      11     H     0.44389  0.44389  0.00000  0.11222
      12     C     3.11435  3.11435  0.00000 -0.22869
      13     H     0.44503  0.44503  0.00000  0.10993
      14     H     0.44701  0.44701  0.00000  0.10598
      15     H     0.44335  0.44335  0.00000  0.11330
      16     H     0.44969  0.44969  0.00000  0.10061

   Total alpha = 24.00000, Total beta = 24.00000, Total charge = -0.00000
