                              Psi4 1.0.54 Driver

  ==> Input File <==

--------------------------------------------------------------------------
set {
	reference rhf
	basis cc-pvtz
}

set_num_threads( 4 )
memory 2 gb

molecule MOL {
0 1

H	 -3.642953	 0.223825	 0.000000
C	 -2.571844	 0.155001	 0.000000
C	 -1.957580	 -1.086132	 0.000000
C	 -1.807160	 1.303787	 0.000000
H	 -2.551493	 -1.979629	 0.000000
C	 -0.582719	 -1.174294	 0.000000
H	 -2.279934	 2.266806	 0.000000
C	 -0.427220	 1.213406	 0.000000
H	 -0.094904	 -2.127556	 0.000000
C	 0.196908	 -0.024061	 0.000000
H	 0.151409	 2.115254	 0.000000
C	 1.690041	 -0.173233	 0.000000
C	 2.534557	 0.892191	 0.660547
O	 2.202866	 -1.116500	 -0.512464
H	 2.370216	 1.856135	 0.193872
H	 3.572491	 0.617024	 0.562038
H	 2.283175	 0.984904	 1.710400

	symmetry c1
}
set optking {
	frozen_dihedral = ("
		13 12 10 8
	")
}

ee,wfn = optimize('scf', return_wfn=True)
oeprop( wfn, 'DIPOLE', 'QUADRUPOLE', 'MULLIKEN_CHARGES')
f=open( 'psi4out.xyz', 'w' )
f.write( "17  " )
f.write( str(ee) + "\n" )
f.write( MOL.save_string_xyz() )
f.close()
--------------------------------------------------------------------------

    Molecular point group: c1
  Charge       = 0
  Multiplicity = 1
  Basis Set: CC-PVTZ
  Basis Set:
  @DF-RHF Final Energy:  -382.60371678215006
    Total Energy =                       -382.6037167821497178
    Molecular point group: c1
  Basis Set: CC-PVTZ
  Basis Set:
  Basis Set: CC-PVTZ
  Basis Set:
  @DF-RHF Final Energy:  -382.60116584457478
    Total Energy =                       -382.6011658445751209
  Basis Set: CC-PVTZ
  Basis Set:
  Basis Set: CC-PVTZ
  Basis Set:
  @DF-RHF Final Energy:  -382.60402021173985
    Total Energy =                       -382.6040202117396802
  Basis Set: CC-PVTZ
  Basis Set:
  Basis Set: CC-PVTZ
  Basis Set:
  @DF-RHF Final Energy:  -382.60414071282554
    Total Energy =                       -382.6041407128257106
  Basis Set: CC-PVTZ
  Basis Set:
  Basis Set: CC-PVTZ
  Basis Set:
  @DF-RHF Final Energy:  -382.60415017299943
    Total Energy =                       -382.6041501729996526
  Basis Set: CC-PVTZ
  Basis Set:
  Basis Set: CC-PVTZ
  Basis Set:
  @DF-RHF Final Energy:  -382.60417123874083
    Total Energy =                       -382.6041712387410598
  Basis Set: CC-PVTZ
  Basis Set:
  Basis Set: CC-PVTZ
  Basis Set:
  @DF-RHF Final Energy:  -382.60417511306406
    Total Energy =                       -382.6041751130640023
  Basis Set: CC-PVTZ
  Basis Set:
  Charge       = 0
  Multiplicity = 1
  Basis Set: CC-PVTZ
  Basis Set:

    Orbital Energies (a.u.)
    -----------------------

    Doubly Occupied:

       1A    -20.541754     2A    -11.328132     3A    -11.246276
       4A    -11.243222     5A    -11.243158     6A    -11.239387
       7A    -11.239015     8A    -11.236936     9A    -11.229349
      10A     -1.402858    11A     -1.171184    12A     -1.053407
      13A     -1.030569    14A     -0.999307    15A     -0.864229
      16A     -0.839522    17A     -0.763931    18A     -0.711657
      19A     -0.660170    20A     -0.651767    21A     -0.627887
      22A     -0.615824    23A     -0.602999    24A     -0.596142
      25A     -0.557889    26A     -0.530640    27A     -0.519341
      28A     -0.504605    29A     -0.497084    30A     -0.414573
      31A     -0.350340    32A     -0.346825

  @DF-RHF Final Energy:  -382.60417616211464

   => Energetics <=

    Nuclear Repulsion Energy =            404.3618061301320949
    One-Electron Energy =               -1320.2120065780363802
    Two-Electron Energy =                 533.2460242857891899
    DFT Exchange-Correlation Energy =       0.0000000000000000
    Empirical Dispersion Energy =           0.0000000000000000
    PCM Polarization Energy =               0.0000000000000000
    EFP Energy =                            0.0000000000000000
    Total Energy =                       -382.6041761621150954
    Molecular point group: c1
  Basis Set: CC-PVTZ
  Basis Set:

  -Total Gradient:
     Atom            X                  Y                   Z
    ------   -----------------  -----------------  -----------------
       1       -0.000000319204    -0.000000377828     0.000007928350
       2       -0.000000733512     0.000010535561    -0.000016679323
       3       -0.000001957878    -0.000003649987    -0.000007929972
       4       -0.000016182566    -0.000011105774     0.000003768392
       5        0.000000745449     0.000000026398     0.000001736980
       6        0.000020542704     0.000000149617     0.000021059648
       7        0.000001550873     0.000001299886     0.000001780853
       8       -0.000041668228    -0.000003437673    -0.002811327625
       9       -0.000001010922    -0.000005148129    -0.000005232184
      10        0.000023164578    -0.000567010078     0.005233897785
      11       -0.000007104723     0.000000793542     0.000000522463
      12        0.000132123730     0.001830910876    -0.004591827932
      13       -0.000082780793    -0.001232264258     0.002176809419
      14       -0.000023076248    -0.000016429229    -0.000001472491
      15       -0.000005877164     0.000000506360    -0.000010368722
      16        0.000002676120    -0.000000713469     0.000001438685
      17       -0.000000092211    -0.000004085819    -0.000004104328

  **** Optimization is complete! (in 8 steps) ****
    Final optimized geometry and variables:
    Molecular point group: c1

    Geometry (in Angstrom), charge = 0, multiplicity = 1:

    H           -3.640752178645     0.222485543915    -0.034000997675
    C           -2.569599272817     0.155372809155    -0.025004005042
    C           -1.953353519228    -1.084182371559    -0.042582737149
    C           -1.806377551498     1.305308348537     0.000607902012
    H           -2.545652340887    -1.978545630308    -0.065250048160
    C           -0.577545301433    -1.170275503885    -0.041266195070
    H           -2.280652658939     2.267689472305     0.004214778079
    C           -0.426558365018     1.217325035249     0.021930802693
    H           -0.089521161951    -2.123369849126    -0.076942815182
    C            0.197536995281    -0.019407740573     0.005798605298
    H            0.153457991561     2.118806251017     0.045711363207
    C            1.691291852203    -0.160856755514    -0.031005059256
    C            2.535447144153     0.915119524670     0.612891135348
    O            2.193832361780    -1.124257180357    -0.513358909654
    H            2.464623793103     1.843479000978     0.057910845966
    H            3.563992871853     0.590241003874     0.623180957261
    H            2.195638215929     1.109081324531     1.622822306755

  Mulliken Charges: (a.u.)
   Center  Symbol    Alpha    Beta     Spin     Total
       1     H     0.42053  0.42053  0.00000  0.15895
       2     C     3.07563  3.07563  0.00000 -0.15125
       3     C     3.07090  3.07090  0.00000 -0.14180
       4     C     3.07265  3.07265  0.00000 -0.14530
       5     H     0.42054  0.42054  0.00000  0.15893
       6     C     3.08066  3.08066  0.00000 -0.16132
       7     H     0.42195  0.42195  0.00000  0.15609
       8     C     3.08810  3.08810  0.00000 -0.17621
       9     H     0.41021  0.41021  0.00000  0.17958
      10     C     2.99758  2.99758  0.00000  0.00484
      11     H     0.42277  0.42277  0.00000  0.15446
      12     C     2.85076  2.85076  0.00000  0.29848
      13     C     3.16220  3.16220  0.00000 -0.32439
      14     O     4.17810  4.17810  0.00000 -0.35620
      15     H     0.45012  0.45012  0.00000  0.09975
      16     H     0.43282  0.43282  0.00000  0.13437
      17     H     0.44448  0.44448  0.00000  0.11103

   Total alpha = 32.00000, Total beta = 32.00000, Total charge = -0.00000

*** Psi4 exiting successfully. Buy a developer a beer!
