  ==> Input File <==

--------------------------------------------------------------------------
set {
	reference rhf
	basis 6-31G*
}

set_num_threads( 4 )
memory 2 gb

molecule MOL {
0 1

O	 0.749854	 1.307668	 -0.000040
C	 0.576249	 0.131685	 -0.000108
C	 -0.766779	 -0.556801	 -0.000461
O	 1.568443	 -0.749345	 -0.000005
C	 -1.945214	 0.412366	 0.000161
H	 -0.796911	 -1.211249	 -0.867467
H	 -0.796854	 -1.212390	 0.865687
C	 -3.287791	 -0.317055	 0.000105
H	 -1.876087	 1.060580	 -0.866812
H	 -1.875822	 1.059691	 0.867761
H	 -3.394745	 -0.949193	 -0.877058
H	 -4.111778	 0.388953	 0.000015
H	 -3.394954	 -0.949187	 0.877259
C	 2.587409	 -0.569614	 0.966748
H	 3.073581	 0.386073	 0.833172
H	 3.290314	 -1.372318	 0.807197
H	 2.177783	 -0.623343	 1.965162

	symmetry c1
}
set optking {
	frozen_dihedral = ("
		14 4 2 1
	")
}

ee = optimize('scf')
oeprop('DIPOLE', 'QUADRUPOLE', 'MULLIKEN_CHARGES')
f=open( 'psi4out.xyz', 'w' )
f.write( "17  " )
f.write( str(ee) + "\n" )
f.write( MOL.save_string_xyz() )
f.close()
--------------------------------------------------------------------------

    Molecular point group: c1
  Charge       = 0
  Multiplicity = 1
  Basis Set: 6-31G*
  Basis Set:
  @DF-RHF Final Energy:  -344.89493542535001
    Total Energy =                       -344.8949354253500132
    Molecular point group: c1
  Basis Set: 6-31G*
  Basis Set:
  Basis Set: 6-31G*
  Basis Set:
  @DF-RHF Final Energy:  -344.89252672189201
    Total Energy =                       -344.8925267218924091
  Basis Set: 6-31G*
  Basis Set:
  Basis Set: 6-31G*
  Basis Set:
  @DF-RHF Final Energy:  -344.89572812821399
    Total Energy =                       -344.8957281282140457
  Basis Set: 6-31G*
  Basis Set:
  Basis Set: 6-31G*
  Basis Set:
  @DF-RHF Final Energy:  -344.89580136986456
    Total Energy =                       -344.8958013698647278
  Basis Set: 6-31G*
  Basis Set:
  Basis Set: 6-31G*
  Basis Set:
  @DF-RHF Final Energy:  -344.89580865573055
    Total Energy =                       -344.8958086557311162
  Basis Set: 6-31G*
  Basis Set:
  Charge       = 0
  Multiplicity = 1
  Basis Set: 6-31G*
  Basis Set:

    Orbital Energies (a.u.)
    -----------------------

    Doubly Occupied:

       1A    -20.593066     2A    -20.552113     3A    -11.374474
       4A    -11.285884     5A    -11.237147     6A    -11.222679
       7A    -11.215296     8A     -1.462647     9A     -1.365240
      10A     -1.080511    11A     -0.997525    12A     -0.943705
      13A     -0.829962    14A     -0.765473    15A     -0.699530
      16A     -0.678418    17A     -0.672808    18A     -0.635310
      19A     -0.606530    20A     -0.576986    21A     -0.566672
      22A     -0.532105    23A     -0.520760    24A     -0.497496
      25A     -0.488817    26A     -0.479487    27A     -0.453803
      28A     -0.435531

  @DF-RHF Final Energy:  -344.89580961355938

   => Energetics <=

    Nuclear Repulsion Energy =            311.8678404511767326
    One-Electron Energy =               -1087.9873447891718570
    Two-Electron Energy =                 431.2236947244352905
    DFT Exchange-Correlation Energy =       0.0000000000000000
    Empirical Dispersion Energy =           0.0000000000000000
    PCM Polarization Energy =               0.0000000000000000
    EFP Energy =                            0.0000000000000000
    Total Energy =                       -344.8958096135597771
    Molecular point group: c1
  Basis Set: 6-31G*
  Basis Set:

  -Total Gradient:
     Atom            X                  Y                   Z
    ------   -----------------  -----------------  -----------------
       1       -0.000707998135     0.000047656233    -0.009675774418
       2       -0.000719509168    -0.002158383503     0.016792610656
       3        0.000035756650     0.000022459605     0.000049370798
       4        0.004906507826     0.006522530186    -0.012233443318
       5       -0.000004410461    -0.000015871264    -0.000043547235
       6       -0.000000972423     0.000014679532    -0.000021700287
       7        0.000008798020    -0.000011041885    -0.000019871985
       8       -0.000006790979     0.000004802627     0.000017549764
       9        0.000006498416    -0.000001740339    -0.000000972688
      10       -0.000005097021     0.000003318369     0.000003283814
      11       -0.000000149520     0.000006688177    -0.000005477633
      12        0.000000989491    -0.000001344114     0.000005889706
      13        0.000001785594    -0.000006012866    -0.000000968259
      14       -0.003527492852    -0.004404786555     0.005131384236
      15        0.000005372183    -0.000012538530     0.000000065912
      16       -0.000004663403     0.000000277197    -0.000004793096
      17        0.000011375775    -0.000010692866     0.000006394032

  **** Optimization is complete! (in 6 steps) ****
    Final optimized geometry and variables:
    Molecular point group: c1

    Geometry (in Angstrom), charge = 0, multiplicity = 1:

    O            0.781687676442     1.357558253726    -0.072721494378
    C            0.608747550009     0.185112930562    -0.072004887074
    C           -0.735801231262    -0.496381209153    -0.106097493325
    O            1.614823987055    -0.699925600931    -0.148307594559
    C           -1.913622719052     0.469012048964    -0.191799649954
    H           -0.725563400662    -1.185447612771    -0.946291222769
    H           -0.802965841264    -1.121060935177     0.782185768952
    C           -3.255334673233    -0.261502057504    -0.218939871922
    H           -1.808203377627     1.082123301229    -1.080596602052
    H           -1.880281470983     1.150772947136     0.651261701787
    H           -3.326414285105    -0.926753251033    -1.074920524745
    H           -4.078446091751     0.442854390636    -0.279585045314
    H           -3.398468937571    -0.859851201956     0.676647083510
    C            2.697696014799    -0.527585215334     0.746480534915
    H            3.130829891969     0.456789067783     0.644877602780
    H            3.426654356068    -1.280474473041     0.490156257682
    H            2.366172222233    -0.678760740494     1.767180825684

  Mulliken Charges: (a.u.)
   Center  Symbol    Alpha    Beta     Spin     Total
       1     O     4.26953  4.26953  0.00000 -0.53906
       2     C     2.60664  2.60664  0.00000  0.78672
       3     C     3.20910  3.20910  0.00000 -0.41821
       4     O     4.31355  4.31355  0.00000 -0.62710
       5     C     3.15247  3.15247  0.00000 -0.30495
       6     H     0.39852  0.39852  0.00000  0.20295
       7     H     0.40520  0.40520  0.00000  0.18959
       8     C     3.24264  3.24264  0.00000 -0.48527
       9     H     0.41055  0.41055  0.00000  0.17890
      10     H     0.41114  0.41114  0.00000  0.17772
      11     H     0.42087  0.42087  0.00000  0.15825
      12     H     0.41498  0.41498  0.00000  0.17005
      13     H     0.42180  0.42180  0.00000  0.15640
      14     C     3.09523  3.09523  0.00000 -0.19047
      15     H     0.40269  0.40269  0.00000  0.19463
      16     H     0.40584  0.40584  0.00000  0.18832
      17     H     0.41924  0.41924  0.00000  0.16152

   Total alpha = 28.00000, Total beta = 28.00000, Total charge =  0.00000
