                              Psi4 1.0.54 Driver

  ==> Input File <==

--------------------------------------------------------------------------
set {
	reference rhf
	basis cc-pvtz
}

set_num_threads( 4 )
memory 2 gb

molecule MOL {
0 1

H	 -1.901817	 -2.814749	 -1.318820
C	 -2.504478	 -1.902466	 -1.211933
C	 -2.428970	 -1.248073	 0.140828
O	 -3.154057	 -1.513047	 -2.119516
C	 -0.988936	 -1.004035	 0.601720
H	 -2.999667	 -0.328965	 0.111167
H	 -2.918266	 -1.922985	 0.839675
C	 -0.247837	 0.040196	 -0.230469
H	 -1.009772	 -0.689310	 1.639435
H	 -0.440870	 -1.942883	 0.582197
C	 1.181757	 0.280428	 0.247371
H	 -0.801029	 0.975185	 -0.200795
H	 -0.230460	 -0.265055	 -1.273516
C	 2.151032	 -0.811012	 -0.202643
H	 1.515939	 1.247397	 -0.115449
H	 1.191514	 0.341223	 1.333422
C	 3.580021	 -0.656538	 0.320835
H	 2.170545	 -0.847575	 -1.289412
H	 1.766632	 -1.772905	 0.124928
C	 4.327657	 0.562694	 -0.213579
H	 4.138806	 -1.549270	 0.057813
H	 3.561991	 -0.620783	 1.406976
H	 4.355973	 0.557257	 -1.298551
H	 3.867136	 1.491650	 0.100501
H	 5.351524	 0.571613	 0.142204

	symmetry c1
}
set optking {
	frozen_dihedral = ("
		12 8 11 14
	")
}

ee,wfn = optimize('scf', return_wfn=True)
oeprop( wfn, 'DIPOLE', 'QUADRUPOLE', 'MULLIKEN_CHARGES')
f=open( 'psi4out.xyz', 'w' )
f.write( "25  " )
f.write( str(ee) + "\n" )
f.write( MOL.save_string_xyz() )
f.close()
--------------------------------------------------------------------------

    Molecular point group: c1
  Charge       = 0
  Multiplicity = 1
  Basis Set: CC-PVTZ
  Basis Set:
  @DF-RHF Final Energy:  -387.25791606691445
    Total Energy =                       -387.2579160669142766
    Molecular point group: c1
  Basis Set: CC-PVTZ
  Basis Set:
  Basis Set: CC-PVTZ
  Basis Set:
  @DF-RHF Final Energy:  -387.25815493606041
    Total Energy =                       -387.2581549360604640
  Basis Set: CC-PVTZ
  Basis Set:
  Basis Set: CC-PVTZ
  Basis Set:
  @DF-RHF Final Energy:  -387.25817521359636
    Total Energy =                       -387.2581752135968145
  Basis Set: CC-PVTZ
  Basis Set:
  Basis Set: CC-PVTZ
  Basis Set:
  @DF-RHF Final Energy:  -387.25791084243349
    Total Energy =                       -387.2579108424332617
  Basis Set: CC-PVTZ
  Basis Set:
  Basis Set: CC-PVTZ
  Basis Set:
  @DF-RHF Final Energy:  -387.25818910406667
    Total Energy =                       -387.2581891040665596
  Basis Set: CC-PVTZ
  Basis Set:
  Charge       = 0
  Multiplicity = 1
  Basis Set: CC-PVTZ
  Basis Set:

    Orbital Energies (a.u.)
    -----------------------

    Doubly Occupied:

       1A    -20.551252     2A    -11.320885     3A    -11.233672
       4A    -11.232519     5A    -11.222017     6A    -11.217966
       7A    -11.217317     8A    -11.216382     9A    -11.208982
      10A     -1.406267    11A     -1.105341    12A     -1.070466
      13A     -1.013942    14A     -0.942054    15A     -0.881743
      16A     -0.821744    17A     -0.791615    18A     -0.777417
      19A     -0.669026    20A     -0.653134    21A     -0.635115
      22A     -0.627476    23A     -0.612915    24A     -0.594104
      25A     -0.571024    26A     -0.565009    27A     -0.532019
      28A     -0.523098    29A     -0.518685    30A     -0.497926
      31A     -0.489503    32A     -0.480482    33A     -0.465097
      34A     -0.451261    35A     -0.447106    36A     -0.411750

  @DF-RHF Final Energy:  -387.25818995412743

   => Energetics <=

    Nuclear Repulsion Energy =            444.0468531798523486
    One-Electron Energy =               -1404.6574737584955983
    Two-Electron Energy =                 573.3524306245157049
    DFT Exchange-Correlation Energy =       0.0000000000000000
    Empirical Dispersion Energy =           0.0000000000000000
    PCM Polarization Energy =               0.0000000000000000
    EFP Energy =                            0.0000000000000000
    Total Energy =                       -387.2581899541274879
    Molecular point group: c1
  Basis Set: CC-PVTZ
  Basis Set:

  -Total Gradient:
     Atom            X                  Y                   Z
    ------   -----------------  -----------------  -----------------
       1        0.000081501258     0.000030737381    -0.000015214069
       2       -0.000167760955    -0.000130204512     0.000155122956
       3        0.000013650081    -0.000011899703    -0.000041213979
       4        0.000045332508     0.000087516428    -0.000042137772
       5       -0.000044534184     0.000098174385     0.000004743764
       6        0.000003645610    -0.000000711528     0.000012214722
       7       -0.000016834440    -0.000023439401    -0.000046770544
       8       -0.000354558364    -0.000174333486     0.001270393110
       9        0.000005098368    -0.000001330385    -0.000001775817
      10        0.000005551882     0.000016484843    -0.000007338142
      11       -0.000228019729    -0.000692857983     0.000944854861
      12        0.000354890897     0.000255622802    -0.001350483719
      13       -0.000022248484    -0.000016930085    -0.000011536976
      14        0.000234889126     0.000589746422    -0.000879829911
      15        0.000023330215     0.000018187893     0.000018014906
      16        0.000016601448    -0.000002755914     0.000008906437
      17        0.000015895918    -0.000038653752    -0.000008032703
      18        0.000002502409     0.000002375427     0.000011132144
      19        0.000013557994     0.000003255978    -0.000010527263
      20        0.000003980851     0.000006687370    -0.000005982172
      21        0.000020594487    -0.000009727785     0.000015841049
      22       -0.000013262988     0.000007556773    -0.000010953557
      23        0.000001307932     0.000006366719    -0.000010285604
      24        0.000010552570    -0.000012007477     0.000004257447
      25       -0.000005664415    -0.000007860411    -0.000003399170

  **** Optimization is complete! (in 6 steps) ****
    Final optimized geometry and variables:
    Molecular point group: c1

    Geometry (in Angstrom), charge = 0, multiplicity = 1:

    H           -2.149352164442    -2.124933868483    -1.019236078541
    C           -2.740990304211    -1.205211207364    -0.914283052563
    C           -2.666879545117    -0.555022264721     0.440518091061
    O           -3.377906730302    -0.804265699434    -1.825845105183
    C           -1.227099837260    -0.336274763800     0.915191823416
    H           -3.221974914338     0.373513816819     0.407773500763
    H           -3.173911945980    -1.223347977213     1.133032725083
    C           -0.468694306530     0.704145907655     0.091608972802
    H           -1.252636554000    -0.020023688295     1.952388439401
    H           -0.700498704469    -1.285752718774     0.901498306077
    C            0.970546539890     0.948686130047     0.555852341926
    H           -1.017331679207     1.640487098248     0.123423204813
    H           -0.457660021108     0.409684323256    -0.955026092607
    C            1.959694161932    -0.131286944930     0.115440763186
    H            1.295023792310     1.906054465107     0.164487702765
    H            0.990531635637     1.041772217939     1.639395766834
    C            3.385282921496     0.057228662388     0.638373907224
    H            1.979955941873    -0.168770801991    -0.971211777607
    H            1.605446354196    -1.103082597211     0.445176013759
    C            4.105130321500     1.292542102203     0.102636432670
    H            3.964568836044    -0.822789020536     0.376460612103
    H            3.366288015367     0.093925626354     1.724449834654
    H            4.128975271273     1.289383372518    -0.982420609133
    H            3.627519469459     2.211421203787     0.420238376700
    H            5.130056663361     1.321237227969     0.454235342022

  Mulliken Charges: (a.u.)
   Center  Symbol    Alpha    Beta     Spin     Total
       1     H     0.46381  0.46381  0.00000  0.07239
       2     C     2.90556  2.90556  0.00000  0.18889
       3     C     3.08809  3.08809  0.00000 -0.17619
       4     O     4.16617  4.16617  0.00000 -0.33234
       5     C     3.11387  3.11387  0.00000 -0.22773
       6     H     0.44293  0.44293  0.00000  0.11414
       7     H     0.44048  0.44048  0.00000  0.11904
       8     C     3.10022  3.10022  0.00000 -0.20044
       9     H     0.44295  0.44295  0.00000  0.11409
      10     H     0.44965  0.44965  0.00000  0.10071
      11     C     3.10188  3.10188  0.00000 -0.20375
      12     H     0.44271  0.44271  0.00000  0.11458
      13     H     0.44755  0.44755  0.00000  0.10490
      14     C     3.09638  3.09638  0.00000 -0.19275
      15     H     0.44283  0.44283  0.00000  0.11434
      16     H     0.45422  0.45422  0.00000  0.09157
      17     C     3.08971  3.08971  0.00000 -0.17943
      18     H     0.45241  0.45241  0.00000  0.09518
      19     H     0.44945  0.44945  0.00000  0.10110
      20     C     3.15267  3.15267  0.00000 -0.30534
      21     H     0.44817  0.44817  0.00000  0.10366
      22     H     0.45438  0.45438  0.00000  0.09123
      23     H     0.45412  0.45412  0.00000  0.09176
      24     H     0.45373  0.45373  0.00000  0.09253
      25     H     0.44606  0.44606  0.00000  0.10789

   Total alpha = 36.00000, Total beta = 36.00000, Total charge = -0.00000

*** Psi4 exiting successfully. Buy a developer a beer!
