  ==> Input File <==

--------------------------------------------------------------------------
set {
	reference rhf
	basis 6-31G*
}

set_num_threads( 1 )
memory 2 gb

molecule MOL {
0 1

O	 -0.077441	 0.311629	 2.391259
C	 -0.667482	 0.726503	 1.446800
C	 -1.546483	 1.947856	 1.446604
O	 -0.632575	 0.154573	 0.251549
H	 -2.553961	 1.673951	 1.155208
H	 -1.553540	 2.389618	 2.431811
H	 -1.178167	 2.663870	 0.721053
C	 0.160891	 -1.019931	 0.106212
C	 1.589627	 -0.672828	 0.480843
H	 0.089836	 -1.367806	 -0.916050
H	 -0.238459	 -1.792301	 0.749618
C	 2.246377	 0.346236	 -0.452210
H	 2.163194	 -1.597435	 0.473358
H	 1.604769	 -0.303424	 1.502885
C	 3.691736	 0.652107	 -0.061850
H	 2.219579	 -0.032311	 -1.472055
H	 1.666466	 1.263317	 -0.447249
H	 4.134505	 1.377213	 -0.737283
H	 4.305508	 -0.243868	 -0.089969
H	 3.748266	 1.059562	 0.943567

	symmetry c1
}
set optking {
	frozen_dihedral = ("
		16 12 9 8,
		12 9 8 10,
		1 2 4 8
	")
}

ee = energy('scf')
oeprop('DIPOLE', 'QUADRUPOLE', 'MULLIKEN_CHARGES')
f=open( 'psi4out.xyz', 'w' )
f.write( "20  " )
f.write( str(ee) + "\n" )
f.write( MOL.save_string_xyz() )
f.close()
--------------------------------------------------------------------------

    Molecular point group: c1

    Geometry (in Angstrom), charge = 0, multiplicity = 1:

       Center              X                  Y                   Z               Mass
    ------------   -----------------  -----------------  -----------------  -----------------
           O         -0.670634257619    -0.001475995307     1.683003547094    15.994914619560
           C         -1.260675257619     0.413398004693     0.738544547094    12.000000000000
           C         -2.139676257619     1.634751004693     0.738348547094    12.000000000000
           O         -1.225768257619    -0.158531995307    -0.456706452906    15.994914619560
           H         -3.147154257619     1.360846004693     0.446952547094     1.007825032070
           H         -2.146733257619     2.076513004693     1.723555547094     1.007825032070
           H         -1.771360257619     2.350765004693     0.012797547094     1.007825032070
           C         -0.432302257619    -1.333035995307    -0.602043452906    12.000000000000
           C          0.996433742381    -0.985932995307    -0.227412452906    12.000000000000
           H         -0.503357257619    -1.680910995307    -1.624305452906     1.007825032070
           H         -0.831652257619    -2.105405995307     0.041362547094     1.007825032070
           C          1.653183742381     0.033131004693    -1.160465452906    12.000000000000
           H          1.570000742381    -1.910539995307    -0.234897452906     1.007825032070
           H          1.011575742381    -0.616528995307     0.794629547094     1.007825032070
           C          3.098542742381     0.339002004693    -0.770105452906    12.000000000000
           H          1.626385742381    -0.345415995307    -2.180310452906     1.007825032070
           H          1.073272742381     0.950212004693    -1.155504452906     1.007825032070
           H          3.541311742381     1.064108004693    -1.445538452906     1.007825032070
           H          3.712314742381    -0.556972995307    -0.798224452906     1.007825032070
           H          3.155072742381     0.746457004693     0.235311547094     1.007825032070

  Charge       = 0
  Multiplicity = 1
  Basis Set: 6-31G*
  Basis Set:

    Orbital Energies (a.u.)
    -----------------------

    Doubly Occupied:

       1A    -20.602262     2A    -20.545478     3A    -11.378159
       4A    -11.283229     5A    -11.234934     6A    -11.215555
       7A    -11.208243     8A    -11.206652     9A     -1.471694
      10A     -1.365709    11A     -1.079039    12A     -1.028156
      13A     -0.976400    14A     -0.886559    15A     -0.813200
      16A     -0.753238    17A     -0.700006    18A     -0.687020
      19A     -0.665217    20A     -0.627001    21A     -0.599021
      22A     -0.592690    23A     -0.569337    24A     -0.564583
      25A     -0.542252    26A     -0.519841    27A     -0.512238
      28A     -0.490753    29A     -0.471512    30A     -0.465667
      31A     -0.441759    32A     -0.425101

  @DF-RHF Final Energy:  -383.93384918591244

   => Energetics <=

    Nuclear Repulsion Energy =            400.3075399296502610
    One-Electron Energy =               -1316.6377277325493651
    Two-Electron Energy =                 532.3963386169865544
    DFT Exchange-Correlation Energy =       0.0000000000000000
    Empirical Dispersion Energy =           0.0000000000000000
    PCM Polarization Energy =               0.0000000000000000
    EFP Energy =                            0.0000000000000000
    Total Energy =                       -383.9338491859125497

  Mulliken Charges: (a.u.)
   Center  Symbol    Alpha    Beta     Spin     Total
       1     O     4.28509  4.28509  0.00000 -0.57019
       2     C     2.61720  2.61720  0.00000  0.76560
       3     C     3.28174  3.28174  0.00000 -0.56348
       4     O     4.30840  4.30840  0.00000 -0.61680
       5     H     0.39939  0.39939  0.00000  0.20122
       6     H     0.39700  0.39700  0.00000  0.20601
       7     H     0.40025  0.40025  0.00000  0.19951
       8     C     3.00546  3.00546  0.00000 -0.01092
       9     C     3.19038  3.19038  0.00000 -0.38077
      10     H     0.40784  0.40784  0.00000  0.18432
      11     H     0.40804  0.40804  0.00000  0.18392
      12     C     3.15142  3.15142  0.00000 -0.30283
      13     H     0.42328  0.42328  0.00000  0.15344
      14     H     0.37884  0.37884  0.00000  0.24232
      15     C     3.23925  3.23925  0.00000 -0.47851
      16     H     0.42553  0.42553  0.00000  0.14895
      17     H     0.42080  0.42080  0.00000  0.15841
      18     H     0.41952  0.41952  0.00000  0.16096
      19     H     0.42166  0.42166  0.00000  0.15668
      20     H     0.41892  0.41892  0.00000  0.16217

   Total alpha = 32.00000, Total beta = 32.00000, Total charge =  0.00000
