  ==> Input File <==

--------------------------------------------------------------------------
set {
	reference rhf
	basis cc-pvtz
}

set_num_threads( 4 )
memory 2 gb

molecule MOL {
0 1

H	 -1.752232	 -2.214755	 -0.011938
C	 -1.343852	 -1.221619	 -0.018179
N	 -0.058800	 -1.097635	 -0.261688
C	 -2.148159	 -0.124236	 0.219734
C	 0.449026	 0.119242	 -0.273393
H	 -3.196988	 -0.237571	 0.417076
N	 -1.655094	 1.094230	 0.209506
C	 -0.370318	 1.215445	 -0.035100
C	 1.924033	 0.265863	 -0.538106
H	 0.033214	 2.210441	 -0.046812
C	 2.228208	 0.634675	 -1.991001
H	 2.309634	 1.037619	 0.117232
H	 2.429062	 -0.657347	 -0.279567
H	 3.294327	 0.764556	 -2.134028
H	 1.733509	 1.558418	 -2.261094
H	 1.890183	 -0.140586	 -2.669423

	symmetry c1
}
set optking {
	frozen_dihedral = ("
		12 9 5 3
	")
}

ee = optimize('scf')
oeprop('DIPOLE', 'QUADRUPOLE', 'MULLIKEN_CHARGES')
f=open( 'psi4out.xyz', 'w' )
f.write( "16  " )
f.write( str(ee) + "\n" )
f.write( MOL.save_string_xyz() )
f.close()
--------------------------------------------------------------------------

    Molecular point group: c1
  Charge       = 0
  Multiplicity = 1
  Basis Set: CC-PVTZ
  Basis Set:
  @DF-RHF Final Energy:  -340.87152570924076
    Total Energy =                       -340.8715257092407569
    Molecular point group: c1
  Basis Set: CC-PVTZ
  Basis Set:
  Basis Set: CC-PVTZ
  Basis Set:
  @DF-RHF Final Energy:  -340.87175533920612
    Total Energy =                       -340.8717553392062882
  Basis Set: CC-PVTZ
  Basis Set:
  Basis Set: CC-PVTZ
  Basis Set:
  @DF-RHF Final Energy:  -340.87179843074728
    Total Energy =                       -340.8717984307473898
  Basis Set: CC-PVTZ
  Basis Set:
  Basis Set: CC-PVTZ
  Basis Set:
  @DF-RHF Final Energy:  -340.87181123268942
    Total Energy =                       -340.8718112326895948
  Basis Set: CC-PVTZ
  Basis Set:
  Basis Set: CC-PVTZ
  Basis Set:
  @DF-RHF Final Energy:  -340.87181415440892
    Total Energy =                       -340.8718141544088667
  Basis Set: CC-PVTZ
  Basis Set:
  Basis Set: CC-PVTZ
  Basis Set:
  @DF-RHF Final Energy:  -340.87181543703031
    Total Energy =                       -340.8718154370302500
  Basis Set: CC-PVTZ
  Basis Set:
  Charge       = 0
  Multiplicity = 1
  Basis Set: CC-PVTZ
  Basis Set:

    Orbital Energies (a.u.)
    -----------------------

    Doubly Occupied:

       1A    -15.580608     2A    -15.575963     3A    -11.278640
       4A    -11.271363     5A    -11.269173     6A    -11.267185
       7A    -11.231326     8A    -11.220246     9A     -1.315858
      10A     -1.223912    11A     -1.086701    12A     -1.016149
      13A     -0.905479    14A     -0.896988    15A     -0.830986
      16A     -0.718178    17A     -0.713612    18A     -0.659104
      19A     -0.611699    20A     -0.606522    21A     -0.586209
      22A     -0.564252    23A     -0.524791    24A     -0.509545
      25A     -0.504088    26A     -0.486116    27A     -0.433766
      28A     -0.397786    29A     -0.346574

  @DF-RHF Final Energy:  -340.87181563486854

   => Energetics <=

    Nuclear Repulsion Energy =            350.4195537849229822
    One-Electron Energy =               -1155.3170937465179122
    Two-Electron Energy =                 464.0257243267263902
    DFT Exchange-Correlation Energy =       0.0000000000000000
    Empirical Dispersion Energy =           0.0000000000000000
    PCM Polarization Energy =               0.0000000000000000
    EFP Energy =                            0.0000000000000000
    Total Energy =                       -340.8718156348685397
    Molecular point group: c1
  Basis Set: CC-PVTZ
  Basis Set:

  -Total Gradient:
     Atom            X                  Y                   Z
    ------   -----------------  -----------------  -----------------
       1       -0.000003115814     0.000000573019     0.000000362917
       2       -0.000032759265     0.000000413402    -0.000019162368
       3        0.000181201673    -0.000058304523     0.000874454437
       4        0.000005127353    -0.000028307314     0.000057690022
       5       -0.000177505737    -0.000069564025    -0.000992393868
       6       -0.000003967611    -0.000001788511    -0.000020820833
       7        0.000016909942     0.000001648022     0.000013171986
       8       -0.000022928786     0.000021471448    -0.000109102010
       9       -0.000194753145     0.000879539075    -0.000554695409
      10        0.000009848869    -0.000003954870     0.000020532376
      11        0.000002216882    -0.000006140182     0.000010561743
      12        0.000213130606    -0.000730608899     0.000726765800
      13        0.000002855404    -0.000000832038    -0.000004005566
      14        0.000003310488     0.000005650339    -0.000006277465
      15       -0.000005369964    -0.000005825705     0.000007938081
      16        0.000005799108    -0.000003969242    -0.000005019844

  **** Optimization is complete! (in 7 steps) ****
    Final optimized geometry and variables:
    Molecular point group: c1

    Geometry (in Angstrom), charge = 0, multiplicity = 1:

    H           -1.668137768489    -2.338158038741     0.343662862295
    C           -1.264634205809    -1.343327294885     0.338412420537
    N            0.027807248285    -1.216684944456     0.112228885020
    C           -2.072207482324    -0.251290027226     0.564667826498
    C            0.530509223012    -0.001675709519     0.105028889333
    H           -3.123006137942    -0.365513763228     0.749273366487
    N           -1.579865999750     0.971893635817     0.566395127306
    C           -0.295988922868     1.094886490796     0.340430937800
    C            2.001837870357     0.163562183008    -0.171840917798
    H            0.109761510908     2.089615063677     0.347379587593
    C            2.295799397942     0.510842804741    -1.632812169633
    H            2.407096909389     0.931269324600     0.478291980524
    H            2.490780059781    -0.765668142325     0.086518568954
    H            3.363109022366     0.605722738495    -1.792924380530
    H            1.830049271256     1.447259410160    -1.917884075549
    H            1.922773652889    -0.263173277715    -2.292498128213

  Mulliken Charges: (a.u.)
   Center  Symbol    Alpha    Beta     Spin     Total
       1     H     0.41361  0.41361  0.00000  0.17277
       2     C     3.04298  3.04298  0.00000 -0.08597
       3     N     3.59585  3.59585  0.00000 -0.19170
       4     C     3.04801  3.04801  0.00000 -0.09602
       5     C     2.93804  2.93804  0.00000  0.12392
       6     H     0.41350  0.41350  0.00000  0.17300
       7     N     3.58696  3.58696  0.00000 -0.17392
       8     C     3.07874  3.07874  0.00000 -0.15748
       9     C     3.08589  3.08589  0.00000 -0.17177
      10     H     0.41472  0.41472  0.00000  0.17057
      11     C     3.14405  3.14405  0.00000 -0.28810
      12     H     0.44689  0.44689  0.00000  0.10622
      13     H     0.44149  0.44149  0.00000  0.11703
      14     H     0.44808  0.44808  0.00000  0.10385
      15     H     0.45336  0.45336  0.00000  0.09328
      16     H     0.44784  0.44784  0.00000  0.10433

   Total alpha = 29.00000, Total beta = 29.00000, Total charge =  0.00000
