  ==> Input File <==

--------------------------------------------------------------------------
set {
	reference rhf
	basis 6-31G*
}

set_num_threads( 4 )
memory 2 gb

molecule MOL {
0 1

O	 0.769085	 2.014996	 -0.336158
C	 -0.198692	 2.220462	 -0.995120
C	 -1.465033	 1.399556	 -0.975390
O	 -0.291103	 3.225904	 -1.856237
C	 -1.412532	 0.227344	 -0.000452
H	 -2.284510	 2.072539	 -0.738104
H	 -1.647110	 1.059033	 -1.991091
C	 -2.706999	 -0.587347	 -0.000541
H	 -1.212961	 0.601143	 0.999023
H	 -0.574291	 -0.413601	 -0.255490
C	 -3.956778	 0.291888	 0.000910
H	 -2.726114	 -1.239230	 -0.871609
H	 -2.725217	 -1.240844	 0.869333
H	 -3.985213	 0.933254	 -0.875158
H	 -4.860123	 -0.309979	 0.000519
H	 -3.984618	 0.931166	 0.878514
C	 0.834054	 4.077719	 -1.972741
H	 1.051829	 4.551239	 -1.026253
H	 0.567599	 4.819497	 -2.709434
H	 1.700454	 3.520434	 -2.298765

	symmetry c1
}
set optking {
	frozen_dihedral = ("
		9 5 8 12
	")
}

ee = optimize('scf')
oeprop('DIPOLE', 'QUADRUPOLE', 'MULLIKEN_CHARGES')
f=open( 'psi4out.xyz', 'w' )
f.write( "20  " )
f.write( str(ee) + "\n" )
f.write( MOL.save_string_xyz() )
f.close()
--------------------------------------------------------------------------

    Molecular point group: c1
  Charge       = 0
  Multiplicity = 1
  Basis Set: 6-31G*
  Basis Set:
  @DF-RHF Final Energy:  -383.93635921529437
    Total Energy =                       -383.9363592152940328
    Molecular point group: c1
  Basis Set: 6-31G*
  Basis Set:
  Basis Set: 6-31G*
  Basis Set:
  @DF-RHF Final Energy:  -383.93748426406387
    Total Energy =                       -383.9374842640637553
  Basis Set: 6-31G*
  Basis Set:
  Basis Set: 6-31G*
  Basis Set:
  @DF-RHF Final Energy:  -383.93860266789426
    Total Energy =                       -383.9386026678939743
  Basis Set: 6-31G*
  Basis Set:
  Basis Set: 6-31G*
  Basis Set:
  @DF-RHF Final Energy:  -383.93845760465240
    Total Energy =                       -383.9384576046521715
  Basis Set: 6-31G*
  Basis Set:
  Basis Set: 6-31G*
  Basis Set:
  @DF-RHF Final Energy:  -383.93872602057746
    Total Energy =                       -383.9387260205776329
  Basis Set: 6-31G*
  Basis Set:
  Basis Set: 6-31G*
  Basis Set:
  @DF-RHF Final Energy:  -383.93875491053348
    Total Energy =                       -383.9387549105332482
  Basis Set: 6-31G*
  Basis Set:
  Basis Set: 6-31G*
  Basis Set:
  @DF-RHF Final Energy:  -383.93876002939624
    Total Energy =                       -383.9387600293964624
  Basis Set: 6-31G*
  Basis Set:
  Charge       = 0
  Multiplicity = 1
  Basis Set: 6-31G*
  Basis Set:

    Orbital Energies (a.u.)
    -----------------------

    Doubly Occupied:

       1A    -20.603627     2A    -20.545512     3A    -11.372389
       4A    -11.280851     5A    -11.235358     6A    -11.220389
       7A    -11.219278     8A    -11.213206     9A     -1.469375
      10A     -1.362830    11A     -1.088203    12A     -1.022260
      13A     -0.967719    14A     -0.897369    15A     -0.799074
      16A     -0.762812    17A     -0.701721    18A     -0.682875
      19A     -0.671801    20A     -0.637123    21A     -0.608211
      22A     -0.593842    23A     -0.568909    24A     -0.548811
      25A     -0.537870    26A     -0.522770    27A     -0.510294
      28A     -0.473219    29A     -0.469813    30A     -0.466544
      31A     -0.455348    32A     -0.437931

  @DF-RHF Final Energy:  -383.93876074570318

   => Energetics <=

    Nuclear Repulsion Energy =            385.1701731977126997
    One-Electron Energy =               -1286.3231935684905238
    Two-Electron Energy =                 517.2142596250746465
    DFT Exchange-Correlation Energy =       0.0000000000000000
    Empirical Dispersion Energy =           0.0000000000000000
    PCM Polarization Energy =               0.0000000000000000
    EFP Energy =                            0.0000000000000000
    Total Energy =                       -383.9387607457031208
    Molecular point group: c1
  Basis Set: 6-31G*
  Basis Set:

  -Total Gradient:
     Atom            X                  Y                   Z
    ------   -----------------  -----------------  -----------------
       1       -0.000001877542     0.000011110189     0.000000946140
       2       -0.000007510657    -0.000016672783     0.000004652722
       3        0.000008072964    -0.000013329279    -0.000009587738
       4        0.000012298784    -0.000002130964    -0.000004571023
       5       -0.002339775873     0.003332930079    -0.000469174330
       6        0.000001637295     0.000003876577     0.000009015796
       7       -0.000009472562     0.000005626992     0.000006990150
       8       -0.001813590216     0.002684045442    -0.002361310112
       9        0.002231700222    -0.003208255297     0.000767682404
      10        0.000010394892    -0.000008448081    -0.000006285483
      11       -0.000000670425     0.000005721844    -0.000002042134
      12        0.001911566801    -0.002800583792     0.002061890355
      13        0.000002226859     0.000001378045     0.000002333078
      14       -0.000002582942    -0.000000559543     0.000002664128
      15       -0.000002175487    -0.000002418789    -0.000001845439
      16       -0.000002233793     0.000000058648     0.000000553628
      17       -0.000001133298     0.000005247109    -0.000001341625
      18        0.000000802320     0.000000529075    -0.000000327374
      19        0.000002546876     0.000001721352    -0.000000266611
      20       -0.000000224216     0.000000153176     0.000000023465

  **** Optimization is complete! (in 8 steps) ****
    Final optimized geometry and variables:
    Molecular point group: c1

    Geometry (in Angstrom), charge = 0, multiplicity = 1:

    O            1.816879730988     0.350280924431     0.429555487124
    C            0.852687374672     0.595576921343    -0.220925889986
    C           -0.448546702821    -0.169257190220    -0.190223784609
    O            0.795236551758     1.604064660646    -1.081790304482
    C           -0.431595431337    -1.337899619138     0.790188014845
    H           -1.231671535173     0.544843994808     0.042031785201
    H           -0.647984401543    -0.509507994816    -1.203284805772
    C           -1.684898462169    -2.222974772238     0.748352562105
    H           -0.267290856916    -0.977025274024     1.800910123318
    H            0.432102506386    -1.957541568166     0.571878741148
    C           -3.019728173804    -1.482025712270     0.827906129487
    H           -1.654738089898    -2.853859168484    -0.137462438101
    H           -1.622494784514    -2.912660615645     1.586659271436
    H           -3.200136212700    -0.868848358732    -0.049112109230
    H           -3.843033579640    -2.184844716684     0.906435362446
    H           -3.056315876321    -0.833765839615     1.699545287165
    C            1.954505723641     2.407118040675    -1.209072454305
    H            2.200976815438     2.871087217340    -0.264883824103
    H            1.713131632080     3.159484163486    -1.943687442385
    H            2.793391089881     1.813444960087    -1.542758288785

  Mulliken Charges: (a.u.)
   Center  Symbol    Alpha    Beta     Spin     Total
       1     O     4.28577  4.28577  0.00000 -0.57154
       2     C     2.60496  2.60496  0.00000  0.79008
       3     C     3.21023  3.21023  0.00000 -0.42046
       4     O     4.30739  4.30739  0.00000 -0.61479
       5     C     3.15413  3.15413  0.00000 -0.30827
       6     H     0.39831  0.39831  0.00000  0.20338
       7     H     0.40103  0.40103  0.00000  0.19793
       8     C     3.15517  3.15517  0.00000 -0.31033
       9     H     0.41285  0.41285  0.00000  0.17430
      10     H     0.40908  0.40908  0.00000  0.18183
      11     C     3.24422  3.24422  0.00000 -0.48844
      12     H     0.42176  0.42176  0.00000  0.15649
      13     H     0.41783  0.41783  0.00000  0.16434
      14     H     0.42065  0.42065  0.00000  0.15870
      15     H     0.41693  0.41693  0.00000  0.16613
      16     H     0.42069  0.42069  0.00000  0.15863
      17     C     3.09239  3.09239  0.00000 -0.18478
      18     H     0.40906  0.40906  0.00000  0.18189
      19     H     0.40846  0.40846  0.00000  0.18308
      20     H     0.40909  0.40909  0.00000  0.18182

   Total alpha = 32.00000, Total beta = 32.00000, Total charge = -0.00000
