  ==> Input File <==

--------------------------------------------------------------------------
set {
	reference rhf
	basis 6-31G*
}

set_num_threads( 1 )
memory 2 gb

molecule MOL {
0 1

H	 3.249349	 -1.106884	 0.973616
O	 2.826016	 -1.159218	 0.122261
C	 2.077727	 -0.067559	 -0.035091
C	 0.624473	 -0.343591	 0.253101
O	 2.542965	 0.974826	 -0.363729
C	 -0.265902	 0.883932	 0.072916
H	 0.324016	 -1.163849	 -0.390541
H	 0.565024	 -0.726111	 1.268924
C	 -1.728698	 0.646073	 0.462102
H	 -0.209144	 1.219470	 -0.958188
H	 0.135059	 1.692851	 0.673903
C	 -2.482460	 -0.343073	 -0.431425
H	 -2.245265	 1.602650	 0.432430
H	 -1.779332	 0.308348	 1.496285
C	 -3.960546	 -0.461025	 -0.060175
H	 -2.395034	 -0.026811	 -1.468912
H	 -2.024850	 -1.327147	 -0.371646
H	 -4.472726	 -1.168004	 -0.705284
H	 -4.465146	 0.496508	 -0.151489
H	 -4.081218	 -0.800940	 0.964585

	symmetry c1
}
set optking {
	frozen_dihedral = ("
		16 12 9 6,
		7 4 6 10,
		12 9 6 10,
		5 3 4 7
	")
}

ee = energy('scf')
oeprop('DIPOLE', 'QUADRUPOLE', 'MULLIKEN_CHARGES')
f=open( 'psi4out.xyz', 'w' )
f.write( "20  " )
f.write( str(ee) + "\n" )
f.write( MOL.save_string_xyz() )
f.close()
--------------------------------------------------------------------------

    Molecular point group: c1

    Geometry (in Angstrom), charge = 0, multiplicity = 1:

       Center              X                  Y                   Z               Mass
    ------------   -----------------  -----------------  -----------------  -----------------
           H          3.253517509530    -1.105333449416     0.964550476036     1.007825032070
           O          2.830184509530    -1.157667449416     0.113195476036    15.994914619560
           C          2.081895509530    -0.066008449416    -0.044156523964    12.000000000000
           C          0.628641509530    -0.342040449416     0.244035476036    12.000000000000
           O          2.547133509530     0.976376550584    -0.372794523964    15.994914619560
           C         -0.261733490470     0.885482550584     0.063850476036    12.000000000000
           H          0.328184509530    -1.162298449416    -0.399606523964     1.007825032070
           H          0.569192509530    -0.724560449416     1.259858476036     1.007825032070
           C         -1.724529490470     0.647623550584     0.453036476036    12.000000000000
           H         -0.204975490470     1.221020550584    -0.967253523964     1.007825032070
           H          0.139227509530     1.694401550584     0.664837476036     1.007825032070
           C         -2.478291490470    -0.341522449416    -0.440490523964    12.000000000000
           H         -2.241096490470     1.604200550584     0.423364476036     1.007825032070
           H         -1.775163490470     0.309898550584     1.487219476036     1.007825032070
           C         -3.956377490470    -0.459474449416    -0.069240523964    12.000000000000
           H         -2.390865490470    -0.025260449416    -1.477977523964     1.007825032070
           H         -2.020681490470    -1.325596449416    -0.380711523964     1.007825032070
           H         -4.468557490470    -1.166453449416    -0.714349523964     1.007825032070
           H         -4.460977490470     0.498058550584    -0.160554523964     1.007825032070
           H         -4.077049490470    -0.799389449416     0.955519476036     1.007825032070

  Charge       = 0
  Multiplicity = 1
  Basis Set: 6-31G*
  Basis Set:

    Orbital Energies (a.u.)
    -----------------------

    Doubly Occupied:

       1A    -20.598043     2A    -20.559539     3A    -11.379820
       4A    -11.240677     5A    -11.222963     6A    -11.221345
       7A    -11.220758     8A    -11.213073     9A     -1.469070
      10A     -1.368126    11A     -1.096452    12A     -1.040336
      13A     -0.958955    14A     -0.865774    15A     -0.817702
      16A     -0.782713    17A     -0.711469    18A     -0.681493
      19A     -0.660957    20A     -0.640125    21A     -0.615739
      22A     -0.587229    23A     -0.562332    24A     -0.554957
      25A     -0.526524    26A     -0.510783    27A     -0.497749
      28A     -0.492654    29A     -0.470289    30A     -0.464214
      31A     -0.458346    32A     -0.442889

  @DF-RHF Final Energy:  -383.92686451179316

   => Energetics <=

    Nuclear Repulsion Energy =            376.0364688909469351
    One-Electron Energy =               -1268.0604711365667754
    Two-Electron Energy =                 508.0971377338274806
    DFT Exchange-Correlation Energy =       0.0000000000000000
    Empirical Dispersion Energy =           0.0000000000000000
    PCM Polarization Energy =               0.0000000000000000
    EFP Energy =                            0.0000000000000000
    Total Energy =                       -383.9268645117923597

  Mulliken Charges: (a.u.)
   Center  Symbol    Alpha    Beta     Spin     Total
       1     H     0.26494  0.26494  0.00000  0.47013
       2     O     4.35784  4.35784  0.00000 -0.71569
       3     C     2.63539  2.63539  0.00000  0.72922
       4     C     3.21125  3.21125  0.00000 -0.42251
       5     O     4.25341  4.25341  0.00000 -0.50682
       6     C     3.15512  3.15512  0.00000 -0.31024
       7     H     0.39555  0.39555  0.00000  0.20890
       8     H     0.40901  0.40901  0.00000  0.18198
       9     C     3.15520  3.15520  0.00000 -0.31040
      10     H     0.41121  0.41121  0.00000  0.17758
      11     H     0.40987  0.40987  0.00000  0.18026
      12     C     3.15478  3.15478  0.00000 -0.30956
      13     H     0.41794  0.41794  0.00000  0.16412
      14     H     0.42498  0.42498  0.00000  0.15004
      15     C     3.23919  3.23919  0.00000 -0.47838
      16     H     0.42091  0.42091  0.00000  0.15818
      17     H     0.42303  0.42303  0.00000  0.15394
      18     H     0.41814  0.41814  0.00000  0.16372
      19     H     0.42051  0.42051  0.00000  0.15898
      20     H     0.42173  0.42173  0.00000  0.15654

   Total alpha = 32.00000, Total beta = 32.00000, Total charge = -0.00000
