  ==> Input File <==

--------------------------------------------------------------------------
set {
	reference rhf
	basis 6-31G*
}

set_num_threads( 4 )
memory 2 gb

molecule MOL {
0 1

H	 -2.420432	 -1.509237	 -1.763682
C	 -1.896717	 -0.927946	 -1.028019
C	 -2.583937	 -0.110611	 -0.146748
C	 -0.521821	 -0.988942	 -0.951282
H	 -3.656448	 -0.049408	 -0.190521
C	 -1.896816	 0.632032	 0.795098
H	 0.038672	 -1.610839	 -1.617515
C	 0.154804	 -0.237046	 -0.000077
H	 -2.448299	 1.260064	 1.470034
C	 -0.508149	 0.598566	 0.905061
N	 1.611208	 -0.370857	 -0.000034
C	 0.139573	 1.452436	 1.972906
O	 2.274126	 0.622059	 -0.008063
O	 2.068510	 -1.474748	 0.007823
H	 0.822645	 2.173327	 1.545287
H	 -0.630869	 1.984226	 2.516959
H	 0.706539	 0.852910	 2.671649

	symmetry c1
}
set optking {
	frozen_dihedral = ("
		4 8 11 13
	")
}

ee = optimize('scf')
oeprop('DIPOLE', 'QUADRUPOLE', 'MULLIKEN_CHARGES')
f=open( 'psi4out.xyz', 'w' )
f.write( "17  " )
f.write( str(ee) + "\n" )
f.write( MOL.save_string_xyz() )
f.close()
--------------------------------------------------------------------------

    Molecular point group: c1
  Charge       = 0
  Multiplicity = 1
  Basis Set: 6-31G*
  Basis Set:
  @DF-RHF Final Energy:  -473.20344546614103
    Total Energy =                       -473.2034454661411473
    Molecular point group: c1
  Basis Set: 6-31G*
  Basis Set:
  Basis Set: 6-31G*
  Basis Set:
  @DF-RHF Final Energy:  -473.19762187317860
    Total Energy =                       -473.1976218731790595
  Basis Set: 6-31G*
  Basis Set:
  Basis Set: 6-31G*
  Basis Set:
  @DF-RHF Final Energy:  -473.20422389102043
    Total Energy =                       -473.2042238910199785
  Basis Set: 6-31G*
  Basis Set:
  Basis Set: 6-31G*
  Basis Set:
  @DF-RHF Final Energy:  -473.20502059607259
    Total Energy =                       -473.2050205960722451
  Basis Set: 6-31G*
  Basis Set:
  Basis Set: 6-31G*
  Basis Set:
  @DF-RHF Final Energy:  -473.20516416809522
    Total Energy =                       -473.2051641680952798
  Basis Set: 6-31G*
  Basis Set:
  Basis Set: 6-31G*
  Basis Set:
  @DF-RHF Final Energy:  -473.20520244719364
    Total Energy =                       -473.2052024471936420
  Basis Set: 6-31G*
  Basis Set:
  Basis Set: 6-31G*
  Basis Set:
  @DF-RHF Final Energy:  -473.20520678709664
    Total Energy =                       -473.2052067870965857
  Basis Set: 6-31G*
  Basis Set:
  Charge       = 0
  Multiplicity = 1
  Basis Set: 6-31G*
  Basis Set:

    Orbital Energies (a.u.)
    -----------------------

    Doubly Occupied:

       1A    -20.602528     2A    -20.602213     3A    -15.852838
       4A    -11.301042     5A    -11.279159     6A    -11.267384
       7A    -11.261315     8A    -11.255242     9A    -11.254344
      10A    -11.237104    11A     -1.634058    12A     -1.417350
      13A     -1.201414    14A     -1.092077    15A     -1.072635
      16A     -0.979544    17A     -0.933770    18A     -0.850971
      19A     -0.820711    20A     -0.770647    21A     -0.733244
      22A     -0.727720    23A     -0.694748    24A     -0.656764
      25A     -0.636888    26A     -0.599461    27A     -0.595329
      28A     -0.567589    29A     -0.541199    30A     -0.523743
      31A     -0.520457    32A     -0.489368    33A     -0.480403
      34A     -0.448672    35A     -0.366159    36A     -0.353539

  @DF-RHF Final Energy:  -473.20520731469719

   => Energetics <=

    Nuclear Repulsion Energy =            509.9706650199055957
    One-Electron Energy =               -1655.1084915575725063
    Two-Electron Energy =                 671.9326192229698336
    DFT Exchange-Correlation Energy =       0.0000000000000000
    Empirical Dispersion Energy =           0.0000000000000000
    PCM Polarization Energy =               0.0000000000000000
    EFP Energy =                            0.0000000000000000
    Total Energy =                       -473.2052073146971907
    Molecular point group: c1
  Basis Set: 6-31G*
  Basis Set:

  -Total Gradient:
     Atom            X                  Y                   Z
    ------   -----------------  -----------------  -----------------
       1        0.000009349868    -0.000009394448     0.000001077285
       2       -0.000080354300     0.000032602929     0.000022634457
       3       -0.000007103764    -0.000065653013    -0.000069198859
       4        0.000283474641     0.002351839856    -0.001914428063
       5        0.000004002065     0.000012269278    -0.000000785015
       6        0.000091788139     0.000007709896     0.000090323207
       7        0.000000087339    -0.000011472777    -0.000002574462
       8       -0.000225011358    -0.003330409043     0.001341645989
       9       -0.000007414116    -0.000001357471     0.000000310286
      10       -0.000067613709     0.000093481714    -0.000016802365
      11        0.000007325087     0.000981101901     0.004091802540
      12       -0.000012443436    -0.000046398584     0.000039402250
      13        0.000027005234     0.000030106053    -0.003554871958
      14       -0.000015855603    -0.000072094758     0.000002273657
      15        0.000004765681     0.000015808303    -0.000011978452
      16       -0.000003311852     0.000000861721    -0.000006230949
      17       -0.000008689927     0.000010998443    -0.000012599549

  **** Optimization is complete! (in 8 steps) ****
    Final optimized geometry and variables:
    Molecular point group: c1

    Geometry (in Angstrom), charge = 0, multiplicity = 1:

    H           -2.391835163615    -1.421950978082    -1.967709749191
    C           -1.873598237990    -0.847839404570    -1.222467028169
    C           -2.567187902669    -0.010305622808    -0.365250030471
    C           -0.500434853488    -0.944832551855    -1.106073291244
    H           -3.636859990865     0.067310513899    -0.438314006164
    C           -1.893312897237     0.728926714531     0.592191663524
    H            0.068327099500    -1.596603042046    -1.740333306720
    C            0.148494832258    -0.188338562557    -0.148687346175
    H           -2.449563193049     1.366207027126     1.255407212199
    C           -0.509293861218     0.676453263205     0.718382031331
    N            1.604846965510    -0.292575064568    -0.121967621613
    C            0.191683275616     1.513362793713     1.763844151517
    O            2.233585909693     0.722176000627    -0.116254005152
    O            2.076326663608    -1.388841946055    -0.152620888672
    H            0.675833787018     2.369272875931     1.310963945439
    H           -0.527913288915     1.867646924132     2.491069669273
    H            0.953521199671     0.951019451363     2.289145139277

  Mulliken Charges: (a.u.)
   Center  Symbol    Alpha    Beta     Spin     Total
       1     H     0.38961  0.38961  0.00000  0.22079
       2     C     3.11126  3.11126  0.00000 -0.22251
       3     C     3.08460  3.08460  0.00000 -0.16920
       4     C     3.08232  3.08232  0.00000 -0.16464
       5     H     0.39041  0.39041  0.00000  0.21919
       6     C     3.12212  3.12212  0.00000 -0.24424
       7     H     0.37145  0.37145  0.00000  0.25709
       8     C     2.91913  2.91913  0.00000  0.16174
       9     H     0.39271  0.39271  0.00000  0.21457
      10     C     2.96512  2.96512  0.00000  0.06976
      11     N     3.26255  3.26255  0.00000  0.47489
      12     C     3.24722  3.24722  0.00000 -0.49445
      13     O     4.22750  4.22750  0.00000 -0.45500
      14     O     4.22652  4.22652  0.00000 -0.45304
      15     H     0.39232  0.39232  0.00000  0.21536
      16     H     0.41174  0.41174  0.00000  0.17653
      17     H     0.40343  0.40343  0.00000  0.19314

   Total alpha = 36.00000, Total beta = 36.00000, Total charge = -0.00000
