  ==> Input File <==

--------------------------------------------------------------------------
set {
	reference rhf
	basis cc-pvtz
}

set_num_threads( 4 )
memory 2 gb

molecule MOL {
0 1

H	 2.867672	 -0.456275	 0.875795
C	 2.403497	 -0.020426	 0.000000
N	 0.989899	 -0.304564	 0.000000
H	 2.867672	 -0.456275	 -0.875795
H	 2.620366	 1.051270	 0.000000
C	 0.447371	 -0.413614	 1.338409
C	 0.661519	 -1.479007	 -0.781293
H	 0.919996	 -1.228034	 1.896165
H	 0.639093	 0.507195	 1.877001
C	 -1.048261	 -0.657235	 1.275368
H	 1.010368	 -1.339912	 -1.797995
H	 1.150250	 -2.373560	 -0.382970
C	 -0.839616	 -1.695254	 -0.789870
H	 -1.446270	 -0.831351	 2.265267
H	 -1.541509	 0.216374	 0.853927
O	 -1.343630	 -1.787497	 0.509594
H	 -1.086808	 -2.619689	 -1.292804
H	 -1.322066	 -0.875359	 -1.318181

	symmetry c1
}
set optking {
	frozen_dihedral = ("
		6 3 2 5
	")
}

ee = optimize('scf')
oeprop('DIPOLE', 'QUADRUPOLE', 'MULLIKEN_CHARGES')
f=open( 'psi4out.xyz', 'w' )
f.write( "18  " )
f.write( str(ee) + "\n" )
f.write( MOL.save_string_xyz() )
f.close()
--------------------------------------------------------------------------

    Molecular point group: c1
  Charge       = 0
  Multiplicity = 1
  Basis Set: CC-PVTZ
  Basis Set:
  @DF-RHF Final Energy:  -325.14169018047585
    Total Energy =                       -325.1416901804757913
    Molecular point group: c1
  Basis Set: CC-PVTZ
  Basis Set:
  Basis Set: CC-PVTZ
  Basis Set:
  @DF-RHF Final Energy:  -325.14239498207144
    Total Energy =                       -325.1423949820713233
  Basis Set: CC-PVTZ
  Basis Set:
  Basis Set: CC-PVTZ
  Basis Set:
  @DF-RHF Final Energy:  -325.14248038084941
    Total Energy =                       -325.1424803808492356
  Basis Set: CC-PVTZ
  Basis Set:
  Basis Set: CC-PVTZ
  Basis Set:
  @DF-RHF Final Energy:  -325.14248337031165
    Total Energy =                       -325.1424833703118793
  Basis Set: CC-PVTZ
  Basis Set:
  Charge       = 0
  Multiplicity = 1
  Basis Set: CC-PVTZ
  Basis Set:

    Orbital Energies (a.u.)
    -----------------------

    Doubly Occupied:

       1A    -20.547259     2A    -15.544076     3A    -11.263968
       4A    -11.263918     5A    -11.242491     6A    -11.242368
       7A    -11.238802     8A     -1.386257     9A     -1.231861
      10A     -1.038607    11A     -0.981530    12A     -0.883230
      13A     -0.870082    14A     -0.775080    15A     -0.684761
      16A     -0.645894    17A     -0.644324    18A     -0.632487
      19A     -0.630781    20A     -0.573705    21A     -0.556590
      22A     -0.545993    23A     -0.525950    24A     -0.500772
      25A     -0.482936    26A     -0.453515    27A     -0.410211
      28A     -0.355631

  @DF-RHF Final Energy:  -325.14248321335975

   => Energetics <=

    Nuclear Repulsion Energy =            341.7103281351092505
    One-Electron Energy =               -1119.3994733256374730
    Two-Electron Energy =                 452.5466619771682986
    DFT Exchange-Correlation Energy =       0.0000000000000000
    Empirical Dispersion Energy =           0.0000000000000000
    PCM Polarization Energy =               0.0000000000000000
    EFP Energy =                            0.0000000000000000
    Total Energy =                       -325.1424832133599807
    Molecular point group: c1
  Basis Set: CC-PVTZ
  Basis Set:

  -Total Gradient:
     Atom            X                  Y                   Z
    ------   -----------------  -----------------  -----------------
       1       -0.000075408491    -0.000040463968    -0.000001540719
       2        0.000183244063    -0.001275511081     0.006257696193
       3       -0.000910599600     0.004809795820    -0.001172266380
       4       -0.000002496958    -0.000021752112    -0.000029404139
       5        0.000057056074     0.000029571272    -0.004997627022
       6        0.000729555519    -0.003561883353     0.000025108665
       7        0.000027466174     0.000039616864    -0.000113220916
       8       -0.000011753441     0.000000054927     0.000007657318
       9       -0.000003335703     0.000002475374     0.000021950845
      10        0.000005031931    -0.000017971709     0.000011642627
      11        0.000002437095    -0.000010939503    -0.000011567691
      12        0.000005303902     0.000008588505     0.000006534107
      13       -0.000009732143     0.000033840701    -0.000000696488
      14        0.000009570284     0.000009003295     0.000003632757
      15        0.000000640005     0.000001528975    -0.000003936597
      16       -0.000017091970    -0.000013272373     0.000000629506
      17        0.000017802226     0.000005273214     0.000001771356
      18       -0.000007688970     0.000002045151    -0.000006363422

  **** Optimization is complete! (in 5 steps) ****
    Final optimized geometry and variables:
    Molecular point group: c1

    Geometry (in Angstrom), charge = 0, multiplicity = 1:

    H            2.746805605235     0.444082551162     0.629435351795
    C            2.229754344090     0.897846725656    -0.215021197384
    N            0.809741437909     0.608416709313    -0.228824679392
    H            2.689453237996     0.519976359912    -1.119806370722
    H            2.401758699066     1.968105705736    -0.210029318324
    C            0.262193289763     0.494989816506     1.108530010546
    C            0.479537661507    -0.576427615361    -0.998314803027
    H            0.728762756616    -0.327541373661     1.658346675631
    H            0.461877275956     1.409436444266     1.656389801179
    C           -1.235280736585     0.265156206111     1.045516602072
    H            0.830616657543    -0.451300025262    -2.015570311957
    H            0.957721382302    -1.471472626242    -0.588817519928
    C           -1.023499961388    -0.780765015564    -1.014564957792
    H           -1.634339844919     0.095059459424     2.035838397922
    H           -1.721041571114     1.142921158941     0.623952150354
    O           -1.539317620205    -0.863243048856     0.280745095641
    H           -1.274145832744    -1.705201184305    -1.516050629191
    H           -1.494263386250     0.041096821835    -1.550575340347

  Mulliken Charges: (a.u.)
   Center  Symbol    Alpha    Beta     Spin     Total
       1     H     0.46512  0.46512  0.00000  0.06976
       2     C     3.09334  3.09334  0.00000 -0.18667
       3     N     3.61954  3.61954  0.00000 -0.23907
       4     H     0.45579  0.45579  0.00000  0.08843
       5     H     0.44876  0.44876  0.00000  0.10248
       6     C     3.04245  3.04245  0.00000 -0.08489
       7     C     3.03965  3.03965  0.00000 -0.07929
       8     H     0.46797  0.46797  0.00000  0.06407
       9     H     0.45377  0.45377  0.00000  0.09245
      10     C     2.98392  2.98392  0.00000  0.03216
      11     H     0.45403  0.45403  0.00000  0.09195
      12     H     0.46926  0.46926  0.00000  0.06147
      13     C     2.98444  2.98444  0.00000  0.03113
      14     H     0.45003  0.45003  0.00000  0.09994
      15     H     0.46769  0.46769  0.00000  0.06461
      16     O     4.18648  4.18648  0.00000 -0.37295
      17     H     0.44990  0.44990  0.00000  0.10020
      18     H     0.46789  0.46789  0.00000  0.06423

   Total alpha = 28.00000, Total beta = 28.00000, Total charge = -0.00000
