  ==> Input File <==

--------------------------------------------------------------------------
set {
	reference rhf
	basis 6-31G*
}

set_num_threads( 4 )
memory 2 gb

molecule MOL {
0 1

O	 -1.230672	 0.061110	 -1.880292
C	 -1.280184	 0.592915	 -0.818688
C	 -2.067644	 1.838291	 -0.513251
O	 -0.632575	 0.154573	 0.251549
H	 -1.400465	 2.615913	 -0.159523
H	 -2.582463	 2.169019	 -1.402867
H	 -2.782449	 1.635157	 0.275766
C	 0.160891	 -1.019931	 0.106212
C	 1.589627	 -0.672828	 0.480843
H	 0.089836	 -1.367806	 -0.916050
H	 -0.238459	 -1.792301	 0.749618
C	 2.246377	 0.346236	 -0.452210
H	 2.163194	 -1.597435	 0.473358
H	 1.604769	 -0.303424	 1.502885
C	 3.691736	 0.652107	 -0.061850
H	 2.219579	 -0.032311	 -1.472055
H	 1.666466	 1.263317	 -0.447249
H	 4.134505	 1.377213	 -0.737283
H	 4.305508	 -0.243868	 -0.089969
H	 3.748266	 1.059562	 0.943567

	symmetry c1
}
set optking {
	frozen_dihedral = ("
		2 4 8 10
	")
}

ee = optimize('scf')
oeprop('DIPOLE', 'QUADRUPOLE', 'MULLIKEN_CHARGES')
f=open( 'psi4out.xyz', 'w' )
f.write( "20  " )
f.write( str(ee) + "\n" )
f.write( MOL.save_string_xyz() )
f.close()
--------------------------------------------------------------------------

    Molecular point group: c1
  Charge       = 0
  Multiplicity = 1
  Basis Set: 6-31G*
  Basis Set:
  @DF-RHF Final Energy:  -383.94260231838064
    Total Energy =                       -383.9426023183807501
    Molecular point group: c1
  Basis Set: 6-31G*
  Basis Set:
  Basis Set: 6-31G*
  Basis Set:
  @DF-RHF Final Energy:  -383.94320295812929
    Total Energy =                       -383.9432029581291772
  Basis Set: 6-31G*
  Basis Set:
  Basis Set: 6-31G*
  Basis Set:
  @DF-RHF Final Energy:  -383.94339120012626
    Total Energy =                       -383.9433912001262570
  Basis Set: 6-31G*
  Basis Set:
  Basis Set: 6-31G*
  Basis Set:
  @DF-RHF Final Energy:  -383.94351521235944
    Total Energy =                       -383.9435152123593298
  Basis Set: 6-31G*
  Basis Set:
  Basis Set: 6-31G*
  Basis Set:
  @DF-RHF Final Energy:  -383.94362523734657
    Total Energy =                       -383.9436252373466232
  Basis Set: 6-31G*
  Basis Set:
  Basis Set: 6-31G*
  Basis Set:
  @DF-RHF Final Energy:  -383.94363136213173
    Total Energy =                       -383.9436313621316685
  Basis Set: 6-31G*
  Basis Set:
  Charge       = 0
  Multiplicity = 1
  Basis Set: 6-31G*
  Basis Set:

    Orbital Energies (a.u.)
    -----------------------

    Doubly Occupied:

       1A    -20.600684     2A    -20.543368     3A    -11.375903
       4A    -11.280747     5A    -11.232733     6A    -11.224802
       7A    -11.220411     8A    -11.213008     9A     -1.465022
      10A     -1.362570    11A     -1.084719    12A     -1.028497
      13A     -0.980734    14A     -0.884808    15A     -0.809118
      16A     -0.771608    17A     -0.693626    18A     -0.679803
      19A     -0.662587    20A     -0.631983    21A     -0.602505
      22A     -0.593772    23A     -0.572702    24A     -0.548256
      25A     -0.542600    26A     -0.534641    27A     -0.505416
      28A     -0.489906    29A     -0.477626    30A     -0.472525
      31A     -0.440671    32A     -0.438155

  @DF-RHF Final Energy:  -383.94363107326166

   => Energetics <=

    Nuclear Repulsion Energy =            390.2551321874544215
    One-Electron Energy =               -1296.4665127390389898
    Two-Electron Energy =                 522.2677494783226848
    DFT Exchange-Correlation Energy =       0.0000000000000000
    Empirical Dispersion Energy =           0.0000000000000000
    PCM Polarization Energy =               0.0000000000000000
    EFP Energy =                            0.0000000000000000
    Total Energy =                       -383.9436310732619404
    Molecular point group: c1
  Basis Set: 6-31G*
  Basis Set:

  -Total Gradient:
     Atom            X                  Y                   Z
    ------   -----------------  -----------------  -----------------
       1        0.000070958888     0.000035781358    -0.000020318375
       2        0.000027456699     0.000059731513    -0.000007994093
       3        0.000032518886     0.000052090976    -0.000023576386
       4       -0.000400185724    -0.000386409444     0.000092788122
       5       -0.000008984495     0.000027236848     0.000002791070
       6        0.000009256185     0.000006900112     0.000003604406
       7        0.000016497918    -0.000008804256    -0.000002625252
       8        0.000517852545     0.000397064011    -0.000184606073
       9        0.000037454657    -0.000053555264     0.000021086534
      10       -0.000264178522    -0.000170126419     0.000115490404
      11       -0.000079264347     0.000074000936     0.000029703275
      12        0.000011083102    -0.000069682143    -0.000040910652
      13        0.000029718575    -0.000006031500    -0.000008634429
      14        0.000013086570    -0.000016005037     0.000011302638
      15       -0.000018923660     0.000046828629     0.000026894755
      16        0.000013243786     0.000000062374    -0.000003545491
      17       -0.000002924471     0.000001131117    -0.000015173408
      18       -0.000002140073     0.000015800036     0.000010335707
      19       -0.000014725415     0.000005238647    -0.000017335459
      20        0.000012198897    -0.000011252496     0.000010722704

  **** Optimization is complete! (in 7 steps) ****
    Final optimized geometry and variables:
    Molecular point group: c1

    Geometry (in Angstrom), charge = 0, multiplicity = 1:

    O           -1.604955996884    -0.164457339056    -1.542802308276
    C           -1.622197119371     0.344769133061    -0.469443616568
    C           -2.416253964834     1.574317871140    -0.118271660888
    O           -0.942027865648    -0.095034861433     0.581766032724
    H           -1.749316032019     2.353603314733     0.232105597114
    H           -2.960066246137     1.914886281160    -0.986648576041
    H           -3.105426038924     1.346369621066     0.686583497308
    C           -0.115900061895    -1.252368729484     0.464180996922
    C            1.310322774290    -0.911439219881     0.862843095897
    H           -0.171138126599    -1.629183798308    -0.544333437273
    H           -0.532290922940    -1.991662419773     1.136342577509
    C            1.998189199237     0.079766176801    -0.077116896007
    H            1.873249720664    -1.842715131797     0.887354883247
    H            1.309579310821    -0.520088990252     1.876811303950
    C            3.441550091795     0.370940418191     0.332053563601
    H            1.979047159654    -0.311579711533    -1.091434699619
    H            1.436149519719     1.008863765943    -0.094504305661
    H            3.904165042205     1.081846489941    -0.345075552559
    H            4.043060651123    -0.533657151876     0.323205882683
    H            3.488782933882     0.789011417519     1.333625294107

  Mulliken Charges: (a.u.)
   Center  Symbol    Alpha    Beta     Spin     Total
       1     O     4.28285  4.28285  0.00000 -0.56570
       2     C     2.61876  2.61876  0.00000  0.76248
       3     C     3.28262  3.28262  0.00000 -0.56523
       4     O     4.31057  4.31057  0.00000 -0.62114
       5     H     0.40113  0.40113  0.00000  0.19775
       6     H     0.39717  0.39717  0.00000  0.20566
       7     H     0.40039  0.40039  0.00000  0.19922
       8     C     3.01273  3.01273  0.00000 -0.02545
       9     C     3.16141  3.16141  0.00000 -0.32282
      10     H     0.39424  0.39424  0.00000  0.21152
      11     H     0.41217  0.41217  0.00000  0.17566
      12     C     3.15649  3.15649  0.00000 -0.31298
      13     H     0.41975  0.41975  0.00000  0.16050
      14     H     0.41511  0.41511  0.00000  0.16978
      15     C     3.24009  3.24009  0.00000 -0.48018
      16     H     0.41702  0.41702  0.00000  0.16596
      17     H     0.41807  0.41807  0.00000  0.16386
      18     H     0.41707  0.41707  0.00000  0.16586
      19     H     0.42139  0.42139  0.00000  0.15722
      20     H     0.42099  0.42099  0.00000  0.15803

   Total alpha = 32.00000, Total beta = 32.00000, Total charge =  0.00000
