  ==> Input File <==

--------------------------------------------------------------------------
set {
	reference rhf
	basis cc-pvtz
}

set_num_threads( 4 )
memory 2 gb

molecule MOL {
0 1

H	 3.857891	 -0.902121	 -2.891884
C	 3.190815	 -1.233955	 -2.105116
C	 1.917612	 -0.395663	 -2.075570
H	 2.966534	 -2.280438	 -2.282906
H	 3.729717	 -1.167191	 -1.165890
C	 0.950954	 -0.827807	 -0.982962
H	 1.409674	 -0.455207	 -3.031718
H	 2.178479	 0.649783	 -1.928714
N	 -0.255748	 -0.029414	 -0.996147
H	 0.670150	 -1.864564	 -1.142499
H	 1.459079	 -0.791796	 -0.014667
C	 -1.215959	 -0.382435	 0.027143
H	 -0.020601	 0.938036	 -0.918259
C	 -2.451944	 0.502410	 -0.038737
H	 -1.507323	 -1.417026	 -0.127476
H	 -0.786241	 -0.330318	 1.031983
C	 -3.752217	 -0.292550	 0.005776
H	 -2.407325	 1.093801	 -0.946480
H	 -2.431979	 1.206234	 0.790023
H	 -3.817783	 -0.982946	 -0.828547
H	 -4.612613	 0.364348	 -0.042306
H	 -3.830160	 -0.871666	 0.919868

	symmetry c1
}
set optking {
	frozen_dihedral = ("
		15 12 14 18
	")
}

ee = optimize('scf')
oeprop('DIPOLE', 'QUADRUPOLE', 'MULLIKEN_CHARGES')
f=open( 'psi4out.xyz', 'w' )
f.write( "22  " )
f.write( str(ee) + "\n" )
f.write( MOL.save_string_xyz() )
f.close()
--------------------------------------------------------------------------

    Molecular point group: c1
  Charge       = 0
  Multiplicity = 1
  Basis Set: CC-PVTZ
  Basis Set:
  @DF-RHF Final Energy:  -290.48463077490703
    Total Energy =                       -290.4846307749067478
    Molecular point group: c1
  Basis Set: CC-PVTZ
  Basis Set:
  Basis Set: CC-PVTZ
  Basis Set:
  @DF-RHF Final Energy:  -290.48489643496634
    Total Energy =                       -290.4848964349664016
  Basis Set: CC-PVTZ
  Basis Set:
  Basis Set: CC-PVTZ
  Basis Set:
  @DF-RHF Final Energy:  -290.48496320319828
    Total Energy =                       -290.4849632031984470
  Basis Set: CC-PVTZ
  Basis Set:
  Charge       = 0
  Multiplicity = 1
  Basis Set: CC-PVTZ
  Basis Set:

    Orbital Energies (a.u.)
    -----------------------

    Doubly Occupied:

       1A    -15.529145     2A    -11.236163     3A    -11.236118
       4A    -11.211938     5A    -11.211516     6A    -11.207632
       7A    -11.206886     8A     -1.207307     9A     -1.058739
      10A     -1.026069    11A     -0.928203    12A     -0.869335
      13A     -0.812687    14A     -0.794674    15A     -0.664726
      16A     -0.630787    17A     -0.616184    18A     -0.610764
      19A     -0.574110    20A     -0.563285    21A     -0.537031
      22A     -0.527150    23A     -0.512348    24A     -0.487305
      25A     -0.478164    26A     -0.474592    27A     -0.464671
      28A     -0.451342    29A     -0.360806

  @DF-RHF Final Energy:  -290.48496407329941

   => Energetics <=

    Nuclear Repulsion Energy =            313.8403806139587573
    One-Electron Energy =               -1013.6713219851595795
    Two-Electron Energy =                 409.3459772979010722
    DFT Exchange-Correlation Energy =       0.0000000000000000
    Empirical Dispersion Energy =           0.0000000000000000
    PCM Polarization Energy =               0.0000000000000000
    EFP Energy =                            0.0000000000000000
    Total Energy =                       -290.4849640732998068
    Molecular point group: c1
  Basis Set: CC-PVTZ
  Basis Set:

  -Total Gradient:
     Atom            X                  Y                   Z
    ------   -----------------  -----------------  -----------------
       1        0.000011905393    -0.000007115422    -0.000001842919
       2        0.000016195806     0.000005589166    -0.000025813872
       3        0.000029423123    -0.000028574478     0.000002002560
       4       -0.000000084851     0.000001719392     0.000000668303
       5       -0.000004342127     0.000002888007    -0.000001711063
       6       -0.000003092539     0.000033966897     0.000003665191
       7        0.000004999046    -0.000000706825    -0.000001357489
       8       -0.000001130068    -0.000003268874     0.000006333046
       9       -0.000011312196    -0.000032584427    -0.000023937133
      10        0.000007331316     0.000006515764    -0.000005890388
      11        0.000006794992    -0.000012916974     0.000004334676
      12        0.000750324763     0.000929252775    -0.003410365931
      13       -0.000003543021    -0.000005683585     0.000018786762
      14       -0.002014327788    -0.002708878583    -0.001088820199
      15       -0.000319846472    -0.000340755466     0.003046241664
      16        0.000010532207     0.000005107863    -0.000031330747
      17       -0.000043798884    -0.000009310578     0.000005919930
      18        0.001552874255     0.002181836132     0.001508653443
      19       -0.000011816054    -0.000033588319    -0.000010347543
      20        0.000026541823    -0.000002868868     0.000008272913
      21       -0.000004101674     0.000009899009    -0.000008178621
      22        0.000000472950     0.000009477395     0.000004717416

  **** Optimization is complete! (in 4 steps) ****
    Final optimized geometry and variables:
    Molecular point group: c1

    Geometry (in Angstrom), charge = 0, multiplicity = 1:

    H            4.112273944462    -0.504519061527    -1.992830990297
    C            3.442223570862    -0.835524588711    -1.208215278877
    C            2.159104559272    -0.012037305162    -1.198919707814
    H            3.231701511681    -1.886461809333    -1.376273083365
    H            3.971965506141    -0.752007372266    -0.265129427786
    C            1.187311156414    -0.444551663618    -0.110903975439
    H            1.661012019655    -0.087254390609    -2.159096628165
    H            2.406352743121     1.037815106995    -1.060158275592
    N           -0.029109233262     0.338323328321    -0.144106471182
    H            0.920268663643    -1.486277346606    -0.262028591493
    H            1.685199380632    -0.392478487367     0.861915777396
    C           -0.993783141050    -0.021798191181     0.874171428279
    H            0.194040581444     1.308871001889    -0.066000297259
    C           -2.234632740523     0.883412031010     0.839920592843
    H           -1.287253011827    -1.054774486691     0.719041497066
    H           -0.553772377196     0.005176212534     1.874608246039
    C           -3.550581311319     0.117924353549     0.915206765003
    H           -2.202583589231     1.480629272308    -0.064248841194
    H           -2.189191474803     1.590250772418     1.662932212765
    H           -3.658349325137    -0.550981327886     0.068479990796
    H           -4.398057767336     0.793721798600     0.917412550090
    H           -3.603959679570    -0.480711398859     1.818889983849

  Mulliken Charges: (a.u.)
   Center  Symbol    Alpha    Beta     Spin     Total
       1     H     0.44769  0.44769  0.00000  0.10461
       2     C     3.15359  3.15359  0.00000 -0.30718
       3     C     3.08020  3.08020  0.00000 -0.16041
       4     H     0.45473  0.45473  0.00000  0.09055
       5     H     0.45614  0.45614  0.00000  0.08771
       6     C     3.02156  3.02156  0.00000 -0.04312
       7     H     0.44912  0.44912  0.00000  0.10177
       8     H     0.45973  0.45973  0.00000  0.08054
       9     N     3.63654  3.63654  0.00000 -0.27307
      10     H     0.45924  0.45924  0.00000  0.08152
      11     H     0.47415  0.47415  0.00000  0.05170
      12     C     3.02780  3.02780  0.00000 -0.05559
      13     H     0.44474  0.44474  0.00000  0.11051
      14     C     3.08728  3.08728  0.00000 -0.17456
      15     H     0.46018  0.46018  0.00000  0.07964
      16     H     0.47319  0.47319  0.00000  0.05363
      17     C     3.14995  3.14995  0.00000 -0.29990
      18     H     0.45265  0.45265  0.00000  0.09471
      19     H     0.45368  0.45368  0.00000  0.09264
      20     H     0.45252  0.45252  0.00000  0.09495
      21     H     0.44975  0.44975  0.00000  0.10049
      22     H     0.45557  0.45557  0.00000  0.08886

   Total alpha = 29.00000, Total beta = 29.00000, Total charge = -0.00000
