  ==> Input File <==

--------------------------------------------------------------------------
set {
	reference rhf
	basis 6-31G*
}

set_num_threads( 4 )
memory 2 gb

molecule MOL {
0 1

O	 0.391030	 1.298905	 0.000133
C	 0.503002	 0.111612	 0.000005
C	 -0.702327	 -0.811998	 -0.000075
C	 1.863306	 -0.554493	 0.000030
C	 -1.235406	 -1.120045	 -1.394021
H	 -0.421657	 -1.727302	 0.517819
H	 -1.473655	 -0.354449	 0.616746
H	 -0.477486	 -1.598165	 -2.002444
H	 -2.093131	 -1.781721	 -1.332797
H	 -1.538811	 -0.213142	 -1.902639
H	 1.974395	 -1.189404	 -0.874166
H	 2.638695	 0.198920	 -0.000196
H	 1.974487	 -1.188655	 0.874727

	symmetry c1
}
set optking {
	frozen_dihedral = ("
		6 3 2 1
	")
}

ee = optimize('scf')
oeprop('DIPOLE', 'QUADRUPOLE', 'MULLIKEN_CHARGES')
f=open( 'psi4out.xyz', 'w' )
f.write( "13  " )
f.write( str(ee) + "\n" )
f.write( MOL.save_string_xyz() )
f.close()
--------------------------------------------------------------------------

    Molecular point group: c1
  Charge       = 0
  Multiplicity = 1
  Basis Set: 6-31G*
  Basis Set:
  @DF-RHF Final Energy:  -230.99451328434702
    Total Energy =                       -230.9945132843470219
    Molecular point group: c1
  Basis Set: 6-31G*
  Basis Set:
  Basis Set: 6-31G*
  Basis Set:
  @DF-RHF Final Energy:  -230.99494355602926
    Total Energy =                       -230.9949435560291136
  Basis Set: 6-31G*
  Basis Set:
  Basis Set: 6-31G*
  Basis Set:
  @DF-RHF Final Energy:  -230.99527242619982
    Total Energy =                       -230.9952724261999037
  Basis Set: 6-31G*
  Basis Set:
  Basis Set: 6-31G*
  Basis Set:
  @DF-RHF Final Energy:  -230.99534385817941
    Total Energy =                       -230.9953438581795524
  Basis Set: 6-31G*
  Basis Set:
  Basis Set: 6-31G*
  Basis Set:
  @DF-RHF Final Energy:  -230.99538763390069
    Total Energy =                       -230.9953876339007479
  Basis Set: 6-31G*
  Basis Set:
  Basis Set: 6-31G*
  Basis Set:
  @DF-RHF Final Energy:  -230.99540435576790
    Total Energy =                       -230.9954043557678460
  Basis Set: 6-31G*
  Basis Set:
  Basis Set: 6-31G*
  Basis Set:
  @DF-RHF Final Energy:  -230.99541128034147
    Total Energy =                       -230.9954112803415001
  Basis Set: 6-31G*
  Basis Set:
  Charge       = 0
  Multiplicity = 1
  Basis Set: 6-31G*
  Basis Set:

    Orbital Energies (a.u.)
    -----------------------

    Doubly Occupied:

       1A    -20.548870     2A    -11.325604     3A    -11.233037
       4A    -11.229122     5A    -11.228885     6A     -1.394511
       7A     -1.065962     8A     -0.997404     9A     -0.883680
      10A     -0.733946    11A     -0.654846    12A     -0.647006
      13A     -0.608417    14A     -0.592605    15A     -0.565798
      16A     -0.539850    17A     -0.528615    18A     -0.502944
      19A     -0.480728    20A     -0.399697

  @DF-RHF Final Energy:  -230.99541149006330

   => Energetics <=

    Nuclear Repulsion Energy =            176.9508892596204532
    One-Electron Energy =                -663.5695489776214799
    Two-Electron Energy =                 255.6232482279376654
    DFT Exchange-Correlation Energy =       0.0000000000000000
    Empirical Dispersion Energy =           0.0000000000000000
    PCM Polarization Energy =               0.0000000000000000
    EFP Energy =                            0.0000000000000000
    Total Energy =                       -230.9954114900633613
    Molecular point group: c1
  Basis Set: 6-31G*
  Basis Set:

  -Total Gradient:
     Atom            X                  Y                   Z
    ------   -----------------  -----------------  -----------------
       1        0.000002579484     0.000013165537     0.000158296056
       2        0.000005524397     0.000016441747    -0.000190960068
       3        0.000040637482    -0.000104649852    -0.000130244403
       4       -0.000003028387     0.000014958435     0.000002778675
       5       -0.000003311077     0.000010002201     0.000020689756
       6       -0.000049101618     0.000052021497     0.000149320636
       7        0.000008737913     0.000002976827    -0.000001279188
       8        0.000001019192    -0.000002717116    -0.000001251813
       9        0.000002465050     0.000000555897    -0.000003809791
      10       -0.000001202768     0.000001791476    -0.000003856313
      11       -0.000002539525     0.000000716158     0.000001198427
      12        0.000000603706    -0.000005179462     0.000000590467
      13       -0.000002383849    -0.000000083345    -0.000001472443

  **** Optimization is complete! (in 8 steps) ****
    Final optimized geometry and variables:
    Molecular point group: c1

    Geometry (in Angstrom), charge = 0, multiplicity = 1:

    O            0.195075892936     1.499112993696     0.333704206109
    C            0.330560654614     0.314035581525     0.304558598340
    C           -0.873603652780    -0.611270822349     0.302960568836
    C            1.700229502744    -0.326826790222     0.249456795453
    C           -1.362618814750    -0.872229220409    -1.128681966529
    H           -0.627551073929    -1.551863028954     0.786955329191
    H           -1.657928445899    -0.129675423995     0.874333153472
    H           -0.602016134814    -1.360222863373    -1.730433247763
    H           -2.236578896039    -1.513887383807    -1.118083254913
    H           -1.631606316146     0.059133630553    -1.613549316465
    H            1.750455480526    -1.076000977350    -0.534714089471
    H            2.454772881239     0.429540681929     0.084252951792
    H            1.900503844410    -0.832952132465     1.190267400794

  Mulliken Charges: (a.u.)
   Center  Symbol    Alpha    Beta     Spin     Total
       1     O     4.26060  4.26060  0.00000 -0.52119
       2     C     2.73809  2.73809  0.00000  0.52381
       3     C     3.19946  3.19946  0.00000 -0.39892
       4     C     3.28959  3.28959  0.00000 -0.57919
       5     C     3.24879  3.24879  0.00000 -0.49759
       6     H     0.41593  0.41593  0.00000  0.16814
       7     H     0.39954  0.39954  0.00000  0.20093
       8     H     0.41829  0.41829  0.00000  0.16343
       9     H     0.41130  0.41130  0.00000  0.17740
      10     H     0.40547  0.40547  0.00000  0.18907
      11     H     0.41004  0.41004  0.00000  0.17993
      12     H     0.39662  0.39662  0.00000  0.20675
      13     H     0.40628  0.40628  0.00000  0.18743

   Total alpha = 20.00000, Total beta = 20.00000, Total charge =  0.00000
