  ==> Input File <==

--------------------------------------------------------------------------
set {
	reference rhf
	basis 6-31G*
}

set_num_threads( 1 )
memory 2 gb

molecule MOL {
0 1

H	 2.185878	 2.473464	 2.912061
N	 1.347157	 1.926784	 2.876937
C	 0.969830	 1.648677	 1.498603
H	 0.633774	 2.461538	 3.335143
C	 -0.250816	 0.735762	 1.449966
H	 1.808678	 1.151415	 1.021190
H	 0.769861	 2.552526	 0.917682
C	 -0.679275	 0.379305	 0.025956
H	 -0.026841	 -0.166553	 2.011658
H	 -1.079302	 1.221691	 1.964574
C	 -1.903357	 -0.536963	 -0.023547
H	 0.149276	 -0.103705	 -0.489847
H	 -0.893089	 1.291280	 -0.529411
C	 -3.225172	 0.228290	 0.028445
H	 -1.867824	 -1.134999	 -0.931459
H	 -1.860449	 -1.239604	 0.805977
H	 -3.313397	 0.915643	 -0.808262
H	 -4.073500	 -0.448134	 -0.008893
H	 -3.306061	 0.809945	 0.942516

	symmetry c1
}
set optking {
	frozen_dihedral = ("
		6 3 5 9,
		12 8 5 9,
		1 2 3 6
	")
}

ee = energy('scf')
oeprop('DIPOLE', 'QUADRUPOLE', 'MULLIKEN_CHARGES')
f=open( 'psi4out.xyz', 'w' )
f.write( "19  " )
f.write( str(ee) + "\n" )
f.write( MOL.save_string_xyz() )
f.close()
--------------------------------------------------------------------------

    Molecular point group: c1

    Geometry (in Angstrom), charge = 0, multiplicity = 1:

       Center              X                  Y                   Z               Mass
    ------------   -----------------  -----------------  -----------------  -----------------
           H          2.796168348273     1.712279513445     1.910174065247     1.007825032070
           N          1.957447348273     1.165599513445     1.875050065247    14.003074004780
           C          1.580120348273     0.887492513445     0.496716065247    12.000000000000
           H          1.244064348273     1.700353513445     2.333256065247     1.007825032070
           C          0.359474348273    -0.025422486555     0.448079065247    12.000000000000
           H          2.418968348273     0.390230513445     0.019303065247     1.007825032070
           H          1.380151348273     1.791341513445    -0.084204934753     1.007825032070
           C         -0.068984651727    -0.381879486555    -0.975930934753    12.000000000000
           H          0.583449348273    -0.927737486555     1.009771065247     1.007825032070
           H         -0.469011651727     0.460506513445     0.962687065247     1.007825032070
           C         -1.293066651727    -1.298147486555    -1.025433934753    12.000000000000
           H          0.759566348273    -0.864889486555    -1.491733934753     1.007825032070
           H         -0.282798651727     0.530095513445    -1.531297934753     1.007825032070
           C         -2.614881651727    -0.532894486555    -0.973441934753    12.000000000000
           H         -1.257533651727    -1.896183486555    -1.933345934753     1.007825032070
           H         -1.250158651727    -2.000788486555    -0.195909934753     1.007825032070
           H         -2.703106651727     0.154458513445    -1.810148934753     1.007825032070
           H         -3.463209651727    -1.209318486555    -1.010779934753     1.007825032070
           H         -2.695770651727     0.048760513445    -0.059370934753     1.007825032070

  Charge       = 0
  Multiplicity = 1
  Basis Set: 6-31G*
  Basis Set:

    Orbital Energies (a.u.)
    -----------------------

    Doubly Occupied:

       1A    -15.532446     2A    -11.239579     3A    -11.213224
       4A    -11.211989     5A    -11.209429     6A    -11.207550
       7A     -1.176560     8A     -1.073829     9A     -0.995832
      10A     -0.902124    11A     -0.819550    12A     -0.782340
      13A     -0.663825    14A     -0.635491    15A     -0.612845
      16A     -0.603368    17A     -0.562551    18A     -0.555606
      19A     -0.519097    20A     -0.497022    21A     -0.492230
      22A     -0.464923    23A     -0.452555    24A     -0.449776
      25A     -0.380867

  @DF-RHF Final Energy:  -251.34878267495688

   => Energetics <=

    Nuclear Repulsion Energy =            248.4484523440657142
    One-Electron Energy =                -831.0853057020362940
    Two-Electron Energy =                 331.2880706830137001
    DFT Exchange-Correlation Energy =       0.0000000000000000
    Empirical Dispersion Energy =           0.0000000000000000
    PCM Polarization Energy =               0.0000000000000000
    EFP Energy =                            0.0000000000000000
    Total Energy =                       -251.3487826749569081

  Mulliken Charges: (a.u.)
   Center  Symbol    Alpha    Beta     Spin     Total
       1     H     0.33251  0.33251  0.00000  0.33498
       2     N     3.92188  3.92188  0.00000 -0.84376
       3     C     3.06017  3.06017  0.00000 -0.12033
       4     H     0.33541  0.33541  0.00000  0.32919
       5     C     3.15277  3.15277  0.00000 -0.30554
       6     H     0.42083  0.42083  0.00000  0.15834
       7     H     0.43479  0.43479  0.00000  0.13043
       8     C     3.15782  3.15782  0.00000 -0.31564
       9     H     0.41273  0.41273  0.00000  0.17455
      10     H     0.42714  0.42714  0.00000  0.14572
      11     C     3.15349  3.15349  0.00000 -0.30698
      12     H     0.42136  0.42136  0.00000  0.15728
      13     H     0.42400  0.42400  0.00000  0.15199
      14     C     3.24020  3.24020  0.00000 -0.48040
      15     H     0.42070  0.42070  0.00000  0.15860
      16     H     0.42100  0.42100  0.00000  0.15800
      17     H     0.42204  0.42204  0.00000  0.15592
      18     H     0.41949  0.41949  0.00000  0.16102
      19     H     0.42168  0.42168  0.00000  0.15664

   Total alpha = 25.00000, Total beta = 25.00000, Total charge =  0.00000
