  ==> Input File <==

--------------------------------------------------------------------------
set {
	reference rhf
	basis cc-pvtz
}

set_num_threads( 4 )
memory 2 gb

molecule MOL {
0 1

H	 1.328843	 -1.573722	 0.157381
O	 1.583947	 -0.677544	 -0.001533
C	 0.489979	 0.078084	 0.002623
C	 -0.763662	 -0.754014	 0.000816
O	 0.539051	 1.259395	 -0.000088
C	 -2.038001	 0.074705	 -0.000833
H	 -0.712945	 -1.405886	 -0.864342
H	 -0.715137	 -1.405770	 0.866182
H	 -2.087267	 0.710831	 -0.874232
H	 -2.903419	 -0.576199	 -0.001922
H	 -2.089467	 0.710909	 0.872389

	symmetry c1
}
set optking {
	frozen_dihedral = ("
		1 2 3 5
	")
}

ee = optimize('scf')
oeprop('DIPOLE', 'QUADRUPOLE', 'MULLIKEN_CHARGES')
f=open( 'psi4out.xyz', 'w' )
f.write( "11  " )
f.write( str(ee) + "\n" )
f.write( MOL.save_string_xyz() )
f.close()
--------------------------------------------------------------------------

    Molecular point group: c1
  Charge       = 0
  Multiplicity = 1
  Basis Set: CC-PVTZ
  Basis Set:
  @DF-RHF Final Energy:  -266.94215892788122
    Total Energy =                       -266.9421589278813371
    Molecular point group: c1
  Basis Set: CC-PVTZ
  Basis Set:
  Basis Set: CC-PVTZ
  Basis Set:
  @DF-RHF Final Energy:  -266.94341191399405
    Total Energy =                       -266.9434119139941686
  Basis Set: CC-PVTZ
  Basis Set:
  Basis Set: CC-PVTZ
  Basis Set:
  @DF-RHF Final Energy:  -266.94321977165384
    Total Energy =                       -266.9432197716540713
  Basis Set: CC-PVTZ
  Basis Set:
  Basis Set: CC-PVTZ
  Basis Set:
  @DF-RHF Final Energy:  -266.94362589252125
    Total Energy =                       -266.9436258925211973
  Basis Set: CC-PVTZ
  Basis Set:
  Basis Set: CC-PVTZ
  Basis Set:
  @DF-RHF Final Energy:  -266.94362743149270
    Total Energy =                       -266.9436274314928141
  Basis Set: CC-PVTZ
  Basis Set:
  Charge       = 0
  Multiplicity = 1
  Basis Set: CC-PVTZ
  Basis Set:

    Orbital Energies (a.u.)
    -----------------------

    Doubly Occupied:

       1A    -20.605224     2A    -20.537541     3A    -11.373626
       4A    -11.254149     5A    -11.224503     6A     -1.472467
       7A     -1.374530     8A     -1.070041     9A     -0.909479
      10A     -0.832510    11A     -0.720162    12A     -0.669518
      13A     -0.662367    14A     -0.612123    15A     -0.598507
      16A     -0.535338    17A     -0.529822    18A     -0.513921
      19A     -0.482622    20A     -0.445475

  @DF-RHF Final Energy:  -266.94362784622683

   => Energetics <=

    Nuclear Repulsion Energy =            180.0810712425129907
    One-Electron Energy =                -721.2015456573260508
    Two-Electron Energy =                 274.1768465685862566
    DFT Exchange-Correlation Energy =       0.0000000000000000
    Empirical Dispersion Energy =           0.0000000000000000
    PCM Polarization Energy =               0.0000000000000000
    EFP Energy =                            0.0000000000000000
    Total Energy =                       -266.9436278462268319
    Molecular point group: c1
  Basis Set: CC-PVTZ
  Basis Set:

  -Total Gradient:
     Atom            X                  Y                   Z
    ------   -----------------  -----------------  -----------------
       1        0.000215919304     0.000350632780     0.002360581385
       2       -0.000304565028    -0.000443405488    -0.002075463341
       3        0.000108839260     0.000061698906    -0.002339137133
       4        0.000001809891     0.000016312586    -0.000016682095
       5       -0.000022232051     0.000025766300     0.002061960358
       6        0.000007948498    -0.000007835128     0.000004086845
       7       -0.000003319397    -0.000005315608     0.000005297887
       8        0.000004128525     0.000003656920     0.000003904565
       9       -0.000000293125    -0.000000687817     0.000001100123
      10       -0.000010113523     0.000001387497    -0.000001280503
      11        0.000001877648    -0.000002210946    -0.000004368091

  **** Optimization is complete! (in 6 steps) ****
    Final optimized geometry and variables:
    Molecular point group: c1

    Geometry (in Angstrom), charge = 0, multiplicity = 1:

    H            1.472110573542    -1.545745713830     0.155735065978
    O            1.631438129836    -0.630879619692     0.003134584377
    C            0.501103989757     0.080755026125    -0.002236788246
    C           -0.770516784654    -0.738562608461    -0.003810760819
    O            0.541192238883     1.255894430418    -0.004273498876
    C           -2.033357725566     0.107485768411    -0.003857981718
    H           -0.739356328947    -1.388970965322    -0.873162383672
    H           -0.745000211467    -1.390513614580     0.865676278541
    H           -2.069696669934     0.744560727804    -0.876635701159
    H           -2.908976542111    -0.529784221835    -0.005204944988
    H           -2.071607326653     0.743602738781     0.869610542959

  Mulliken Charges: (a.u.)
   Center  Symbol    Alpha    Beta     Spin     Total
       1     H     0.38803  0.38803  0.00000  0.22394
       2     O     4.14546  4.14546  0.00000 -0.29091
       3     C     2.80510  2.80510  0.00000  0.38981
       4     C     3.11718  3.11718  0.00000 -0.23436
       5     O     4.17540  4.17540  0.00000 -0.35079
       6     C     3.14053  3.14053  0.00000 -0.28105
       7     H     0.44087  0.44087  0.00000  0.11826
       8     H     0.44698  0.44698  0.00000  0.10603
       9     H     0.44469  0.44469  0.00000  0.11063
      10     H     0.45046  0.45046  0.00000  0.09907
      11     H     0.44531  0.44531  0.00000  0.10937

   Total alpha = 20.00000, Total beta = 20.00000, Total charge = -0.00000
