  ==> Input File <==

--------------------------------------------------------------------------
set {
	reference rhf
	basis 6-31G*
}

set_num_threads( 4 )
memory 2 gb

molecule MOL {
0 1

H	 -0.000158	 1.970498	 0.756846
O	 -0.000074	 1.880206	 -0.189275
C	 -0.000015	 0.544847	 -0.545111
C	 -0.562476	 -0.296330	 0.595962
C	 1.396886	 0.127014	 -0.992417
H	 -0.660866	 0.428823	 -1.391229
F	 -1.796098	 0.080292	 0.856497
F	 -0.580872	 -1.580315	 0.307168
F	 0.151408	 -0.131397	 1.698125
F	 1.763798	 0.849612	 -2.029125
F	 1.450835	 -1.141260	 -1.340193
F	 2.279718	 0.328184	 -0.027162

	symmetry c1
}
set optking {
	frozen_dihedral = ("
		6 3 2 1
	")
}

ee = optimize('scf')
oeprop('DIPOLE', 'QUADRUPOLE', 'MULLIKEN_CHARGES')
f=open( 'psi4out.xyz', 'w' )
f.write( "12  " )
f.write( str(ee) + "\n" )
f.write( MOL.save_string_xyz() )
f.close()
--------------------------------------------------------------------------

    Molecular point group: c1
  Charge       = 0
  Multiplicity = 1
  Basis Set: 6-31G*
  Basis Set:
  @DF-RHF Final Energy:  -786.27464894685977
    Total Energy =                       -786.2746489468597701
    Molecular point group: c1
  Basis Set: 6-31G*
  Basis Set:
  Basis Set: 6-31G*
  Basis Set:
  @DF-RHF Final Energy:  -786.27507787007266
    Total Energy =                       -786.2750778700726642
  Basis Set: 6-31G*
  Basis Set:
  Basis Set: 6-31G*
  Basis Set:
  @DF-RHF Final Energy:  -786.27519462416012
    Total Energy =                       -786.2751946241601217
  Basis Set: 6-31G*
  Basis Set:
  Basis Set: 6-31G*
  Basis Set:
  @DF-RHF Final Energy:  -786.27520428927642
    Total Energy =                       -786.2752042892770987
  Basis Set: 6-31G*
  Basis Set:
  Basis Set: 6-31G*
  Basis Set:
  @DF-RHF Final Energy:  -786.27520565996713
    Total Energy =                       -786.2752056599667867
  Basis Set: 6-31G*
  Basis Set:
  Charge       = 0
  Multiplicity = 1
  Basis Set: 6-31G*
  Basis Set:

    Orbital Energies (a.u.)
    -----------------------

    Doubly Occupied:

       1A    -26.369644     2A    -26.368664     3A    -26.365348
       4A    -26.355772     5A    -26.355301     6A    -26.352518
       7A    -20.614883     8A    -11.532978     9A    -11.520120
      10A    -11.349396    11A     -1.769478    12A     -1.754953
      13A     -1.667411    14A     -1.663111    15A     -1.652284
      16A     -1.650744    17A     -1.432984    18A     -1.103067
      19A     -0.997934    20A     -0.937994    21A     -0.867906
      22A     -0.863053    23A     -0.855353    24A     -0.841939
      25A     -0.831012    26A     -0.809161    27A     -0.745440
      28A     -0.732196    29A     -0.720424    30A     -0.717274
      31A     -0.695119    32A     -0.690216    33A     -0.684963
      34A     -0.671541    35A     -0.667521    36A     -0.666633
      37A     -0.653505    38A     -0.652392    39A     -0.617707
      40A     -0.549029    41A     -0.504221

  @DF-RHF Final Energy:  -786.27520585296634

   => Energetics <=

    Nuclear Repulsion Energy =            670.6308865709004294
    One-Electron Energy =               -2428.1098058283878345
    Two-Electron Energy =                 971.2037134045208404
    DFT Exchange-Correlation Energy =       0.0000000000000000
    Empirical Dispersion Energy =           0.0000000000000000
    PCM Polarization Energy =               0.0000000000000000
    EFP Energy =                            0.0000000000000000
    Total Energy =                       -786.2752058529665646
    Molecular point group: c1
  Basis Set: 6-31G*
  Basis Set:

  -Total Gradient:
     Atom            X                  Y                   Z
    ------   -----------------  -----------------  -----------------
       1       -0.003783608181     0.000010871476     0.000108694461
       2        0.004107393042    -0.000166210352     0.000390303921
       3        0.002145377548     0.000656851805    -0.002648080884
       4        0.000030579949    -0.000023032626     0.000039941312
       5       -0.000001449897     0.000045770953     0.000037261313
       6       -0.002467538741    -0.000491328215     0.002120883166
       7       -0.000058324810     0.000019007946    -0.000002924944
       8        0.000014179097    -0.000007030157     0.000004295696
       9        0.000026171890    -0.000006455635    -0.000057672922
      10        0.000014186607    -0.000013361102     0.000019776289
      11       -0.000006407817    -0.000020768181     0.000003378910
      12       -0.000020558696    -0.000004315914    -0.000015856310

  **** Optimization is complete! (in 6 steps) ****
    Final optimized geometry and variables:
    Molecular point group: c1

    Geometry (in Angstrom), charge = 0, multiplicity = 1:

    H           -0.391274115888     1.966822493884     0.881687996183
    O           -0.416413200271     1.844228880105    -0.058497544762
    C           -0.430392388471     0.501920271747    -0.397652827661
    C           -0.977184874962    -0.334182307461     0.754286639781
    C            0.965147433178     0.085208981856    -0.846669500340
    H           -1.110230353511     0.355738795143    -1.225710940156
    F           -2.239495864307    -0.013745357915     0.966053270222
    F           -0.915751385446    -1.623262778569     0.513781632330
    F           -0.316823778562    -0.086401380389     1.874767493866
    F            1.371166830151     0.874543182628    -1.817115708598
    F            0.974788348996    -1.153452612204    -1.301461303834
    F            1.835802088527     0.166670875172     0.140996113170

  Mulliken Charges: (a.u.)
   Center  Symbol    Alpha    Beta     Spin     Total
       1     H     0.26346  0.26346  0.00000  0.47307
       2     O     4.36875  4.36875  0.00000 -0.73749
       3     C     3.03104  3.03104  0.00000 -0.06207
       4     C     2.46162  2.46162  0.00000  1.07677
       5     C     2.43969  2.43969  0.00000  1.12063
       6     H     0.37909  0.37909  0.00000  0.24182
       7     F     4.67667  4.67667  0.00000 -0.35334
       8     F     4.67033  4.67033  0.00000 -0.34065
       9     F     4.67926  4.67926  0.00000 -0.35852
      10     F     4.67509  4.67509  0.00000 -0.35018
      11     F     4.67739  4.67739  0.00000 -0.35479
      12     F     4.67762  4.67762  0.00000 -0.35524

   Total alpha = 41.00000, Total beta = 41.00000, Total charge = -0.00000
