                              Psi4 1.0.54 Driver

  ==> Input File <==

--------------------------------------------------------------------------
set {
	reference rhf
	basis cc-pvtz
}

set_num_threads( 4 )
memory 2 gb

molecule MOL {
0 1

O	 -0.988175	 -1.402891	 0.050086
C	 -0.675048	 -0.248293	 -0.009686
C	 -1.742492	 0.826599	 -0.011538
N	 0.622280	 0.144970	 -0.099307
H	 -1.692153	 1.431066	 -0.908439
H	 -2.698310	 0.331559	 0.031353
H	 -1.642148	 1.483784	 0.843455
C	 0.964516	 1.509203	 0.243754
C	 1.637390	 -0.582469	 -0.823282
H	 1.914889	 1.523464	 0.763185
H	 0.203926	 1.923390	 0.880255
H	 1.051868	 2.129773	 -0.644444
H	 2.592265	 -0.444294	 -0.332613
H	 1.432179	 -1.639048	 -0.843899
H	 1.735791	 -0.231066	 -1.847917

	symmetry c1
}
set optking {
	frozen_dihedral = ("
		8 4 2 3
	")
}

ee,wfn = optimize('scf', return_wfn=True)
oeprop( wfn, 'DIPOLE', 'QUADRUPOLE', 'MULLIKEN_CHARGES')
f=open( 'psi4out.xyz', 'w' )
f.write( "15  " )
f.write( str(ee) + "\n" )
f.write( MOL.save_string_xyz() )
f.close()
--------------------------------------------------------------------------

    Molecular point group: c1
  Charge       = 0
  Multiplicity = 1
  Basis Set: CC-PVTZ
  Basis Set:
  @DF-RHF Final Energy:  -286.12439461332360
    Total Energy =                       -286.1243946133234886
    Molecular point group: c1
  Basis Set: CC-PVTZ
  Basis Set:
  Basis Set: CC-PVTZ
  Basis Set:
  @DF-RHF Final Energy:  -286.10109449106659
    Total Energy =                       -286.1010944910664762
  Basis Set: CC-PVTZ
  Basis Set:
  Basis Set: CC-PVTZ
  Basis Set:
  @DF-RHF Final Energy:  -286.12871283612515
    Total Energy =                       -286.1287128361251462
  Basis Set: CC-PVTZ
  Basis Set:
  Basis Set: CC-PVTZ
  Basis Set:
  @DF-RHF Final Energy:  -286.13112747120260
    Total Energy =                       -286.1311274712027171
  Basis Set: CC-PVTZ
  Basis Set:
  @DF-RHF Final Energy:  -286.13238220369254
    Total Energy =                       -286.1323822036923730
  @DF-RHF Final Energy:  -286.13333731936052
    Total Energy =                       -286.1333373193602938
  @DF-RHF Final Energy:  -286.13394837811882
    Total Energy =                       -286.1339483781188164
  @DF-RHF Final Energy:  -286.13401918320221
    Total Energy =                       -286.1340191832023265
  @DF-RHF Final Energy:  -286.13483943352173
    Total Energy =                       -286.1348394335217904
  @DF-RHF Final Energy:  -286.13516981927910
    Total Energy =                       -286.1351698192790423
  @DF-RHF Final Energy:  -286.13538013538636
    Total Energy =                       -286.1353801353860717
  @DF-RHF Final Energy:  -286.13545128165026
    Total Energy =                       -286.1354512816503757
  @DF-RHF Final Energy:  -286.13546516839068
    Total Energy =                       -286.1354651683907946
  @DF-RHF Final Energy:  -286.13547342902234
    Total Energy =                       -286.1354734290225679
  Basis Set: CC-PVTZ
  Basis Set:
  @DF-RHF Final Energy:  -286.13548021087973
    Total Energy =                       -286.1354802108796775
  Basis Set: CC-PVTZ
  Basis Set:
  Basis Set: CC-PVTZ
  Basis Set:
  @DF-RHF Final Energy:  -286.13548590014494
    Total Energy =                       -286.1354859001447721
  Basis Set: CC-PVTZ
  Basis Set:
  Basis Set: CC-PVTZ
  Basis Set:
  @DF-RHF Final Energy:  -286.13548698138408
    Total Energy =                       -286.1354869813840764
  Basis Set: CC-PVTZ
  Basis Set:
  Charge       = 0
  Multiplicity = 1
  Basis Set: CC-PVTZ
  Basis Set:

    Orbital Energies (a.u.)
    -----------------------

    Doubly Occupied:

       1A    -20.506169     2A    -15.577814     3A    -11.335060
       4A    -11.263699     5A    -11.246199     6A    -11.226617
       7A     -1.389235     8A     -1.245797     9A     -1.015007
      10A     -0.972577    11A     -0.919489    12A     -0.738590
      13A     -0.683171    14A     -0.661450    15A     -0.653751
      16A     -0.590744    17A     -0.578690    18A     -0.568487
      19A     -0.561767    20A     -0.547212    21A     -0.529970
      22A     -0.506098    23A     -0.415467    24A     -0.372223

  @DF-RHF Final Energy:  -286.13548702966466

   => Energetics <=

    Nuclear Repulsion Energy =            253.0390744008849708
    One-Electron Energy =                -890.1385559277568973
    Two-Electron Energy =                 350.9639944972074659
    DFT Exchange-Correlation Energy =       0.0000000000000000
    Empirical Dispersion Energy =           0.0000000000000000
    PCM Polarization Energy =               0.0000000000000000
    EFP Energy =                            0.0000000000000000
    Total Energy =                       -286.1354870296644890
    Molecular point group: c1
  Basis Set: CC-PVTZ
  Basis Set:

  -Total Gradient:
     Atom            X                  Y                   Z
    ------   -----------------  -----------------  -----------------
       1       -0.000000378882     0.000011127371     0.000005952058
       2        0.001010409103    -0.000581627079     0.001374275147
       3       -0.000470962009     0.000193179267    -0.000678986534
       4       -0.001119266938     0.000843075053    -0.001262265191
       5        0.000000567971    -0.000001683184     0.000000044852
       6       -0.000003022199     0.000000275691     0.000001797190
       7        0.000003011422    -0.000002471362    -0.000002412892
       8        0.000574844120    -0.000464310511     0.000573250707
       9       -0.000004946793     0.000008958397    -0.000006675019
      10        0.000000619537     0.000002501624    -0.000001872448
      11        0.000002568850    -0.000003356933    -0.000002593567
      12       -0.000001868077    -0.000003224094     0.000001238243
      13       -0.000002876293     0.000001148347    -0.000003469233
      14        0.000008806970     0.000005415204     0.000001368962
      15        0.000002493218    -0.000009007790     0.000000347724

  **** Optimization is complete! (in 18 steps) ****
    Final optimized geometry and variables:
    Molecular point group: c1

    Geometry (in Angstrom), charge = 0, multiplicity = 1:

    O           -0.801093992085    -1.506775405531    -0.038584542428
    C           -0.590359372505    -0.352797507598     0.199479193849
    C           -1.544985309636     0.429154000361     1.077441252665
    N            0.472116034389     0.310306574192    -0.334042740862
    H           -1.904570662530     1.318835240861     0.576778367418
    H           -2.376481683870    -0.216695650245     1.306028857454
    H           -1.068127717518     0.731696399779     2.001936970111
    C            0.973824824652     1.555827600124     0.198960964304
    C            1.425712745952    -0.453844659633    -1.112102642048
    H            1.709420638627     1.395259565798     0.984265410422
    H            0.180107600094     2.165837651819     0.595519893938
    H            1.451527118372     2.115512525196    -0.594278651011
    H            2.203660619911    -0.883173770748    -0.485731881848
    H            0.920586908968    -1.253758231966    -1.623356083004
    H            1.892375160463     0.198311399861    -1.838942827427

  Mulliken Charges: (a.u.)
   Center  Symbol    Alpha    Beta     Spin     Total
       1     O     4.21760  4.21760  0.00000 -0.43520
       2     C     2.84422  2.84422  0.00000  0.31157
       3     C     3.16073  3.16073  0.00000 -0.32147
       4     N     3.56623  3.56623  0.00000 -0.13245
       5     H     0.44851  0.44851  0.00000  0.10298
       6     H     0.42873  0.42873  0.00000  0.14254
       7     H     0.44883  0.44883  0.00000  0.10234
       8     C     3.09579  3.09579  0.00000 -0.19157
       9     C     3.09617  3.09617  0.00000 -0.19234
      10     H     0.45558  0.45558  0.00000  0.08885
      11     H     0.44533  0.44533  0.00000  0.10933
      12     H     0.44862  0.44862  0.00000  0.10275
      13     H     0.45779  0.45779  0.00000  0.08443
      14     H     0.42909  0.42909  0.00000  0.14181
      15     H     0.45678  0.45678  0.00000  0.08644

   Total alpha = 24.00000, Total beta = 24.00000, Total charge = -0.00000

*** Psi4 exiting successfully. Buy a developer a beer!
