  ==> Input File <==

--------------------------------------------------------------------------
set {
	reference rhf
	basis cc-pvtz
}

set_num_threads( 4 )
memory 2 gb

molecule MOL {
0 1

H	 -1.088256	 -1.364742	 0.152233
O	 -1.432053	 -0.565244	 -0.200812
C	 -0.727158	 0.534527	 0.310686
C	 0.680222	 0.664433	 -0.252229
H	 -1.306802	 1.408001	 0.044211
H	 -0.690821	 0.490158	 1.397609
C	 1.659368	 1.364058	 0.685771
H	 1.049194	 -0.326757	 -0.494374
H	 0.617829	 1.216276	 -1.186159
H	 1.793799	 0.808697	 1.607522
H	 2.635519	 1.460711	 0.226053
H	 1.315330	 2.361838	 0.940780

	symmetry c1
}
set optking {
	frozen_dihedral = ("
		8 4 3 2
	")
}

ee = optimize('scf')
oeprop('DIPOLE', 'QUADRUPOLE', 'MULLIKEN_CHARGES')
f=open( 'psi4out.xyz', 'w' )
f.write( "12  " )
f.write( str(ee) + "\n" )
f.write( MOL.save_string_xyz() )
f.close()
--------------------------------------------------------------------------

    Molecular point group: c1
  Charge       = 0
  Multiplicity = 1
  Basis Set: CC-PVTZ
  Basis Set:
  @DF-RHF Final Energy:  -193.18758177143098
    Total Energy =                       -193.1875817714309278
    Molecular point group: c1
  Basis Set: CC-PVTZ
  Basis Set:
  Basis Set: CC-PVTZ
  Basis Set:
  @DF-RHF Final Energy:  -193.18800073049715
    Total Energy =                       -193.1880007304971514
  Basis Set: CC-PVTZ
  Basis Set:
  Basis Set: CC-PVTZ
  Basis Set:
  @DF-RHF Final Energy:  -193.18804994420003
    Total Energy =                       -193.1880499442001167
  Basis Set: CC-PVTZ
  Basis Set:
  Basis Set: CC-PVTZ
  Basis Set:
  @DF-RHF Final Energy:  -193.18805552074821
    Total Energy =                       -193.1880555207482075
  Basis Set: CC-PVTZ
  Basis Set:
  Charge       = 0
  Multiplicity = 1
  Basis Set: CC-PVTZ
  Basis Set:

    Orbital Energies (a.u.)
    -----------------------

    Doubly Occupied:

       1A    -20.545678     2A    -11.266054     3A    -11.218028
       4A    -11.214902     5A     -1.364210     6A     -1.053266
       7A     -0.920003     8A     -0.820395     9A     -0.694958
      10A     -0.637547    11A     -0.598988    12A     -0.580088
      13A     -0.558238    14A     -0.507656    15A     -0.493674
      16A     -0.466301    17A     -0.431823

  @DF-RHF Final Energy:  -193.18805590025542

   => Energetics <=

    Nuclear Repulsion Energy =            131.0774640142715555
    One-Electron Energy =                -521.7874215329322851
    Two-Electron Energy =                 197.5219016184054226
    DFT Exchange-Correlation Energy =       0.0000000000000000
    Empirical Dispersion Energy =           0.0000000000000000
    PCM Polarization Energy =               0.0000000000000000
    EFP Energy =                            0.0000000000000000
    Total Energy =                       -193.1880559002553355
    Molecular point group: c1
  Basis Set: CC-PVTZ
  Basis Set:

  -Total Gradient:
     Atom            X                  Y                   Z
    ------   -----------------  -----------------  -----------------
       1        0.000001809421    -0.000002143634     0.000003921437
       2        0.001351369887    -0.002266765252     0.002974238557
       3       -0.002253781339     0.003217100267    -0.005085351407
       4        0.002851720810    -0.001347866970     0.006775571651
       5       -0.000007257595    -0.000018075167    -0.000010567382
       6       -0.000022822318    -0.000011032542     0.000013403932
       7       -0.000008843402    -0.000038531702    -0.000038053008
       8       -0.001895677445     0.000427556831    -0.004621418010
       9        0.000001930204     0.000013104935    -0.000020187358
      10       -0.000000890205     0.000005877224    -0.000011943265
      11       -0.000007980142    -0.000001850771     0.000023553051
      12       -0.000009577880     0.000022626779    -0.000003168198

  **** Optimization is complete! (in 5 steps) ****
    Final optimized geometry and variables:
    Molecular point group: c1

    Geometry (in Angstrom), charge = 0, multiplicity = 1:

    H           -1.039385651942    -1.814489106052    -0.084150635139
    O           -1.462071163329    -1.011537410842    -0.328014019652
    C           -0.738140309145     0.076596275769     0.178223357933
    C            0.676029206481     0.179500274836    -0.393612790902
    H           -1.311709977460     0.961542935508    -0.061042504530
    H           -0.689041366673     0.012142420059     1.263745814487
    C            1.648559819277     0.899444171047     0.531418534864
    H            1.029013417952    -0.819044865394    -0.635285508083
    H            0.632916285559     0.694827056625    -1.348343650817
    H            1.770588806209     0.365382745651     1.467657719338
    H            2.625512076233     0.995914462249     0.073549245661
    H            1.296663686882     1.898731706300     0.766785669544

  Mulliken Charges: (a.u.)
   Center  Symbol    Alpha    Beta     Spin     Total
       1     H     0.39448  0.39448  0.00000  0.21103
       2     O     4.20283  4.20283  0.00000 -0.40566
       3     C     2.96679  2.96679  0.00000  0.06643
       4     C     3.08753  3.08753  0.00000 -0.17506
       5     H     0.45326  0.45326  0.00000  0.09349
       6     H     0.47465  0.47465  0.00000  0.05070
       7     C     3.15212  3.15212  0.00000 -0.30424
       8     H     0.45870  0.45870  0.00000  0.08259
       9     H     0.45276  0.45276  0.00000  0.09448
      10     H     0.45594  0.45594  0.00000  0.08812
      11     H     0.44733  0.44733  0.00000  0.10535
      12     H     0.45361  0.45361  0.00000  0.09277

   Total alpha = 17.00000, Total beta = 17.00000, Total charge = -0.00000
