                              Psi4 1.0.54 Driver

  ==> Input File <==

--------------------------------------------------------------------------
set {
	reference rhf
	basis cc-pvtz
}

set_num_threads( 4 )
memory 2 gb

molecule MOL {
0 1

H	 -0.537389	 4.140944	 2.003400
O	 0.140686	 3.550671	 1.731395
C	 -0.421404	 2.360740	 1.245044
C	 0.700916	 1.436872	 0.817272
H	 -1.022882	 1.881461	 2.014648
H	 -1.074667	 2.566065	 0.399515
C	 0.196029	 0.106276	 0.266738
H	 1.348753	 1.264880	 1.671055
H	 1.299900	 1.946900	 0.069605
C	 1.330220	 -0.826136	 -0.155230
H	 -0.421007	 -0.378409	 1.017113
H	 -0.449941	 0.289822	 -0.589192
C	 2.719700	 -0.407669	 0.328325
H	 1.339388	 -0.911200	 -1.239363
H	 1.119001	 -1.821953	 0.224128
C	 3.241564	 0.893452	 -0.276737
H	 3.418299	 -1.204729	 0.093035
H	 2.711776	 -0.323368	 1.411960
H	 3.254204	 0.841071	 -1.360784
H	 2.634460	 1.745075	 0.005842
H	 4.254264	 1.092401	 0.054971

	symmetry c1
}
set optking {
	frozen_dihedral = ("
		4 7 10 14
	")
}

ee,wfn = optimize('scf', return_wfn=True)
oeprop( wfn, 'DIPOLE', 'QUADRUPOLE', 'MULLIKEN_CHARGES')
f=open( 'psi4out.xyz', 'w' )
f.write( "21  " )
f.write( str(ee) + "\n" )
f.write( MOL.save_string_xyz() )
f.close()
--------------------------------------------------------------------------

    Molecular point group: c1
  Charge       = 0
  Multiplicity = 1
  Basis Set: CC-PVTZ
  Basis Set:
  @DF-RHF Final Energy:  -310.29563534444480
    Total Energy =                       -310.2956353444446904
    Molecular point group: c1
  Basis Set: CC-PVTZ
  Basis Set:
  Basis Set: CC-PVTZ
  Basis Set:
  @DF-RHF Final Energy:  -310.31504508437700
    Total Energy =                       -310.3150450843770614
  Basis Set: CC-PVTZ
  Basis Set:
  Basis Set: CC-PVTZ
  Basis Set:
  @DF-RHF Final Energy:  -310.31951487246033
    Total Energy =                       -310.3195148724606724
  Basis Set: CC-PVTZ
  Basis Set:
  Basis Set: CC-PVTZ
  Basis Set:
  @DF-RHF Final Energy:  -310.32069832957609
    Total Energy =                       -310.3206983295760324
  Basis Set: CC-PVTZ
  Basis Set:
  @DF-RHF Final Energy:  -310.32128396818121
    Total Energy =                       -310.3212839681809783
  @DF-RHF Final Energy:  -310.32134225276309
    Total Energy =                       -310.3213422527635430
  Basis Set: CC-PVTZ
  Basis Set:
  @DF-RHF Final Energy:  -310.32139422220365
    Total Energy =                       -310.3213942222035371
  Basis Set: CC-PVTZ
  Basis Set:
  Basis Set: CC-PVTZ
  Basis Set:
  @DF-RHF Final Energy:  -310.32140886341801
    Total Energy =                       -310.3214088634181280
  Basis Set: CC-PVTZ
  Basis Set:
  Basis Set: CC-PVTZ
  Basis Set:
  @DF-RHF Final Energy:  -310.32141111146825
    Total Energy =                       -310.3214111114684215
  Basis Set: CC-PVTZ
  Basis Set:
  Charge       = 0
  Multiplicity = 1
  Basis Set: CC-PVTZ
  Basis Set:

    Orbital Energies (a.u.)
    -----------------------

    Doubly Occupied:

       1A    -20.545564     2A    -11.264955     3A    -11.214627
       4A    -11.212476     5A    -11.211881     6A    -11.208658
       7A    -11.202392     8A     -1.363392     9A     -1.082385
      10A     -1.030700    11A     -0.957540    12A     -0.875246
      13A     -0.818156    14A     -0.767276    15A     -0.692584
      16A     -0.661256    17A     -0.624915    18A     -0.611953
      19A     -0.579013    20A     -0.569182    21A     -0.541025
      22A     -0.524799    23A     -0.505023    24A     -0.493668
      25A     -0.483199    26A     -0.451122    27A     -0.445141
      28A     -0.444313    29A     -0.437126

  @DF-RHF Final Energy:  -310.32141181530636

   => Energetics <=

    Nuclear Repulsion Energy =            319.4653560589729864
    One-Electron Energy =               -1053.9344019918512458
    Two-Electron Energy =                 424.1476341175714992
    DFT Exchange-Correlation Energy =       0.0000000000000000
    Empirical Dispersion Energy =           0.0000000000000000
    PCM Polarization Energy =               0.0000000000000000
    EFP Energy =                            0.0000000000000000
    Total Energy =                       -310.3214118153068171
    Molecular point group: c1
  Basis Set: CC-PVTZ
  Basis Set:

  -Total Gradient:
     Atom            X                  Y                   Z
    ------   -----------------  -----------------  -----------------
       1       -0.000004371778    -0.000001664445     0.000000326895
       2        0.000011825681    -0.000005371921     0.000010572184
       3       -0.000003247297     0.000009380554    -0.000021357874
       4        0.000183229304    -0.001237829417     0.002830573323
       5        0.000011303626     0.000000509086     0.000002701047
       6       -0.000005119424    -0.000004685330    -0.000004557833
       7       -0.000863954487     0.001056567298    -0.004089497682
       8        0.000013635337     0.000004531903     0.000011373376
       9        0.000017948694     0.000007933231    -0.000005921637
      10        0.002967968833     0.003420832256     0.001000083397
      11        0.000004146378    -0.000012668315    -0.000005081088
      12        0.000012264196    -0.000017114826    -0.000003100092
      13        0.000011990520     0.000039401704    -0.000003134812
      14       -0.002357940020    -0.003257938655     0.000265216232
      15       -0.000009826133     0.000008281590     0.000005311003
      16        0.000046533010     0.000000098777    -0.000027461089
      17       -0.000012328348    -0.000020965554    -0.000000720193
      18        0.000010489426     0.000013006758     0.000012815528
      19       -0.000002150131     0.000007397749     0.000014853409
      20       -0.000008729097    -0.000002723150     0.000007981579
      21       -0.000023668293    -0.000006979298    -0.000000975669

  **** Optimization is complete! (in 10 steps) ****
    Final optimized geometry and variables:
    Molecular point group: c1

    Geometry (in Angstrom), charge = 0, multiplicity = 1:

    H           -2.152938996872     2.847712808077     1.659063622234
    O           -1.396009484582     2.413531446782     1.311683685274
    C           -1.749821191476     1.150231514120     0.814043486566
    C           -0.503251688171     0.483862873400     0.265010423705
    H           -2.180882146577     0.537712256222     1.603036984528
    H           -2.496644407360     1.246103136084     0.028668761973
    C           -0.813435372994    -0.894797892699    -0.317023268497
    H            0.221099049030     0.413224728840     1.067021107411
    H           -0.080803342217     1.139396008826    -0.486720137158
    C            0.367372222318    -1.781175746949    -0.796827694113
    H           -1.351418717315    -1.449525038179     0.446672138066
    H           -1.513182667569    -0.778398916802    -1.138106822877
    C            1.794343924414    -1.451906613972    -0.341855156723
    H            0.346835987335    -1.850701913537    -1.880274516248
    H            0.150539843195    -2.790035190636    -0.461303618221
    C            2.497694016084    -0.347809866985    -1.128785267572
    H            2.382432193982    -2.358492027778    -0.446296884908
    H            1.805973732979    -1.215658055298     0.717082965421
    H            2.527896821318    -0.591833045252    -2.185743328770
    H            2.009381151236     0.611272414679    -1.025886513486
    H            3.520984923894    -0.230879100113    -0.789599580372

  Mulliken Charges: (a.u.)
   Center  Symbol    Alpha    Beta     Spin     Total
       1     H     0.39761  0.39761  0.00000  0.20478
       2     O     4.19450  4.19450  0.00000 -0.38901
       3     C     2.96588  2.96588  0.00000  0.06823
       4     C     3.09628  3.09628  0.00000 -0.19257
       5     H     0.47346  0.47346  0.00000  0.05309
       6     H     0.47378  0.47378  0.00000  0.05245
       7     C     3.10179  3.10179  0.00000 -0.20358
       8     H     0.44638  0.44638  0.00000  0.10724
       9     H     0.44880  0.44880  0.00000  0.10240
      10     C     3.09788  3.09788  0.00000 -0.19576
      11     H     0.45501  0.45501  0.00000  0.08999
      12     H     0.45026  0.45026  0.00000  0.09948
      13     C     3.10048  3.10048  0.00000 -0.20095
      14     H     0.45262  0.45262  0.00000  0.09475
      15     H     0.44740  0.44740  0.00000  0.10519
      16     C     3.14825  3.14825  0.00000 -0.29651
      17     H     0.44483  0.44483  0.00000  0.11033
      18     H     0.45073  0.45073  0.00000  0.09854
      19     H     0.45616  0.45616  0.00000  0.08769
      20     H     0.44936  0.44936  0.00000  0.10129
      21     H     0.44853  0.44853  0.00000  0.10293

   Total alpha = 29.00000, Total beta = 29.00000, Total charge = -0.00000

*** Psi4 exiting successfully. Buy a developer a beer!
