  ==> Input File <==

--------------------------------------------------------------------------
set {
	reference rhf
	basis cc-pvtz
}

set_num_threads( 4 )
memory 2 gb

molecule MOL {
0 1

H	 -2.012661	 0.217101	 -0.214078
N	 -1.173824	 -0.310545	 -0.096857
C	 -0.022588	 0.563366	 0.065815
H	 -1.298758	 -0.888307	 0.708249
C	 1.270420	 -0.230572	 -0.014245
H	 -0.045354	 1.293678	 -0.735129
H	 -0.043155	 1.123061	 1.001180
H	 1.336273	 -0.754933	 -0.959364
H	 2.130728	 0.422015	 0.082222
H	 1.323344	 -0.967006	 0.781773

	symmetry c1
}
set optking {
	frozen_dihedral = ("
		1 2 3 6
	")
}

ee = optimize('scf')
oeprop('DIPOLE', 'QUADRUPOLE', 'MULLIKEN_CHARGES')
f=open( 'psi4out.xyz', 'w' )
f.write( "10  " )
f.write( str(ee) + "\n" )
f.write( MOL.save_string_xyz() )
f.close()
--------------------------------------------------------------------------

    Molecular point group: c1
  Charge       = 0
  Multiplicity = 1
  Basis Set: CC-PVTZ
  Basis Set:
  @DF-RHF Final Energy:  -134.30464072951042
    Total Energy =                       -134.3046407295103677
    Molecular point group: c1
  Basis Set: CC-PVTZ
  Basis Set:
  Basis Set: CC-PVTZ
  Basis Set:
  @DF-RHF Final Energy:  -134.30465948417410
    Total Energy =                       -134.3046594841741239
  Basis Set: CC-PVTZ
  Basis Set:
  Charge       = 0
  Multiplicity = 1
  Basis Set: CC-PVTZ
  Basis Set:

    Orbital Energies (a.u.)
    -----------------------

    Doubly Occupied:

       1A    -15.526682     2A    -11.241006     3A    -11.203969
       4A     -1.177526     5A     -0.988234     6A     -0.823764
       7A     -0.665968     8A     -0.630526     9A     -0.580995
      10A     -0.516054    11A     -0.511521    12A     -0.486390
      13A     -0.384113

  @DF-RHF Final Energy:  -134.30466193722330

   => Energetics <=

    Nuclear Repulsion Energy =             83.4224252333865195
    One-Electron Energy =                -345.9806769872350856
    Two-Electron Energy =                 128.2535898166252082
    DFT Exchange-Correlation Energy =       0.0000000000000000
    Empirical Dispersion Energy =           0.0000000000000000
    PCM Polarization Energy =               0.0000000000000000
    EFP Energy =                            0.0000000000000000
    Total Energy =                       -134.3046619372233863
    Molecular point group: c1
  Basis Set: CC-PVTZ
  Basis Set:

  -Total Gradient:
     Atom            X                  Y                   Z
    ------   -----------------  -----------------  -----------------
       1        0.000116399044     0.000063399808    -0.001061865600
       2       -0.000334946377     0.000047235372     0.001372465009
       3        0.000819283409    -0.000597823924    -0.000827488094
       4        0.000011424073    -0.000024345728     0.000027541416
       5        0.000016052602    -0.000073394742    -0.000022231127
       6       -0.000566279012     0.000538695494     0.000595868724
       7       -0.000045323760     0.000017963188    -0.000057614682
       8        0.000005841571    -0.000023966407    -0.000004470089
       9       -0.000003470906     0.000033142871     0.000000520508
      10       -0.000018980644     0.000019094067    -0.000022726065

  **** Optimization is complete! (in 3 steps) ****
    Final optimized geometry and variables:
    Molecular point group: c1

    Geometry (in Angstrom), charge = 0, multiplicity = 1:

    H           -2.013597547684     0.217325468046    -0.204534632830
    N           -1.174461621900    -0.310098244528    -0.092556223912
    C           -0.019989054987     0.560592812226     0.063973225452
    H           -1.292787982107    -0.901350192775     0.703054931624
    C            1.272741760432    -0.234062169894    -0.012425352124
    H           -0.046516917583     1.290990960205    -0.736504062532
    H           -0.040278090294     1.125548391391     0.996262983982
    H            1.341094000573    -0.758152434058    -0.957409275707
    H            2.133525264051     0.417677597215     0.088531683401
    H            1.320630577660    -0.971370581174     0.782835269884

  Mulliken Charges: (a.u.)
   Center  Symbol    Alpha    Beta     Spin     Total
       1     H     0.42850  0.42850  0.00000  0.14300
       2     N     3.69141  3.69141  0.00000 -0.38283
       3     C     3.02067  3.02067  0.00000 -0.04134
       4     H     0.42983  0.42983  0.00000  0.14034
       5     C     3.13658  3.13658  0.00000 -0.27315
       6     H     0.45753  0.45753  0.00000  0.08493
       7     H     0.46904  0.46904  0.00000  0.06191
       8     H     0.45019  0.45019  0.00000  0.09962
       9     H     0.45657  0.45657  0.00000  0.08685
      10     H     0.45967  0.45967  0.00000  0.08066

   Total alpha = 13.00000, Total beta = 13.00000, Total charge =  0.00000
