  ==> Input File <==

--------------------------------------------------------------------------
set {
	reference rhf
	basis 6-31G*
}

set_num_threads( 4 )
memory 2 gb

molecule MOL {
0 1

H	 1.209217	 -0.091441	 -0.887256
C	 0.850167	 0.441173	 0.000644
C	 -0.623425	 0.760064	 0.000248
O	 1.604428	 0.722210	 0.874631
C	 -1.518387	 -0.473136	 -0.000101
H	 -0.818289	 1.390622	 -0.866171
H	 -0.818694	 1.390413	 0.866696
H	 -1.333417	 -1.085530	 -0.874338
H	 -2.563510	 -0.183466	 -0.000351
H	 -1.333864	 -1.085676	 0.874123

	symmetry c1
}
set optking {
	frozen_dihedral = ("
		4 2 3 6
	")
}

ee = optimize('scf')
oeprop('DIPOLE', 'QUADRUPOLE', 'MULLIKEN_CHARGES')
f=open( 'psi4out.xyz', 'w' )
f.write( "10  " )
f.write( str(ee) + "\n" )
f.write( MOL.save_string_xyz() )
f.close()
--------------------------------------------------------------------------

    Molecular point group: c1
  Charge       = 0
  Multiplicity = 1
  Basis Set: 6-31G*
  Basis Set:
  @DF-RHF Final Energy:  -191.94958127388696
    Total Energy =                       -191.9495812738870484
    Molecular point group: c1
  Basis Set: 6-31G*
  Basis Set:
  Basis Set: 6-31G*
  Basis Set:
  @DF-RHF Final Energy:  -191.95016718277847
    Total Energy =                       -191.9501671827784435
  Basis Set: 6-31G*
  Basis Set:
  Basis Set: 6-31G*
  Basis Set:
  @DF-RHF Final Energy:  -191.95018102825293
    Total Energy =                       -191.9501810282528709
  Basis Set: 6-31G*
  Basis Set:
  Basis Set: 6-31G*
  Basis Set:
  @DF-RHF Final Energy:  -191.95000538129943
    Total Energy =                       -191.9500053812994906
  Basis Set: 6-31G*
  Basis Set:
  Charge       = 0
  Multiplicity = 1
  Basis Set: 6-31G*
  Basis Set:

    Orbital Energies (a.u.)
    -----------------------

    Doubly Occupied:

       1A    -20.564103     2A    -11.327897     3A    -11.239094
       4A    -11.234376     5A     -1.403879     6A     -1.066958
       7A     -0.904326     8A     -0.793649     9A     -0.674863
      10A     -0.640405    11A     -0.614447    12A     -0.567964
      13A     -0.543498    14A     -0.514709    15A     -0.495998
      16A     -0.412572

  @DF-RHF Final Energy:  -191.95020236197814

   => Energetics <=

    Nuclear Repulsion Energy =            117.3853108265713985
    One-Electron Energy =                -492.6735477804817833
    Two-Electron Energy =                 183.3380345919322849
    DFT Exchange-Correlation Energy =       0.0000000000000000
    Empirical Dispersion Energy =           0.0000000000000000
    PCM Polarization Energy =               0.0000000000000000
    EFP Energy =                            0.0000000000000000
    Total Energy =                       -191.9502023619780857
    Molecular point group: c1
  Basis Set: 6-31G*
  Basis Set:

  -Total Gradient:
     Atom            X                  Y                   Z
    ------   -----------------  -----------------  -----------------
       1       -0.000002759655    -0.000013172076     0.000037892074
       2        0.000038407692     0.000427752935    -0.000331224391
       3        0.000019383171     0.000224239479     0.000265584244
       4        0.000031798234    -0.000273834694     0.000229757076
       5        0.000027624335     0.000113630229     0.000079379351
       6       -0.000063282630    -0.000253241359    -0.000220992887
       7        0.000048475984    -0.000142711385    -0.000055410455
       8       -0.000005004442     0.000019228829     0.000001535114
       9       -0.000061613900    -0.000036829691    -0.000012903270
      10       -0.000033028794    -0.000065062268     0.000006383145

  **** Optimization is complete! (in 5 steps) ****
    Final optimized geometry and variables:
    Molecular point group: c1

    Geometry (in Angstrom), charge = 0, multiplicity = 1:

    H            1.087553147243    -0.507031800126    -1.092512293352
    C            0.759388799750     0.073401384937    -0.221788733946
    C           -0.706011616106     0.425088523428    -0.202540242174
    O            1.536714601212     0.369507931849     0.626628811297
    C           -1.584234975884    -0.831694052788    -0.226425135410
    H           -0.917969639239     1.029013963533    -1.082814318968
    H           -0.900834871134     1.025450830552     0.677237141545
    H           -1.378188304174    -1.441837483041    -1.100789641968
    H           -2.633454399249    -0.561023737841    -0.253109044825
    H           -1.418220349683    -1.441526132481     0.655351910153

  Mulliken Charges: (a.u.)
   Center  Symbol    Alpha    Beta     Spin     Total
       1     H     0.43228  0.43228  0.00000  0.13545
       2     C     2.83108  2.83108  0.00000  0.33784
       3     C     3.20624  3.20624  0.00000 -0.41248
       4     O     4.23589  4.23589  0.00000 -0.47178
       5     C     3.25182  3.25182  0.00000 -0.50364
       6     H     0.40938  0.40938  0.00000  0.18124
       7     H     0.39842  0.39842  0.00000  0.20316
       8     H     0.41644  0.41644  0.00000  0.16712
       9     H     0.40888  0.40888  0.00000  0.18224
      10     H     0.40957  0.40957  0.00000  0.18086

   Total alpha = 16.00000, Total beta = 16.00000, Total charge =  0.00000
