  ==> Input File <==

--------------------------------------------------------------------------
set {
	reference rhf
	basis 6-31G*
}

set_num_threads( 4 )
memory 2 gb

molecule MOL {
0 1

H	 1.504404	 1.273363	 -0.282898
C	 0.850167	 0.441173	 0.000644
C	 -0.623425	 0.760064	 0.000248
O	 1.314785	 -0.616970	 0.276701
C	 -1.518387	 -0.473136	 -0.000101
H	 -0.818289	 1.390622	 -0.866171
H	 -0.818694	 1.390413	 0.866696
H	 -1.333417	 -1.085530	 -0.874338
H	 -2.563510	 -0.183466	 -0.000351
H	 -1.333864	 -1.085676	 0.874123

	symmetry c1
}
set optking {
	frozen_dihedral = ("
		4 2 3 6
	")
}

ee = optimize('scf')
oeprop('DIPOLE', 'QUADRUPOLE', 'MULLIKEN_CHARGES')
f=open( 'psi4out.xyz', 'w' )
f.write( "10  " )
f.write( str(ee) + "\n" )
f.write( MOL.save_string_xyz() )
f.close()
--------------------------------------------------------------------------

    Molecular point group: c1
  Charge       = 0
  Multiplicity = 1
  Basis Set: 6-31G*
  Basis Set:
  @DF-RHF Final Energy:  -191.95143978386460
    Total Energy =                       -191.9514397838646573
    Molecular point group: c1
  Basis Set: 6-31G*
  Basis Set:
  Basis Set: 6-31G*
  Basis Set:
  @DF-RHF Final Energy:  -191.95002679506058
    Total Energy =                       -191.9500267950605235
  Basis Set: 6-31G*
  Basis Set:
  Basis Set: 6-31G*
  Basis Set:
  @DF-RHF Final Energy:  -191.95156026839271
    Total Energy =                       -191.9515602683927114
  Basis Set: 6-31G*
  Basis Set:
  Charge       = 0
  Multiplicity = 1
  Basis Set: 6-31G*
  Basis Set:

    Orbital Energies (a.u.)
    -----------------------

    Doubly Occupied:

       1A    -20.564674     2A    -11.329159     3A    -11.240551
       4A    -11.219820     5A     -1.404994     6A     -1.060176
       7A     -0.910156     8A     -0.774355     9A     -0.683279
      10A     -0.635515    11A     -0.627857    12A     -0.543641
      13A     -0.532524    14A     -0.518646    15A     -0.492042
      16A     -0.414536

  @DF-RHF Final Energy:  -191.95158658588133

   => Energetics <=

    Nuclear Repulsion Energy =            119.1266808586236721
    One-Electron Energy =                -496.2526845801182844
    Two-Electron Energy =                 185.1744171356132824
    DFT Exchange-Correlation Energy =       0.0000000000000000
    Empirical Dispersion Energy =           0.0000000000000000
    PCM Polarization Energy =               0.0000000000000000
    EFP Energy =                            0.0000000000000000
    Total Energy =                       -191.9515865858813299
    Molecular point group: c1
  Basis Set: 6-31G*
  Basis Set:

  -Total Gradient:
     Atom            X                  Y                   Z
    ------   -----------------  -----------------  -----------------
       1       -0.000012594523     0.000031653790     0.000011356724
       2       -0.000012225562    -0.000328431187    -0.002135698929
       3       -0.000287849655    -0.001375334460    -0.000313201843
       4        0.000011592480     0.000416597387     0.001609420016
       5        0.000008263911    -0.000017462803    -0.000071120818
       6        0.000243547898     0.001222206213     0.000914751621
       7        0.000035739737     0.000027933058     0.000003071814
       8       -0.000016935305    -0.000045920635    -0.000021259572
       9        0.000001756485     0.000008154744     0.000007027165
      10        0.000028704529     0.000060603891    -0.000004346179

  **** Optimization is complete! (in 4 steps) ****
    Final optimized geometry and variables:
    Molecular point group: c1

    Geometry (in Angstrom), charge = 0, multiplicity = 1:

    H            1.511055091692     1.275049255044    -0.301875897684
    C            0.850117581032     0.432405946971    -0.069770009738
    C           -0.624368066968     0.749808791465    -0.084974198908
    O            1.309066052381    -0.629129673461     0.203126865592
    C           -1.520172905116    -0.482898064556    -0.062990562948
    H           -0.827962302882     1.387484798004    -0.942235693611
    H           -0.810055937097     1.378076657102     0.786729612047
    H           -1.351119020650    -1.101661995828    -0.936957698357
    H           -2.565058046677    -0.192776007000    -0.048951214736
    H           -1.320210440079    -1.088072072880     0.812050753715

  Mulliken Charges: (a.u.)
   Center  Symbol    Alpha    Beta     Spin     Total
       1     H     0.42783  0.42783  0.00000  0.14433
       2     C     2.83629  2.83629  0.00000  0.32742
       3     C     3.21074  3.21074  0.00000 -0.42147
       4     O     4.23672  4.23672  0.00000 -0.47344
       5     C     3.23755  3.23755  0.00000 -0.47510
       6     H     0.40996  0.40996  0.00000  0.18008
       7     H     0.40474  0.40474  0.00000  0.19051
       8     H     0.41248  0.41248  0.00000  0.17504
       9     H     0.41749  0.41749  0.00000  0.16502
      10     H     0.40620  0.40620  0.00000  0.18761

   Total alpha = 16.00000, Total beta = 16.00000, Total charge =  0.00000
