                              Psi4 1.0.54 Driver

  ==> Input File <==

--------------------------------------------------------------------------
set {
	reference rhf
	basis cc-pvtz
}

set_num_threads( 4 )
memory 2 gb

molecule MOL {
0 1

H	 1.132160	 -4.101639	 3.807950
C	 1.278559	 -3.375889	 3.032083
C	 0.434970	 -3.341983	 1.930702
C	 2.304878	 -2.463644	 3.111801
H	 -0.371535	 -4.046086	 1.851193
C	 0.618923	 -2.413828	 0.934353
H	 2.967824	 -2.474327	 3.956240
C	 2.504922	 -1.519430	 2.114378
H	 -0.027148	 -2.379150	 0.079333
C	 1.658726	 -1.494080	 1.021040
H	 3.312699	 -0.823333	 2.206062
O	 1.760432	 -0.625184	 0.000000
C	 2.773565	 0.334879	 0.000000
H	 2.728295	 0.960928	 -0.884150
H	 3.706387	 -0.206610	 0.000000
H	 2.728295	 0.960928	 0.884150

	symmetry c1
}
set optking {
	frozen_dihedral = ("
		10 12 13 14
	")
}

ee,wfn = optimize('scf', return_wfn=True)
oeprop( wfn, 'DIPOLE', 'QUADRUPOLE', 'MULLIKEN_CHARGES')
f=open( 'psi4out.xyz', 'w' )
f.write( "16  " )
f.write( str(ee) + "\n" )
f.write( MOL.save_string_xyz() )
f.close()
--------------------------------------------------------------------------

    Molecular point group: c1
  Charge       = 0
  Multiplicity = 1
  Basis Set: CC-PVTZ
  Basis Set:
  @DF-RHF Final Energy:  -344.70177835048003
    Total Energy =                       -344.7017783504800263
    Molecular point group: c1
  Basis Set: CC-PVTZ
  Basis Set:
  Basis Set: CC-PVTZ
  Basis Set:
  @DF-RHF Final Energy:  -344.70328645773185
    Total Energy =                       -344.7032864577316786
  Basis Set: CC-PVTZ
  Basis Set:
  Basis Set: CC-PVTZ
  Basis Set:
  @DF-RHF Final Energy:  -344.70375514349621
    Total Energy =                       -344.7037551434962097
  Basis Set: CC-PVTZ
  Basis Set:
  Basis Set: CC-PVTZ
  Basis Set:
  @DF-RHF Final Energy:  -344.70375715323524
    Total Energy =                       -344.7037571532354150
  Basis Set: CC-PVTZ
  Basis Set:
  Charge       = 0
  Multiplicity = 1
  Basis Set: CC-PVTZ
  Basis Set:

    Orbital Energies (a.u.)
    -----------------------

    Doubly Occupied:

       1A    -20.580690     2A    -11.293790     3A    -11.278562
       4A    -11.231227     5A    -11.229988     6A    -11.221802
       7A    -11.217966     8A    -11.216842     9A     -1.420219
      10A     -1.150947    11A     -1.025834    12A     -1.016634
      13A     -0.944430    14A     -0.834518    15A     -0.808289
      16A     -0.726430    17A     -0.667841    18A     -0.666358
      19A     -0.661285    20A     -0.619479    21A     -0.590116
      22A     -0.579360    23A     -0.528316    24A     -0.523798
      25A     -0.512467    26A     -0.478722    27A     -0.467948
      28A     -0.339782    29A     -0.309952

  @DF-RHF Final Energy:  -344.70375780312054

   => Energetics <=

    Nuclear Repulsion Energy =            348.9196311996433906
    One-Electron Energy =               -1158.9595928356332024
    Two-Electron Energy =                 465.3362038328693302
    DFT Exchange-Correlation Energy =       0.0000000000000000
    Empirical Dispersion Energy =           0.0000000000000000
    PCM Polarization Energy =               0.0000000000000000
    EFP Energy =                            0.0000000000000000
    Total Energy =                       -344.7037578031204816
    Molecular point group: c1
  Basis Set: CC-PVTZ
  Basis Set:

  -Total Gradient:
     Atom            X                  Y                   Z
    ------   -----------------  -----------------  -----------------
       1        0.000002178525     0.000001716603     0.000001087419
       2        0.000028303724    -0.000001658294     0.000001269878
       3       -0.000015957858     0.000025268331    -0.000005990335
       4       -0.000017698462    -0.000005094919     0.000020952738
       5        0.000003353315     0.000000922459    -0.000005042093
       6       -0.000018762549     0.000021666837     0.000007597478
       7        0.000001593306    -0.000000436834     0.000001266963
       8       -0.000016337115     0.000021470483     0.000000275580
       9        0.000000157229    -0.000001366106    -0.000005804300
      10        0.000080259448    -0.000079948387    -0.000024213532
      11       -0.000003608647    -0.000007097481     0.000003975365
      12        0.000047646722     0.000114569474    -0.000006997403
      13       -0.000018235582    -0.000042549567     0.000008763087
      14       -0.000034071258    -0.000016923223     0.000017836015
      15       -0.000025268620    -0.000012507546     0.000009502255
      16       -0.000013552179    -0.000018031831    -0.000024479112

  **** Optimization is complete! (in 5 steps) ****
    Final optimized geometry and variables:
    Molecular point group: c1

    Geometry (in Angstrom), charge = 0, multiplicity = 1:

    H           -0.577753427916    -2.312957813820     2.344340466875
    C           -0.426894013513    -1.586534908425     1.569943298996
    C           -1.270487961079    -1.545161345326     0.468733014565
    C            0.604888679110    -0.680822365455     1.651392191351
    H           -2.081333828423    -2.244121828965     0.387970638266
    C           -1.080944600329    -0.616264704732    -0.525731705970
    H            1.267853804459    -0.697188995989     2.495731852841
    C            0.810645871412     0.264171280535     0.655763375009
    H           -1.726888936295    -0.575767736464    -1.380606722309
    C           -0.035341810448     0.296815753624    -0.437434890703
    H            1.622663813446     0.955089882686     0.748934306485
    O            0.070790727178     1.167352265932    -1.456760504984
    C            1.089282951485     2.121631554726    -1.455613238412
    H            0.970248037215     2.695069919586    -2.361340569417
    H            2.069191215480     1.657482917366    -1.457112894142
    H            1.009953667155     2.786950422365    -0.603149281883

  Mulliken Charges: (a.u.)
   Center  Symbol    Alpha    Beta     Spin     Total
       1     H     0.42442  0.42442  0.00000  0.15116
       2     C     3.10100  3.10100  0.00000 -0.20200
       3     C     3.05793  3.05793  0.00000 -0.11586
       4     C     3.06154  3.06154  0.00000 -0.12307
       5     H     0.42300  0.42300  0.00000  0.15400
       6     C     3.11173  3.11173  0.00000 -0.22346
       7     H     0.42366  0.42366  0.00000  0.15269
       8     C     3.14419  3.14419  0.00000 -0.28837
       9     H     0.42101  0.42101  0.00000  0.15799
      10     C     2.84992  2.84992  0.00000  0.30015
      11     H     0.42253  0.42253  0.00000  0.15494
      12     O     4.15063  4.15063  0.00000 -0.30126
      13     C     3.04491  3.04491  0.00000 -0.08982
      14     H     0.43873  0.43873  0.00000  0.12253
      15     H     0.46240  0.46240  0.00000  0.07520
      16     H     0.46240  0.46240  0.00000  0.07519

   Total alpha = 29.00000, Total beta = 29.00000, Total charge = -0.00000

*** Psi4 exiting successfully. Buy a developer a beer!
