  ==> Input File <==

--------------------------------------------------------------------------
set {
	reference rhf
	basis 6-31G*
}

set_num_threads( 4 )
memory 2 gb

molecule MOL {
0 1

O	 -3.540011	 -0.150970	 -0.759555
C	 -2.668563	 0.129746	 -0.000350
C	 -2.792061	 1.187867	 1.065669
O	 -1.481751	 -0.454642	 0.000584
H	 -3.620698	 0.932301	 1.715215
H	 -1.886194	 1.282837	 1.646034
H	 -3.026757	 2.133473	 0.591721
C	 -0.334255	 0.388708	 0.000906
C	 0.891947	 -0.504646	 0.000751
H	 -0.365390	 1.025305	 -0.873475
H	 -0.365484	 1.024911	 0.875569
C	 2.191998	 0.301789	 0.000897
H	 0.855148	 -1.151283	 -0.871571
H	 0.855132	 -1.151660	 0.872805
C	 3.441114	 -0.581407	 0.000108
H	 2.215074	 0.954890	 -0.869742
H	 2.215465	 0.953923	 0.872248
C	 4.739576	 0.224112	 -0.001102
H	 3.419457	 -1.233487	 -0.870178
H	 3.420834	 -1.233096	 0.870717
H	 4.804918	 0.861552	 -0.878265
H	 5.606527	 -0.429058	 -0.001824
H	 4.806469	 0.861674	 0.875853

	symmetry c1
}
set optking {
	frozen_dihedral = ("
		1 2 4 8
	")
}

ee = optimize('scf')
oeprop('DIPOLE', 'QUADRUPOLE', 'MULLIKEN_CHARGES')
f=open( 'psi4out.xyz', 'w' )
f.write( "23  " )
f.write( str(ee) + "\n" )
f.write( MOL.save_string_xyz() )
f.close()
--------------------------------------------------------------------------

    Molecular point group: c1
  Charge       = 0
  Multiplicity = 1
  Basis Set: 6-31G*
  Basis Set:
  @DF-RHF Final Energy:  -422.95383444047013
    Total Energy =                       -422.9538344404700183
    Molecular point group: c1
  Basis Set: 6-31G*
  Basis Set:
  Basis Set: 6-31G*
  Basis Set:
  @DF-RHF Final Energy:  -422.95367641604759
    Total Energy =                       -422.9536764160480971
  Basis Set: 6-31G*
  Basis Set:
  Basis Set: 6-31G*
  Basis Set:
  @DF-RHF Final Energy:  -422.95912683293585
    Total Energy =                       -422.9591268329361355
  Basis Set: 6-31G*
  Basis Set:
  Basis Set: 6-31G*
  Basis Set:
  @DF-RHF Final Energy:  -422.96010649513300
    Total Energy =                       -422.9601064951328908
  Basis Set: 6-31G*
  Basis Set:
  @DF-RHF Final Energy:  -422.96062482762568
    Total Energy =                       -422.9606248276259066
  @DF-RHF Final Energy:  -422.96108977431771
    Total Energy =                       -422.9610897743167470
  @DF-RHF Final Energy:  -422.96166505900635
    Total Energy =                       -422.9616650590068048
  Basis Set: 6-31G*
  Basis Set:
  @DF-RHF Final Energy:  -422.96192446296567
    Total Energy =                       -422.9619244629656123
  Basis Set: 6-31G*
  Basis Set:
  Basis Set: 6-31G*
  Basis Set:
  @DF-RHF Final Energy:  -422.96199392505576
    Total Energy =                       -422.9619939250560492
  Basis Set: 6-31G*
  Basis Set:
  Basis Set: 6-31G*
  Basis Set:
  @DF-RHF Final Energy:  -422.96200835166292
    Total Energy =                       -422.9620083516624618
  Basis Set: 6-31G*
  Basis Set:
  Charge       = 0
  Multiplicity = 1
  Basis Set: 6-31G*
  Basis Set:

    Orbital Energies (a.u.)
    -----------------------

    Doubly Occupied:

       1A    -20.589842     2A    -20.547926     3A    -11.375861
       4A    -11.295985     5A    -11.239612     6A    -11.228792
       7A    -11.228069     8A    -11.224598     9A    -11.215702
      10A     -1.458597    11A     -1.366154    12A     -1.096750
      13A     -1.035999    14A     -1.012696    15A     -0.940232
      16A     -0.846157    17A     -0.806879    18A     -0.777250
      19A     -0.698618    20A     -0.690624    21A     -0.658349
      22A     -0.649531    23A     -0.617273    24A     -0.593690
      25A     -0.580365    26A     -0.576806    27A     -0.568192
      28A     -0.544240    29A     -0.522856    30A     -0.502466
      31A     -0.490877    32A     -0.481688    33A     -0.475013
      34A     -0.474010    35A     -0.450543    36A     -0.432052

  @DF-RHF Final Energy:  -422.96200886265649

   => Energetics <=

    Nuclear Repulsion Energy =            449.3571596655889380
    One-Electron Energy =               -1466.0497470037059884
    Two-Electron Energy =                 593.7305784754598790
    DFT Exchange-Correlation Energy =       0.0000000000000000
    Empirical Dispersion Energy =           0.0000000000000000
    PCM Polarization Energy =               0.0000000000000000
    EFP Energy =                            0.0000000000000000
    Total Energy =                       -422.9620088626571714
    Molecular point group: c1
  Basis Set: 6-31G*
  Basis Set:

  -Total Gradient:
     Atom            X                  Y                   Z
    ------   -----------------  -----------------  -----------------
       1        0.001255335545     0.002384551653    -0.002601189440
       2       -0.001832062994    -0.003527554383     0.002124123974
       3        0.000027540921    -0.000006953713    -0.000027598945
       4        0.000476407782     0.001516567471     0.003621215738
       5       -0.000020914262     0.000004138198     0.000024746072
       6       -0.000022308295    -0.000003937584     0.000004740522
       7       -0.000015817239    -0.000019594402     0.000004930811
       8        0.000096222254    -0.000361211176    -0.003163646629
       9        0.000020986964    -0.000002648914    -0.000017562609
      10        0.000029657945     0.000011754493    -0.000002405790
      11       -0.000017830830     0.000002538702     0.000012884724
      12        0.000006374230    -0.000004756738     0.000012457257
      13       -0.000003707605    -0.000000960371     0.000003114632
      14       -0.000000852940     0.000003824828    -0.000000361583
      15       -0.000001039037     0.000002336925     0.000004225961
      16        0.000000101470     0.000001988494     0.000001659513
      17        0.000003107724    -0.000000953154     0.000004217844
      18       -0.000000520086    -0.000000088006    -0.000007104323
      19       -0.000001782753    -0.000002501615     0.000002085640
      20        0.000000761732     0.000003124513     0.000001353260
      21        0.000001058038     0.000002153662    -0.000000159206
      22        0.000000135298    -0.000000000501    -0.000002031813
      23       -0.000000853863    -0.000001818381     0.000000304391

  **** Optimization is complete! (in 11 steps) ****
    Final optimized geometry and variables:
    Molecular point group: c1

    Geometry (in Angstrom), charge = 0, multiplicity = 1:

    O           -3.497033748987    -0.422757385080    -0.747912602972
    C           -2.715564696008     0.027233264105     0.016257335869
    C           -3.028886346373     1.184956256729     0.934919349999
    O           -1.483915708043    -0.497887793032     0.120884162545
    H           -4.095813023008     1.351064088219     0.935105281778
    H           -2.682718638818     0.980650482153     1.941339984628
    H           -2.537070927082     2.088179245703     0.588584018525
    C           -0.346445167610     0.346642886085     0.068726677642
    C            0.882585806162    -0.540597599390    -0.002407927689
    H           -0.409705524138     0.983826864134    -0.807861479304
    H           -0.308128470856     0.980842161715     0.948604514646
    C            2.180875530529     0.265969331478    -0.062291299657
    H            0.794606660594    -1.179288073464    -0.875575408764
    H            0.885735107266    -1.193045851857     0.865895832653
    C            3.426792193858    -0.618841378158    -0.136004679111
    H            2.160610863114     0.926305587643    -0.927778380391
    H            2.252009156676     0.910375427539     0.812622516020
    C            4.724610961067     0.185212147094    -0.198227902500
    H            3.357924935485    -1.262987953071    -1.009431584973
    H            3.450534446695    -1.277952407224     0.728756380792
    H            4.745347209361     0.829947244860    -1.072261464268
    H            5.588897507476    -0.469237806605    -0.249969203566
    H            4.838840656268     0.814978351122     0.679563447612

  Mulliken Charges: (a.u.)
   Center  Symbol    Alpha    Beta     Spin     Total
       1     O     4.25323  4.25323  0.00000 -0.50646
       2     C     2.62207  2.62207  0.00000  0.75586
       3     C     3.30196  3.30196  0.00000 -0.60393
       4     O     4.31305  4.31305  0.00000 -0.62611
       5     H     0.39088  0.39088  0.00000  0.21824
       6     H     0.40212  0.40212  0.00000  0.19577
       7     H     0.40323  0.40323  0.00000  0.19353
       8     C     2.99574  2.99574  0.00000  0.00851
       9     C     3.16233  3.16233  0.00000 -0.32465
      10     H     0.41797  0.41797  0.00000  0.16406
      11     H     0.42179  0.42179  0.00000  0.15643
      12     C     3.16122  3.16122  0.00000 -0.32244
      13     H     0.40766  0.40766  0.00000  0.18467
      14     H     0.41143  0.41143  0.00000  0.17714
      15     C     3.15178  3.15178  0.00000 -0.30357
      16     H     0.42142  0.42142  0.00000  0.15715
      17     H     0.42265  0.42265  0.00000  0.15470
      18     C     3.24004  3.24004  0.00000 -0.48009
      19     H     0.41959  0.41959  0.00000  0.16083
      20     H     0.42052  0.42052  0.00000  0.15895
      21     H     0.42087  0.42087  0.00000  0.15826
      22     H     0.41703  0.41703  0.00000  0.16595
      23     H     0.42140  0.42140  0.00000  0.15721

   Total alpha = 36.00000, Total beta = 36.00000, Total charge = -0.00000
