                              Psi4 1.0.54 Driver

  ==> Input File <==

--------------------------------------------------------------------------
set {
	reference rhf
	basis cc-pvtz
}

set_num_threads( 4 )
memory 2 gb

molecule MOL {
0 1

H	 0.677187	 3.715817	 -0.542045
O	 1.425659	 3.161570	 -0.410432
C	 1.062315	 1.881916	 -0.212827
C	 2.072974	 0.954320	 -0.004853
C	 -0.255705	 1.477959	 -0.211588
H	 3.091116	 1.289759	 -0.009760
C	 1.761017	 -0.369650	 0.202846
H	 -1.055143	 2.171724	 -0.369347
C	 -0.532034	 0.141680	 0.000000
H	 2.548688	 -1.079415	 0.362709
C	 0.444567	 -0.799615	 0.208556
N	 -1.937041	 -0.281114	 0.000000
H	 0.187441	 -1.823846	 0.368431
O	 -2.159542	 -1.446261	 0.000000
O	 -2.764978	 0.565773	 0.000000

	symmetry c1
}
set optking {
	frozen_dihedral = ("
		11 9 12 14
	")
}

ee,wfn = optimize('scf', return_wfn=True)
oeprop( wfn, 'DIPOLE', 'QUADRUPOLE', 'MULLIKEN_CHARGES')
f=open( 'psi4out.xyz', 'w' )
f.write( "15  " )
f.write( str(ee) + "\n" )
f.write( MOL.save_string_xyz() )
f.close()
--------------------------------------------------------------------------

    Molecular point group: c1
  Charge       = 0
  Multiplicity = 1
  Basis Set: CC-PVTZ
  Basis Set:
  @DF-RHF Final Energy:  -509.21894723999799
    Total Energy =                       -509.2189472399979877
    Molecular point group: c1
  Basis Set: CC-PVTZ
  Basis Set:
  Basis Set: CC-PVTZ
  Basis Set:
  @DF-RHF Final Energy:  -509.21722923623048
    Total Energy =                       -509.2172292362298549
  Basis Set: CC-PVTZ
  Basis Set:
  Basis Set: CC-PVTZ
  Basis Set:
  @DF-RHF Final Energy:  -509.21886239989044
    Total Energy =                       -509.2188623998899857
  Basis Set: CC-PVTZ
  Basis Set:
  Basis Set: CC-PVTZ
  Basis Set:
  @DF-RHF Final Energy:  -509.21896874542472
    Total Energy =                       -509.2189687454249452
  Basis Set: CC-PVTZ
  Basis Set:
  Charge       = 0
  Multiplicity = 1
  Basis Set: CC-PVTZ
  Basis Set:

    Orbital Energies (a.u.)
    -----------------------

    Doubly Occupied:

       1A    -20.608498     2A    -20.595161     3A    -20.594664
       4A    -15.850580     5A    -11.327803     6A    -11.309140
       7A    -11.263243     8A    -11.262893     9A    -11.258571
      10A    -11.256462    11A     -1.644232    12A     -1.441124
      13A     -1.426657    14A     -1.202602    15A     -1.095601
      16A     -1.048013    17A     -0.966895    18A     -0.881586
      19A     -0.832013    20A     -0.795341    21A     -0.756735
      22A     -0.743134    23A     -0.729134    24A     -0.709642
      25A     -0.677067    26A     -0.636083    27A     -0.621734
      28A     -0.598494    29A     -0.560777    30A     -0.546777
      31A     -0.520742    32A     -0.494883    33A     -0.493573
      34A     -0.460109    35A     -0.380116    36A     -0.346180

  @DF-RHF Final Energy:  -509.21896948203073

   => Energetics <=

    Nuclear Repulsion Energy =            504.7098554046507388
    One-Electron Energy =               -1695.9851344446751682
    Two-Electron Energy =                 682.0563095579936999
    DFT Exchange-Correlation Energy =       0.0000000000000000
    Empirical Dispersion Energy =           0.0000000000000000
    PCM Polarization Energy =               0.0000000000000000
    EFP Energy =                            0.0000000000000000
    Total Energy =                       -509.2189694820308432
    Molecular point group: c1
  Basis Set: CC-PVTZ
  Basis Set:

  -Total Gradient:
     Atom            X                  Y                   Z
    ------   -----------------  -----------------  -----------------
       1       -0.000000749467    -0.000010545566    -0.000013843687
       2        0.000019161072     0.000000515231     0.000003416441
       3       -0.000014388368     0.000010366670     0.000031792923
       4        0.000003676827    -0.000000398759     0.000068805430
       5        0.000053007026     0.000033392932    -0.000109468422
       6        0.000003495131     0.000000069540     0.000004140524
       7        0.000046377747    -0.000014743193    -0.000153071716
       8        0.000030632932    -0.000015196072     0.000005822406
       9        0.000044417356    -0.000245291725    -0.001213144398
      10        0.000009871508     0.000007108707     0.000014194047
      11       -0.000018574193     0.000140708096     0.000767772291
      12        0.000200734735     0.000270211737     0.001475024566
      13       -0.000000991211     0.000015494838    -0.000009535756
      14       -0.000100483121    -0.000155961775    -0.000861250451
      15       -0.000276187965    -0.000035730658    -0.000010654198

  **** Optimization is complete! (in 5 steps) ****
    Final optimized geometry and variables:
    Molecular point group: c1

    Geometry (in Angstrom), charge = 0, multiplicity = 1:

    H            0.842195431138     3.167473764254    -0.487589557196
    O            1.590258677705     2.613865098881    -0.351242707180
    C            1.226820449022     1.334317773984    -0.153439261819
    C            2.236719805228     0.408757148754     0.066906345642
    C           -0.090772021036     0.928642735640    -0.162209875568
    H            3.254254344941     0.745981692976     0.072596842318
    C            1.924886157701    -0.915405594345     0.273621537749
    H           -0.890245658845     1.621983012304    -0.322009465035
    C           -0.366396073452    -0.408582038035     0.043233105062
    H            2.711961012427    -1.622935185668     0.445881602220
    C            0.609309631611    -1.348051303789     0.263335432694
    N           -1.770572772024    -0.832761129848     0.036664500311
    H            0.352107267211    -2.373043497468     0.418642734032
    O           -1.991667218298    -1.996472270859     0.041791604454
    O           -2.600338730515     0.014905949122     0.020652866068

  Mulliken Charges: (a.u.)
   Center  Symbol    Alpha    Beta     Spin     Total
       1     H     0.38410  0.38410  0.00000  0.23179
       2     O     4.16864  4.16864  0.00000 -0.33728
       3     C     2.84378  2.84378  0.00000  0.31244
       4     C     3.09752  3.09752  0.00000 -0.19504
       5     C     3.13415  3.13415  0.00000 -0.26831
       6     H     0.41315  0.41315  0.00000  0.17369
       7     C     3.05666  3.05666  0.00000 -0.11333
       8     H     0.40788  0.40788  0.00000  0.18424
       9     C     2.97904  2.97904  0.00000  0.04192
      10     H     0.41597  0.41597  0.00000  0.16807
      11     C     3.09609  3.09609  0.00000 -0.19218
      12     N     3.25101  3.25101  0.00000  0.49798
      13     H     0.40004  0.40004  0.00000  0.19991
      14     O     4.17407  4.17407  0.00000 -0.34815
      15     O     4.17788  4.17788  0.00000 -0.35576

   Total alpha = 36.00000, Total beta = 36.00000, Total charge = -0.00000

*** Psi4 exiting successfully. Buy a developer a beer!
