  ==> Input File <==

--------------------------------------------------------------------------
set {
	reference rhf
	basis 6-31G*
}

set_num_threads( 4 )
memory 2 gb

molecule MOL {
0 1

H	 2.699704	 -0.077116	 -0.856286
O	 1.853740	 -0.512112	 -0.900002
C	 1.050492	 0.053836	 0.000068
C	 -0.318135	 -0.576402	 0.000164
O	 1.411095	 0.945138	 0.697593
C	 -1.454360	 0.441875	 -0.000474
H	 -0.374042	 -1.230163	 -0.866135
H	 -0.374274	 -1.229227	 0.867154
C	 -2.826123	 -0.230780	 0.000056
H	 -1.357605	 1.085198	 -0.868380
H	 -1.357504	 1.086451	 0.866496
H	 -2.959731	 -0.858053	 -0.876869
H	 -3.619374	 0.509403	 -0.000080
H	 -2.959371	 -0.857318	 0.877556

	symmetry c1
}
set optking {
	frozen_dihedral = ("
		2 3 4 7
	")
}

ee = optimize('scf')
oeprop('DIPOLE', 'QUADRUPOLE', 'MULLIKEN_CHARGES')
f=open( 'psi4out.xyz', 'w' )
f.write( "14  " )
f.write( str(ee) + "\n" )
f.write( MOL.save_string_xyz() )
f.close()
--------------------------------------------------------------------------

    Molecular point group: c1
  Charge       = 0
  Multiplicity = 1
  Basis Set: 6-31G*
  Basis Set:
  @DF-RHF Final Energy:  -305.87907827159893
    Total Energy =                       -305.8790782715988144
    Molecular point group: c1
  Basis Set: 6-31G*
  Basis Set:
  Basis Set: 6-31G*
  Basis Set:
  @DF-RHF Final Energy:  -305.87950824924343
    Total Energy =                       -305.8795082492432584
  Basis Set: 6-31G*
  Basis Set:
  Basis Set: 6-31G*
  Basis Set:
  @DF-RHF Final Energy:  -305.87947612439007
    Total Energy =                       -305.8794761243900666
  Basis Set: 6-31G*
  Basis Set:
  Basis Set: 6-31G*
  Basis Set:
  @DF-RHF Final Energy:  -305.87952008431921
    Total Energy =                       -305.8795200843189832
  Basis Set: 6-31G*
  Basis Set:
  Basis Set: 6-31G*
  Basis Set:
  @DF-RHF Final Energy:  -305.87953938028534
    Total Energy =                       -305.8795393802854505
  Basis Set: 6-31G*
  Basis Set:
  Charge       = 0
  Multiplicity = 1
  Basis Set: 6-31G*
  Basis Set:

    Orbital Energies (a.u.)
    -----------------------

    Doubly Occupied:

       1A    -20.615212     2A    -20.549579     3A    -11.381552
       4A    -11.240304     5A    -11.230130     6A    -11.218669
       7A     -1.475679     8A     -1.365382     9A     -1.083895
      10A     -0.979238    11A     -0.856273    12A     -0.798363
      13A     -0.701985    14A     -0.688204    15A     -0.655504
      16A     -0.623847    17A     -0.593651    18A     -0.571794
      19A     -0.548754    20A     -0.509687    21A     -0.493682
      22A     -0.486197    23A     -0.472809    24A     -0.442131

  @DF-RHF Final Energy:  -305.87953948555196

   => Energetics <=

    Nuclear Repulsion Energy =            239.9424816505679416
    One-Electron Energy =                -892.4790002663427231
    Two-Electron Energy =                 346.6569791302227372
    DFT Exchange-Correlation Energy =       0.0000000000000000
    Empirical Dispersion Energy =           0.0000000000000000
    PCM Polarization Energy =               0.0000000000000000
    EFP Energy =                            0.0000000000000000
    Total Energy =                       -305.8795394855520158
    Molecular point group: c1
  Basis Set: 6-31G*
  Basis Set:

  -Total Gradient:
     Atom            X                  Y                   Z
    ------   -----------------  -----------------  -----------------
       1       -0.000016280695     0.000012551585    -0.000000708769
       2       -0.000245498957     0.000524221083    -0.000610242304
       3        0.000419113587    -0.000908589434     0.000982721990
       4       -0.000532565544     0.001177985389    -0.000944364961
       5       -0.000005357753    -0.000007596710    -0.000004266328
       6        0.000016530796    -0.000005748770     0.000015244442
       7        0.000355595852    -0.000801757876     0.000555726750
       8        0.000003786516     0.000006669607    -0.000004541690
       9        0.000003064789    -0.000005160385     0.000000665843
      10        0.000000268640    -0.000009010577     0.000005949474
      11       -0.000005839922     0.000011426016     0.000003887724
      12        0.000005583704    -0.000000689353     0.000002227840
      13        0.000003024965     0.000003897041    -0.000001873484
      14       -0.000001425981     0.000001802384    -0.000000426530

  **** Optimization is complete! (in 6 steps) ****
    Final optimized geometry and variables:
    Molecular point group: c1

    Geometry (in Angstrom), charge = 0, multiplicity = 1:

    H            2.739227222419    -0.060529807988    -0.747394740702
    O            1.900623069699    -0.502647330037    -0.840884371858
    C            1.055105278202     0.028316715304     0.038581481698
    C           -0.308708037110    -0.615086880800     0.004107184866
    O            1.373165715065     0.912730944409     0.766586112942
    C           -1.437973296047     0.418669289169     0.025523343283
    H           -0.378013394502    -1.267961718990    -0.856887245720
    H           -0.373666367572    -1.245341368521     0.887977732829
    C           -2.816187292614    -0.238076908201     0.068329603485
    H           -1.363057398067     1.050877927313    -0.855197737117
    H           -1.304516747684     1.065386736388     0.884562414846
    H           -2.978411587399    -0.875058866941    -0.796376695691
    H           -3.600743071571     0.511286067597     0.078846673729
    H           -2.931885157355    -0.850694223779     0.957859285576

  Mulliken Charges: (a.u.)
   Center  Symbol    Alpha    Beta     Spin     Total
       1     H     0.26826  0.26826  0.00000  0.46349
       2     O     4.34874  4.34874  0.00000 -0.69749
       3     C     2.62364  2.62364  0.00000  0.75272
       4     C     3.20861  3.20861  0.00000 -0.41721
       5     O     4.28017  4.28017  0.00000 -0.56035
       6     C     3.15943  3.15943  0.00000 -0.31887
       7     H     0.39887  0.39887  0.00000  0.20227
       8     H     0.39899  0.39899  0.00000  0.20202
       9     C     3.24208  3.24208  0.00000 -0.48416
      10     H     0.41545  0.41545  0.00000  0.16910
      11     H     0.40193  0.40193  0.00000  0.19614
      12     H     0.41999  0.41999  0.00000  0.16002
      13     H     0.41442  0.41442  0.00000  0.17116
      14     H     0.41943  0.41943  0.00000  0.16115

   Total alpha = 24.00000, Total beta = 24.00000, Total charge =  0.00000
