  ==> Input File <==

--------------------------------------------------------------------------
set {
	reference rhf
	basis cc-pvtz
}

set_num_threads( 4 )
memory 2 gb

molecule MOL {
0 1

O	 -0.294688	 1.318815	 -0.000872
C	 -0.448732	 0.145721	 -0.000187
C	 -1.780748	 -0.548101	 0.000195
O	 0.550743	 -0.719877	 0.000412
H	 -1.859389	 -1.183260	 -0.872613
H	 -2.570236	 0.185547	 -0.001342
H	 -1.860233	 -1.180337	 0.875064
C	 1.183443	 -0.979784	 -1.237006
H	 0.478257	 -1.385038	 -1.947295
H	 1.958466	 -1.699420	 -1.029286
H	 1.612422	 -0.075576	 -1.642476

	symmetry c1
}
set optking {
	frozen_dihedral = ("
		8 4 2 1
	")
}

ee = optimize('scf')
oeprop('DIPOLE', 'QUADRUPOLE', 'MULLIKEN_CHARGES')
f=open( 'psi4out.xyz', 'w' )
f.write( "11  " )
f.write( str(ee) + "\n" )
f.write( MOL.save_string_xyz() )
f.close()
--------------------------------------------------------------------------

    Molecular point group: c1
  Charge       = 0
  Multiplicity = 1
  Basis Set: CC-PVTZ
  Basis Set:
  @DF-RHF Final Energy:  -266.91958087183320
    Total Energy =                       -266.9195808718333183
    Molecular point group: c1
  Basis Set: CC-PVTZ
  Basis Set:
  Basis Set: CC-PVTZ
  Basis Set:
  @DF-RHF Final Energy:  -266.91828067422057
    Total Energy =                       -266.9182806742205116
  Basis Set: CC-PVTZ
  Basis Set:
  Basis Set: CC-PVTZ
  Basis Set:
  @DF-RHF Final Energy:  -266.92059526012855
    Total Energy =                       -266.9205952601287208
  Basis Set: CC-PVTZ
  Basis Set:
  Basis Set: CC-PVTZ
  Basis Set:
  @DF-RHF Final Energy:  -266.92087200133130
    Total Energy =                       -266.9208720013313041
  Basis Set: CC-PVTZ
  Basis Set:
  Basis Set: CC-PVTZ
  Basis Set:
  @DF-RHF Final Energy:  -266.92088032069205
    Total Energy =                       -266.9208803206922767
  Basis Set: CC-PVTZ
  Basis Set:
  Basis Set: CC-PVTZ
  Basis Set:
  @DF-RHF Final Energy:  -266.92088140680994
    Total Energy =                       -266.9208814068100537
  Basis Set: CC-PVTZ
  Basis Set:
  Charge       = 0
  Multiplicity = 1
  Basis Set: CC-PVTZ
  Basis Set:

    Orbital Energies (a.u.)
    -----------------------

    Doubly Occupied:

       1A    -20.580410     2A    -20.547274     3A    -11.372229
       4A    -11.289404     5A    -11.237352     6A     -1.464257
       7A     -1.371560     8A     -1.028968     9A     -0.961776
      10A     -0.779644    11A     -0.697165    12A     -0.686360
      13A     -0.671367    14A     -0.612612    15A     -0.591743
      16A     -0.577556    17A     -0.540952    18A     -0.502416
      19A     -0.461783    20A     -0.444946

  @DF-RHF Final Energy:  -266.92088151396433

   => Energetics <=

    Nuclear Repulsion Energy =            182.7517154070560537
    One-Electron Energy =                -726.5056438901793854
    Two-Electron Energy =                 276.8330469691588860
    DFT Exchange-Correlation Energy =       0.0000000000000000
    Empirical Dispersion Energy =           0.0000000000000000
    PCM Polarization Energy =               0.0000000000000000
    EFP Energy =                            0.0000000000000000
    Total Energy =                       -266.9208815139644457
    Molecular point group: c1
  Basis Set: CC-PVTZ
  Basis Set:

  -Total Gradient:
     Atom            X                  Y                   Z
    ------   -----------------  -----------------  -----------------
       1       -0.000133550202    -0.000115148573     0.004836427707
       2       -0.000976211081    -0.001146003406    -0.007431097072
       3       -0.000006954543     0.000010630397     0.000018346557
       4        0.003591289216     0.004127950528     0.003407441958
       5       -0.000003930435    -0.000002720547    -0.000018166836
       6       -0.000000638138    -0.000008880636    -0.000006738766
       7       -0.000001032363    -0.000007153350    -0.000010591057
       8       -0.002467126629    -0.002860296474    -0.000795302137
       9       -0.000003807034    -0.000004297377    -0.000000620985
      10       -0.000000931994    -0.000000844300    -0.000000419501
      11        0.000002893200     0.000006763738     0.000000720134

  **** Optimization is complete! (in 7 steps) ****
    Final optimized geometry and variables:
    Molecular point group: c1

    Geometry (in Angstrom), charge = 0, multiplicity = 1:

    O           -0.141086033600     1.468698140862     0.273060260267
    C           -0.320748228708     0.306988923942     0.241826965154
    C           -1.669742288373    -0.351749759503     0.279890443960
    O            0.700154866489    -0.575255062348     0.253201703047
    H           -1.784568708108    -1.005855093379    -0.576217601401
    H           -2.449331396370     0.392737357458     0.285704567179
    H           -1.733513760749    -0.968200798438     1.167830137464
    C            1.359237970814    -0.795618905973    -0.974161544630
    H            0.682174610769    -1.223557377716    -1.705642923765
    H            2.155123874672    -1.495522085313    -0.778605821549
    H            1.773503220122     0.127065597395    -1.358052804089

  Mulliken Charges: (a.u.)
   Center  Symbol    Alpha    Beta     Spin     Total
       1     O     4.16983  4.16983  0.00000 -0.33966
       2     C     2.79858  2.79858  0.00000  0.40284
       3     C     3.13867  3.13867  0.00000 -0.27734
       4     O     4.16702  4.16702  0.00000 -0.33403
       5     H     0.45070  0.45070  0.00000  0.09861
       6     H     0.43772  0.43772  0.00000  0.12457
       7     H     0.44340  0.44340  0.00000  0.11320
       8     C     3.02952  3.02952  0.00000 -0.05904
       9     H     0.46818  0.46818  0.00000  0.06364
      10     H     0.44423  0.44423  0.00000  0.11155
      11     H     0.45216  0.45216  0.00000  0.09569

   Total alpha = 20.00000, Total beta = 20.00000, Total charge =  0.00000
