  ==> Input File <==

--------------------------------------------------------------------------
set {
	reference rhf
	basis 6-31G*
}

set_num_threads( 4 )
memory 2 gb

molecule MOL {
0 1

O	 3.225979	 0.970355	 -0.599647
C	 2.701189	 0.057885	 -0.047330
C	 1.245376	 -0.013843	 0.345420
O	 3.347903	 -1.046386	 0.304773
C	 0.854523	 -1.357501	 0.956920
H	 1.057697	 0.811843	 1.023807
H	 0.659594	 0.195419	 -0.546077
C	 -0.641496	 -1.483884	 1.264245
H	 1.431127	 -1.520696	 1.862467
H	 1.144218	 -2.146612	 0.271499
C	 -1.156042	 -0.548601	 2.362244
H	 -0.838465	 -2.511024	 1.562424
H	 -1.214050	 -1.319734	 0.352518
C	 -2.626938	 -0.789442	 2.707875
H	 -0.550162	 -0.680536	 3.257409
H	 -1.031878	 0.488644	 2.059460
C	 -3.153419	 0.143070	 3.800290
H	 -2.757454	 -1.822711	 3.024978
H	 -3.232157	 -0.668186	 1.810821
C	 -4.621918	 -0.106511	 4.142225
H	 -2.549125	 0.023913	 4.697103
H	 -3.027810	 1.176282	 3.483311
H	 -4.965715	 0.569429	 4.919087
H	 -4.774859	 -1.122148	 4.496183
H	 -5.257064	 0.038522	 3.272841
C	 4.728119	 -1.109107	 -0.004993
H	 4.882018	 -1.033965	 -1.071845
H	 5.068212	 -2.067527	 0.355250
H	 5.265056	 -0.311663	 0.488280

	symmetry c1
}
set optking {
	frozen_dihedral = ("
		6 3 2 1
	")
}

ee = optimize('scf')
oeprop('DIPOLE', 'QUADRUPOLE', 'MULLIKEN_CHARGES')
f=open( 'psi4out.xyz', 'w' )
f.write( "29  " )
f.write( str(ee) + "\n" )
f.write( MOL.save_string_xyz() )
f.close()
--------------------------------------------------------------------------

    Molecular point group: c1
  Charge       = 0
  Multiplicity = 1
  Basis Set: 6-31G*
  Basis Set:
  @DF-RHF Final Energy:  -501.03985269210943
    Total Energy =                       -501.0398526921089797
    Molecular point group: c1
  Basis Set: 6-31G*
  Basis Set:
  Basis Set: 6-31G*
  Basis Set:
  @DF-RHF Final Energy:  -501.04084402764101
    Total Energy =                       -501.0408440276412421
  Basis Set: 6-31G*
  Basis Set:
  Basis Set: 6-31G*
  Basis Set:
  @DF-RHF Final Energy:  -501.04130247430874
    Total Energy =                       -501.0413024743090773
  Basis Set: 6-31G*
  Basis Set:
  Basis Set: 6-31G*
  Basis Set:
  @DF-RHF Final Energy:  -501.04131114346035
    Total Energy =                       -501.0413111434594384
  Basis Set: 6-31G*
  Basis Set:
  Basis Set: 6-31G*
  Basis Set:
  @DF-RHF Final Energy:  -501.04139523640140
    Total Energy =                       -501.0413952364012857
  Basis Set: 6-31G*
  Basis Set:
  Basis Set: 6-31G*
  Basis Set:
  @DF-RHF Final Energy:  -501.04141784004821
    Total Energy =                       -501.0414178400475294
  Basis Set: 6-31G*
  Basis Set:
  Charge       = 0
  Multiplicity = 1
  Basis Set: 6-31G*
  Basis Set:

    Orbital Energies (a.u.)
    -----------------------

    Doubly Occupied:

       1A    -20.606386     2A    -20.539571     3A    -11.372132
       4A    -11.281428     5A    -11.234877     6A    -11.222902
       7A    -11.219744     8A    -11.217221     9A    -11.216383
      10A    -11.215330    11A    -11.209434    12A     -1.470000
      13A     -1.360331    14A     -1.099852    15A     -1.067835
      16A     -1.018523    17A     -0.973797    18A     -0.932552
      19A     -0.865162    20A     -0.799578    21A     -0.790996
      22A     -0.773388    23A     -0.697258    24A     -0.682826
      25A     -0.669372    26A     -0.651607    27A     -0.629295
      28A     -0.605298    29A     -0.590701    30A     -0.577744
      31A     -0.566570    32A     -0.547125    33A     -0.537199
      34A     -0.531227    35A     -0.520581    36A     -0.512970
      37A     -0.500014    38A     -0.481936    39A     -0.472509
      40A     -0.464432    41A     -0.463010    42A     -0.452722
      43A     -0.443023    44A     -0.425480

  @DF-RHF Final Energy:  -501.04141876765004

   => Energetics <=

    Nuclear Repulsion Energy =            612.4606360048454690
    One-Electron Energy =               -1895.9834667633474510
    Two-Electron Energy =                 782.4814119908517114
    DFT Exchange-Correlation Energy =       0.0000000000000000
    Empirical Dispersion Energy =           0.0000000000000000
    PCM Polarization Energy =               0.0000000000000000
    EFP Energy =                            0.0000000000000000
    Total Energy =                       -501.0414187676503843
    Molecular point group: c1
  Basis Set: 6-31G*
  Basis Set:

  -Total Gradient:
     Atom            X                  Y                   Z
    ------   -----------------  -----------------  -----------------
       1        0.000059786028     0.000059264153     0.000287080002
       2       -0.000130024029    -0.000072648166    -0.000449055150
       3        0.000124547904    -0.000200560773     0.000375488170
       4       -0.000005097434     0.000001347367     0.000015890417
       5        0.000038588043     0.000032357125     0.000046419874
       6       -0.000063475063     0.000176075403    -0.000198825072
       7        0.000007227178     0.000012397151    -0.000012561554
       8       -0.000018930662     0.000003547439    -0.000052793171
       9       -0.000008788119    -0.000019359158    -0.000007843448
      10        0.000022262026     0.000001402312    -0.000024561788
      11        0.000014619160    -0.000006176808     0.000023198137
      12        0.000012738840     0.000017654374     0.000012275655
      13       -0.000026458445    -0.000030118637    -0.000002490693
      14       -0.000003132771     0.000014820908    -0.000005406873
      15       -0.000014576326    -0.000001372770     0.000007026342
      16        0.000012202777    -0.000000356050     0.000000175107
      17       -0.000000790425     0.000002946518    -0.000001729319
      18        0.000004466477     0.000002731690     0.000000078409
      19       -0.000000836830    -0.000001171734    -0.000002304910
      20        0.000000247123    -0.000000771665    -0.000000163493
      21        0.000001184074     0.000000174455    -0.000000594847
      22       -0.000001039766     0.000000029702     0.000000103405
      23        0.000000453544    -0.000000346251     0.000000162055
      24       -0.000000311935    -0.000000272012     0.000000021689
      25        0.000000051538     0.000000171011     0.000000086869
      26       -0.000039317338    -0.000002120983    -0.000010077333
      27        0.000006563619     0.000000672621    -0.000003424775
      28        0.000006712099     0.000003871697    -0.000000513341
      29        0.000001128717     0.000005811078     0.000004339639

  **** Optimization is complete! (in 7 steps) ****
    Final optimized geometry and variables:
    Molecular point group: c1

    Geometry (in Angstrom), charge = 0, multiplicity = 1:

    O            2.758810269921     1.455278831642    -1.947440925673
    C            2.315131696344     0.494248767722    -1.403951158417
    C            0.862948354199     0.373404975741    -0.994636102139
    O            3.050041719333    -0.561256598228    -1.090911025622
    C            0.424609252942    -0.966076300448    -0.401480917869
    H            0.687002048292     1.191425768359    -0.303910190975
    H            0.283067566235     0.609635359169    -1.881997997313
    C           -1.078466578594    -1.038923843905    -0.107724079299
    H            0.983878162359    -1.163423969846     0.507872503953
    H            0.684299962330    -1.759762842478    -1.094363303728
    C           -1.566163756482    -0.100758047134     1.000116210174
    H           -1.317114670158    -2.061947272915     0.173926244031
    H           -1.636125601382    -0.839863828987    -1.021545416128
    C           -3.048635172940    -0.289386194261     1.328474271577
    H           -0.974659235994    -0.270090733526     1.898653319570
    H           -1.399144851407     0.935201611301     0.714930872072
    C           -3.548959812341     0.646741185713     2.430040779923
    H           -3.222407204248    -1.321400274408     1.628595967408
    H           -3.639724136212    -0.131147640295     0.427836022220
    C           -5.029408696367     0.449838672819     2.754347620551
    H           -2.958703091702     0.490644123928     3.330547083444
    H           -3.379917032710     1.678723895499     2.129970421531
    H           -5.354146653823     1.127226331973     3.538082858504
    H           -5.225501914975    -0.564143765643     3.091439764599
    H           -5.649677202015     0.632606789673     1.881375451807
    C            4.423236972061    -0.510600098921    -1.435202138275
    H            4.542121475326    -0.401597140831    -2.503377877930
    H            4.844546360976    -1.447003162941    -1.104245462096
    H            4.908081652260     0.316543915580    -0.937402123705

  Mulliken Charges: (a.u.)
   Center  Symbol    Alpha    Beta     Spin     Total
       1     O     4.28965  4.28965  0.00000 -0.57931
       2     C     2.60411  2.60411  0.00000  0.79177
       3     C     3.21385  3.21385  0.00000 -0.42770
       4     O     4.30427  4.30427  0.00000 -0.60853
       5     C     3.15208  3.15208  0.00000 -0.30417
       6     H     0.39639  0.39639  0.00000  0.20723
       7     H     0.39863  0.39863  0.00000  0.20274
       8     C     3.15703  3.15703  0.00000 -0.31406
       9     H     0.41453  0.41453  0.00000  0.17095
      10     H     0.41294  0.41294  0.00000  0.17411
      11     C     3.15544  3.15544  0.00000 -0.31087
      12     H     0.41869  0.41869  0.00000  0.16263
      13     H     0.42282  0.42282  0.00000  0.15437
      14     C     3.15038  3.15038  0.00000 -0.30076
      15     H     0.42306  0.42306  0.00000  0.15388
      16     H     0.42219  0.42219  0.00000  0.15562
      17     C     3.15158  3.15158  0.00000 -0.30317
      18     H     0.42367  0.42367  0.00000  0.15265
      19     H     0.42353  0.42353  0.00000  0.15293
      20     C     3.23940  3.23940  0.00000 -0.47880
      21     H     0.42297  0.42297  0.00000  0.15406
      22     H     0.42276  0.42276  0.00000  0.15447
      23     H     0.41902  0.41902  0.00000  0.16196
      24     H     0.42176  0.42176  0.00000  0.15647
      25     H     0.42160  0.42160  0.00000  0.15679
      26     C     3.09265  3.09265  0.00000 -0.18530
      27     H     0.40815  0.40815  0.00000  0.18369
      28     H     0.40863  0.40863  0.00000  0.18274
      29     H     0.40820  0.40820  0.00000  0.18360

   Total alpha = 44.00000, Total beta = 44.00000, Total charge = -0.00000
