  ==> Input File <==

--------------------------------------------------------------------------
set {
	reference rhf
	basis 6-31G*
}

set_num_threads( 4 )
memory 2 gb

molecule MOL {
0 1

H	 3.067867	 -1.245074	 -0.778873
O	 2.155860	 -1.496766	 -0.817631
C	 1.356969	 -0.487092	 -0.409314
C	 1.860425	 0.739939	 0.003274
C	 -0.009113	 -0.709005	 -0.411609
H	 2.923872	 0.910575	 0.004300
C	 0.998384	 1.743311	 0.412907
H	 -0.399306	 -1.656324	 -0.730060
C	 -0.865228	 0.300799	 0.000000
H	 1.399730	 2.688687	 0.730026
C	 -0.368268	 1.530250	 0.413827
C	 -2.333960	 0.069074	 0.000000
H	 -1.039677	 2.308215	 0.731608
O	 -2.847347	 -1.003763	 0.000000
H	 -2.943845	 0.977528	 0.000000

	symmetry c1
}
set optking {
	frozen_dihedral = ("
		11 9 12 14
	")
}

ee = optimize('scf')
oeprop('DIPOLE', 'QUADRUPOLE', 'MULLIKEN_CHARGES')
f=open( 'psi4out.xyz', 'w' )
f.write( "15  " )
f.write( str(ee) + "\n" )
f.write( MOL.save_string_xyz() )
f.close()
--------------------------------------------------------------------------

    Molecular point group: c1
  Charge       = 0
  Multiplicity = 1
  Basis Set: 6-31G*
  Basis Set:
  @DF-RHF Final Energy:  -418.28480275016636
    Total Energy =                       -418.2848027501660226
    Molecular point group: c1
  Basis Set: 6-31G*
  Basis Set:
  Basis Set: 6-31G*
  Basis Set:
  @DF-RHF Final Energy:  -418.28353619921893
    Total Energy =                       -418.2835361992183607
  Basis Set: 6-31G*
  Basis Set:
  Basis Set: 6-31G*
  Basis Set:
  @DF-RHF Final Energy:  -418.28494914448220
    Total Energy =                       -418.2849491444826526
  Basis Set: 6-31G*
  Basis Set:
  Basis Set: 6-31G*
  Basis Set:
  @DF-RHF Final Energy:  -418.28500933255287
    Total Energy =                       -418.2850093325528178
  Basis Set: 6-31G*
  Basis Set:
  Charge       = 0
  Multiplicity = 1
  Basis Set: 6-31G*
  Basis Set:

    Orbital Energies (a.u.)
    -----------------------

    Doubly Occupied:

       1A    -20.601734     2A    -20.565192     3A    -11.332754
       4A    -11.312838     5A    -11.253165     6A    -11.252279
       7A    -11.249282     8A    -11.245784     9A    -11.239515
      10A     -1.421471    11A     -1.405544    12A     -1.169442
      13A     -1.048586    14A     -1.026907    15A     -0.899972
      16A     -0.845520    17A     -0.813701    18A     -0.736037
      19A     -0.702023    20A     -0.685282    21A     -0.640437
      22A     -0.636443    23A     -0.611838    24A     -0.601355
      25A     -0.575449    26A     -0.548690    27A     -0.541903
      28A     -0.513386    29A     -0.486598    30A     -0.423643
      31A     -0.353423    32A     -0.325573

  @DF-RHF Final Energy:  -418.28500981337180

   => Energetics <=

    Nuclear Repulsion Energy =            403.1402168768583465
    One-Electron Energy =               -1368.7189216195338304
    Two-Electron Energy =                 547.2936949293040243
    DFT Exchange-Correlation Energy =       0.0000000000000000
    Empirical Dispersion Energy =           0.0000000000000000
    PCM Polarization Energy =               0.0000000000000000
    EFP Energy =                            0.0000000000000000
    Total Energy =                       -418.2850098133714027
    Molecular point group: c1
  Basis Set: 6-31G*
  Basis Set:

  -Total Gradient:
     Atom            X                  Y                   Z
    ------   -----------------  -----------------  -----------------
       1       -0.000001035858     0.000010568235    -0.000026598124
       2       -0.000003003145     0.000000142422     0.000009082732
       3        0.000006931679    -0.000025585599     0.000069594949
       4       -0.000005111817     0.000033352634    -0.000100968923
       5       -0.000001375100    -0.000010796056     0.000025016853
       6       -0.000000127829    -0.000002544932     0.000011598756
       7        0.000001726349    -0.000032816482     0.000077938667
       8       -0.000003362794     0.000009768348    -0.000017233323
       9       -0.000312744261     0.001465773513    -0.002322788963
      10        0.000000500252     0.000005474462    -0.000013511984
      11        0.000226734225    -0.001031199396     0.002691034711
      12       -0.000023375639    -0.000345959338    -0.003959923436
      13       -0.000000287879     0.000000960019    -0.000007894213
      14        0.000106183770    -0.000081967039     0.003573703380
      15        0.000008348038     0.000004829213    -0.000009051082

  **** Optimization is complete! (in 5 steps) ****
    Final optimized geometry and variables:
    Molecular point group: c1

    Geometry (in Angstrom), charge = 0, multiplicity = 1:

    H            3.070589063494    -1.270523245102    -0.651259987401
    O            2.157799894371    -1.516719121041    -0.704438731257
    C            1.359109960410    -0.505553147154    -0.299623812654
    C            1.862896386648     0.718294201761     0.121185490958
    C           -0.007663940978    -0.724787115397    -0.310148941996
    H            2.926863492282     0.885256146543     0.133391892412
    C            0.999862897298     1.722644025935     0.526598955081
    H           -0.395841112821    -1.676142553780    -0.619158524493
    C           -0.864893217327     0.291873196557     0.080648892206
    H            1.401310864564     2.663600859433     0.856339649325
    C           -0.367817324654     1.517883321455     0.504733009341
    C           -2.332289994974     0.049108705809     0.113439872999
    H           -1.039678389455     2.299219344932     0.813256489169
    O           -2.834754902345    -1.028774243865     0.106543424055
    H           -2.949446621810     0.949844026134     0.183113040906

  Mulliken Charges: (a.u.)
   Center  Symbol    Alpha    Beta     Spin     Total
       1     H     0.27060  0.27060  0.00000  0.45880
       2     O     4.37596  4.37596  0.00000 -0.75191
       3     C     2.79470  2.79470  0.00000  0.41060
       4     C     3.13504  3.13504  0.00000 -0.27008
       5     C     3.11369  3.11369  0.00000 -0.22738
       6     H     0.39913  0.39913  0.00000  0.20175
       7     C     3.09428  3.09428  0.00000 -0.18856
       8     H     0.37164  0.37164  0.00000  0.25672
       9     C     3.04256  3.04256  0.00000 -0.08511
      10     H     0.39309  0.39309  0.00000  0.21383
      11     C     3.11588  3.11588  0.00000 -0.23177
      12     C     2.83593  2.83593  0.00000  0.32813
      13     H     0.39355  0.39355  0.00000  0.21290
      14     O     4.24161  4.24161  0.00000 -0.48321
      15     H     0.42235  0.42235  0.00000  0.15531

   Total alpha = 32.00000, Total beta = 32.00000, Total charge =  0.00000
