  ==> Input File <==

--------------------------------------------------------------------------
set {
	reference rhf
	basis cc-pvtz
}

set_num_threads( 4 )
memory 2 gb

molecule MOL {
0 1

H	 1.651322	 -0.822465	 0.000000
O	 0.729993	 -1.034364	 0.000000
C	 0.037305	 0.100061	 0.000000
C	 0.653142	 1.134724	 0.893474
O	 -0.945089	 0.241773	 -0.641572
H	 0.705389	 0.753552	 1.905129
H	 0.062235	 2.035106	 0.864021
H	 1.664340	 1.339094	 0.566091

	symmetry c1
}
set optking {
	frozen_dihedral = ("
		4 3 2 1
	")
}

ee = optimize('scf')
oeprop('DIPOLE', 'QUADRUPOLE', 'MULLIKEN_CHARGES')
f=open( 'psi4out.xyz', 'w' )
f.write( "8  " )
f.write( str(ee) + "\n" )
f.write( MOL.save_string_xyz() )
f.close()
--------------------------------------------------------------------------

    Molecular point group: c1
  Charge       = 0
  Multiplicity = 1
  Basis Set: CC-PVTZ
  Basis Set:
  @DF-RHF Final Energy:  -227.88886820079000
    Total Energy =                       -227.8888682007900286
    Molecular point group: c1
  Basis Set: CC-PVTZ
  Basis Set:
  Basis Set: CC-PVTZ
  Basis Set:
  @DF-RHF Final Energy:  -227.88835002020869
    Total Energy =                       -227.8883500202085770
  Basis Set: CC-PVTZ
  Basis Set:
  Basis Set: CC-PVTZ
  Basis Set:
  @DF-RHF Final Energy:  -227.88992378544799
    Total Energy =                       -227.8899237854480475
  Basis Set: CC-PVTZ
  Basis Set:
  Basis Set: CC-PVTZ
  Basis Set:
  @DF-RHF Final Energy:  -227.89082558551451
    Total Energy =                       -227.8908255855145910
  Basis Set: CC-PVTZ
  Basis Set:
  @DF-RHF Final Energy:  -227.89084818731180
    Total Energy =                       -227.8908481873118603
  Basis Set: CC-PVTZ
  Basis Set:
  @DF-RHF Final Energy:  -227.89086686090184
    Total Energy =                       -227.8908668609018946
  Basis Set: CC-PVTZ
  Basis Set:
  Basis Set: CC-PVTZ
  Basis Set:
  @DF-RHF Final Energy:  -227.89050636840309
    Total Energy =                       -227.8905063684029528
  Basis Set: CC-PVTZ
  Basis Set:
  Basis Set: CC-PVTZ
  Basis Set:
  @DF-RHF Final Energy:  -227.89087228843266
    Total Energy =                       -227.8908722884326039
  Basis Set: CC-PVTZ
  Basis Set:
  Charge       = 0
  Multiplicity = 1
  Basis Set: CC-PVTZ
  Basis Set:

    Orbital Energies (a.u.)
    -----------------------

    Doubly Occupied:

       1A    -20.601746     2A    -20.542954     3A    -11.378086
       4A    -11.248103     5A     -1.471035     6A     -1.376062
       7A     -1.026178     8A     -0.839478     9A     -0.719919
      10A     -0.671817    11A     -0.661988    12A     -0.602041
      13A     -0.576244    14A     -0.542360    15A     -0.488514
      16A     -0.451101

  @DF-RHF Final Energy:  -227.89087364214782

   => Energetics <=

    Nuclear Repulsion Energy =            122.4176571714779129
    One-Electron Energy =                -554.2218103521486228
    Two-Electron Energy =                 203.9132795385228576
    DFT Exchange-Correlation Energy =       0.0000000000000000
    Empirical Dispersion Energy =           0.0000000000000000
    PCM Polarization Energy =               0.0000000000000000
    EFP Energy =                            0.0000000000000000
    Total Energy =                       -227.8908736421478523
    Molecular point group: c1
  Basis Set: CC-PVTZ
  Basis Set:

  -Total Gradient:
     Atom            X                  Y                   Z
    ------   -----------------  -----------------  -----------------
       1       -0.000147834182     0.000203083304    -0.006378258858
       2       -0.000823493367    -0.001034297531     0.009555164984
       3        0.003070425432     0.002346448958    -0.006371302101
       4       -0.002184227970    -0.001435883322     0.003118613787
       5        0.000080402550    -0.000064541787     0.000049313636
       6        0.000001572165    -0.000010706496     0.000015076610
       7        0.000007814793     0.000003959280     0.000010372163
       8       -0.000004659421    -0.000008062407     0.000001019778

  **** Optimization is complete! (in 9 steps) ****
    Final optimized geometry and variables:
    Molecular point group: c1

    Geometry (in Angstrom), charge = 0, multiplicity = 1:

    H            1.527331984864    -0.991322784776    -0.141242634721
    O            0.596421775177    -1.132505740556    -0.125793560517
    C           -0.090039397264     0.020794251304    -0.076763304620
    C            0.502912606102     1.075393380985     0.820912369547
    O           -1.124862465703     0.122445099285    -0.622134038066
    H            0.473347490165     0.711564024765     1.840751993382
    H           -0.069062798921     1.984929729959     0.740594640446
    H            1.539109996771     1.273106047117     0.569594316873

  Mulliken Charges: (a.u.)
   Center  Symbol    Alpha    Beta     Spin     Total
       1     H     0.38900  0.38900  0.00000  0.22200
       2     O     4.15190  4.15190  0.00000 -0.30379
       3     C     2.81058  2.81058  0.00000  0.37884
       4     C     3.14439  3.14439  0.00000 -0.28877
       5     O     4.16958  4.16958  0.00000 -0.33916
       6     H     0.44123  0.44123  0.00000  0.11753
       7     H     0.43537  0.43537  0.00000  0.12926
       8     H     0.45795  0.45795  0.00000  0.08409

   Total alpha = 16.00000, Total beta = 16.00000, Total charge = -0.00000
