  ==> Input File <==

--------------------------------------------------------------------------
set {
	reference rhf
	basis cc-pvtz
}

set_num_threads( 4 )
memory 2 gb

molecule MOL {
0 1

H	 -1.385000	 -0.000000	 1.227000
C	 -1.164000	 -0.000000	 0.160000
H	 -2.079000	 -0.000000	 -0.411000
O	 -0.404000	 1.110000	 -0.179000
O	 -0.404000	 -1.110000	 -0.179000
C	 0.940000	 0.772000	 0.048000
C	 0.940000	 -0.772000	 0.048000
H	 1.278000	 1.173000	 0.998000
H	 1.538000	 1.200000	 -0.744000
H	 1.539000	 -1.199000	 -0.744000
H	 1.278000	 -1.173000	 0.998000

	symmetry c1
}
ee = optimize('scf')
oeprop('DIPOLE', 'QUADRUPOLE', 'MULLIKEN_CHARGES')
f=open( 'psi4out.xyz', 'w' )
f.write( "11  " )
f.write( str(ee) + "\n" )
f.write( MOL.save_string_xyz() )
f.close()
--------------------------------------------------------------------------

    Molecular point group: c1
  Charge       = 0
  Multiplicity = 1
  Basis Set: CC-PVTZ
  Basis Set:
  @DF-RHF Final Energy:  -266.89427214125567
    Total Energy =                       -266.8942721412556693
    Molecular point group: c1
  Basis Set: CC-PVTZ
  Basis Set:
  Basis Set: CC-PVTZ
  Basis Set:
  @DF-RHF Final Energy:  -266.89430611532958
    Total Energy =                       -266.8943061153296412
  Basis Set: CC-PVTZ
  Basis Set:
  Charge       = 0
  Multiplicity = 1
  Basis Set: CC-PVTZ
  Basis Set:

    Orbital Energies (a.u.)
    -----------------------

    Doubly Occupied:

       1A    -20.561169     2A    -20.561144     3A    -11.321155
       4A    -11.279079     5A    -11.278483     6A     -1.455743
       7A     -1.342606     8A     -1.036137     9A     -0.869930
      10A     -0.859763    11A     -0.724125    12A     -0.714111
      13A     -0.635385    14A     -0.628129    15A     -0.589556
      16A     -0.566626    17A     -0.516628    18A     -0.492623
      19A     -0.439625    20A     -0.424803

  @DF-RHF Final Energy:  -266.89430809879650

   => Energetics <=

    Nuclear Repulsion Energy =            196.5882431543219866
    One-Electron Energy =                -754.3714654164242575
    Two-Electron Energy =                 290.8889141633058557
    DFT Exchange-Correlation Energy =       0.0000000000000000
    Empirical Dispersion Energy =           0.0000000000000000
    PCM Polarization Energy =               0.0000000000000000
    EFP Energy =                            0.0000000000000000
    Total Energy =                       -266.8943080987964436
    Molecular point group: c1
  Basis Set: CC-PVTZ
  Basis Set:

  -Total Gradient:
     Atom            X                  Y                   Z
    ------   -----------------  -----------------  -----------------
       1       -0.000008763832     0.000000581192    -0.000017990368
       2        0.000322165708     0.000004977095     0.000037489217
       3        0.000088511682     0.000000453086    -0.000012005657
       4       -0.000020669669     0.000182509736    -0.000004704916
       5       -0.000009438128    -0.000183612771    -0.000007316980
       6       -0.000030175708    -0.000116793881     0.000007934256
       7       -0.000033260642     0.000110935951    -0.000008492482
       8       -0.000058299216     0.000010362534    -0.000042772047
       9       -0.000096815225    -0.000017555229     0.000042247388
      10       -0.000099345311     0.000014072408     0.000048090629
      11       -0.000053909659    -0.000005930121    -0.000042479041

  **** Optimization is complete! (in 3 steps) ****
    Final optimized geometry and variables:
    Molecular point group: c1

    Geometry (in Angstrom), charge = 0, multiplicity = 1:

    H           -1.360077773992    -0.000178069679     1.242206348782
    C           -1.133991518834    -0.000107969089     0.175646035940
    H           -2.047798845509    -0.000170521043    -0.397410620944
    O           -0.374499275711     1.108266403897    -0.158775849731
    O           -0.374283900167    -1.108320987996    -0.158876542545
    C            0.967532752647     0.770185269873     0.064571365710
    C            0.967681263639    -0.770017532203     0.064463537495
    H            1.309039236725     1.171501823430     1.012422166098
    H            1.566511141051     1.193441021070    -0.727864746959
    H            1.566713913937    -1.193087217948    -0.728022441557
    H            1.309325692860    -1.171352400796     1.012259529077

  Mulliken Charges: (a.u.)
   Center  Symbol    Alpha    Beta     Spin     Total
       1     H     0.48455  0.48455  0.00000  0.03089
       2     C     2.88774  2.88774  0.00000  0.22451
       3     H     0.45113  0.45113  0.00000  0.09775
       4     O     4.18041  4.18041  0.00000 -0.36082
       5     O     4.18041  4.18041  0.00000 -0.36083
       6     C     2.98930  2.98930  0.00000  0.02140
       7     C     2.98929  2.98929  0.00000  0.02141
       8     H     0.46384  0.46384  0.00000  0.07232
       9     H     0.45474  0.45474  0.00000  0.09053
      10     H     0.45473  0.45473  0.00000  0.09053
      11     H     0.46385  0.46385  0.00000  0.07231

   Total alpha = 20.00000, Total beta = 20.00000, Total charge =  0.00000
