  ==> Input File <==

--------------------------------------------------------------------------
set {
	reference rhf
	basis cc-pvtz
}

set_num_threads( 4 )
memory 2 gb

molecule MOL {
0 1

H	 -2.430736	 0.288759	 2.180026
C	 -2.275922	 -0.491568	 1.438402
O	 -1.000619	 -0.428930	 0.893223
H	 -2.383552	 -1.453372	 1.918231
H	 -3.043520	 -0.395259	 0.672633
C	 -0.718530	 0.758693	 0.228682
C	 0.718529	 0.758687	 -0.228709
H	 -1.365840	 0.867121	 -0.641492
H	 -0.886398	 1.613581	 0.880154
O	 1.401606	 -0.295166	 0.366636
H	 0.748705	 0.673477	 -1.312803
H	 1.176496	 1.708671	 0.046552
C	 2.714315	 -0.441627	 -0.061017
H	 2.765292	 -0.641548	 -1.128869
H	 3.305661	 0.447341	 0.150952
H	 3.143725	 -1.278506	 0.470147

	symmetry c1
}
set optking {
	frozen_dihedral = ("
		3 6 7 11
	")
}

ee = optimize('scf')
oeprop('DIPOLE', 'QUADRUPOLE', 'MULLIKEN_CHARGES')
f=open( 'psi4out.xyz', 'w' )
f.write( "16  " )
f.write( str(ee) + "\n" )
f.write( MOL.save_string_xyz() )
f.close()
--------------------------------------------------------------------------

    Molecular point group: c1
  Charge       = 0
  Multiplicity = 1
  Basis Set: CC-PVTZ
  Basis Set:
  @DF-RHF Final Energy:  -307.08358405377464
    Total Energy =                       -307.0835840537746435
    Molecular point group: c1
  Basis Set: CC-PVTZ
  Basis Set:
  Basis Set: CC-PVTZ
  Basis Set:
  @DF-RHF Final Energy:  -307.08456754386452
    Total Energy =                       -307.0845675438645799
  Basis Set: CC-PVTZ
  Basis Set:
  Basis Set: CC-PVTZ
  Basis Set:
  @DF-RHF Final Energy:  -307.08548939689143
    Total Energy =                       -307.0854893968914894
  Basis Set: CC-PVTZ
  Basis Set:
  Basis Set: CC-PVTZ
  Basis Set:
  @DF-RHF Final Energy:  -307.08552113306911
    Total Energy =                       -307.0855211330692782
  Basis Set: CC-PVTZ
  Basis Set:
  Basis Set: CC-PVTZ
  Basis Set:
  @DF-RHF Final Energy:  -307.08552280706130
    Total Energy =                       -307.0855228070616931
  Basis Set: CC-PVTZ
  Basis Set:
  Charge       = 0
  Multiplicity = 1
  Basis Set: CC-PVTZ
  Basis Set:

    Orbital Energies (a.u.)
    -----------------------

    Doubly Occupied:

       1A    -20.546710     2A    -20.545657     3A    -11.269914
       4A    -11.269326     5A    -11.260881     6A    -11.260417
       7A     -1.393164     8A     -1.372673     9A     -1.025163
      10A     -0.935069    11A     -0.897681    12A     -0.819396
      13A     -0.689219    14A     -0.675398    15A     -0.660603
      16A     -0.647163    17A     -0.619961    18A     -0.593021
      19A     -0.573792    20A     -0.516701    21A     -0.508736
      22A     -0.470787    23A     -0.469946    24A     -0.427192
      25A     -0.400632

  @DF-RHF Final Energy:  -307.08552276924115

   => Energetics <=

    Nuclear Repulsion Energy =            259.9010526390281939
    One-Electron Energy =                -934.2747413765964666
    Two-Electron Energy =                 367.2881659683270072
    DFT Exchange-Correlation Energy =       0.0000000000000000
    Empirical Dispersion Energy =           0.0000000000000000
    PCM Polarization Energy =               0.0000000000000000
    EFP Energy =                            0.0000000000000000
    Total Energy =                       -307.0855227692412655
    Molecular point group: c1
  Basis Set: CC-PVTZ
  Basis Set:

  -Total Gradient:
     Atom            X                  Y                   Z
    ------   -----------------  -----------------  -----------------
       1       -0.000000399504    -0.000002274471    -0.000000864423
       2       -0.000002010444     0.000006864246     0.000008652598
       3        0.001402526242     0.001749567856     0.003749167892
       4        0.000005943739     0.000000114024    -0.000001710539
       5        0.000006240351     0.000001451661    -0.000005676492
       6       -0.001893652038    -0.001026676210    -0.005150313581
       7        0.000437867503    -0.006038203402     0.001690633561
       8       -0.000001903341     0.000041734132    -0.000009302361
       9        0.000023126475    -0.000052428358     0.000054318574
      10        0.000031002373    -0.000036150118     0.000006188456
      11        0.000007257902     0.005355069533    -0.000352183120
      12        0.000002991902    -0.000002748179     0.000007679929
      13       -0.000013585974     0.000005281846     0.000002629250
      14       -0.000001090596    -0.000001284550    -0.000001850070
      15       -0.000001204481     0.000001589656     0.000001478605
      16       -0.000003110110    -0.000001907667     0.000001151721

  **** Optimization is complete! (in 6 steps) ****
    Final optimized geometry and variables:
    Molecular point group: c1

    Geometry (in Angstrom), charge = 0, multiplicity = 1:

    H           -2.659536833680     0.393795430575     1.697098305115
    C           -2.491937024794    -0.414333507243     0.987479472169
    O           -1.193858171348    -0.400668065262     0.497531902185
    H           -2.642960439413    -1.357087050624     1.492553502999
    H           -3.224378690479    -0.324429479797     0.187346040795
    C           -0.859643753923     0.767486246740    -0.168650979516
    C            0.587748173142     0.727069892775    -0.688399514393
    H           -1.534129647498     0.938990938337    -1.005835921435
    H           -0.973748304635     1.611656168941     0.509632236360
    O            1.314689092773    -0.299617255321    -0.114156195363
    H            0.590665611428     0.654745816178    -1.775107760730
    H            1.054608432036     1.685426270200    -0.460038029275
    C            2.636361848674    -0.353976291100    -0.534186165318
    H            2.708048347811    -0.507656735266    -1.609127844146
    H            3.174776348088     0.557666175428    -0.281750367781
    H            3.106753233096    -1.186362078277    -0.031753181941

  Mulliken Charges: (a.u.)
   Center  Symbol    Alpha    Beta     Spin     Total
       1     H     0.47309  0.47309  0.00000  0.05382
       2     C     3.03188  3.03188  0.00000 -0.06376
       3     O     4.15705  4.15705  0.00000 -0.31410
       4     H     0.44562  0.44562  0.00000  0.10876
       5     H     0.47319  0.47319  0.00000  0.05361
       6     C     2.96618  2.96618  0.00000  0.06764
       7     C     2.96497  2.96497  0.00000  0.07005
       8     H     0.47636  0.47636  0.00000  0.04729
       9     H     0.47681  0.47681  0.00000  0.04638
      10     O     4.15614  4.15614  0.00000 -0.31229
      11     H     0.47661  0.47661  0.00000  0.04678
      12     H     0.47884  0.47884  0.00000  0.04232
      13     C     3.03232  3.03232  0.00000 -0.06464
      14     H     0.47235  0.47235  0.00000  0.05529
      15     H     0.47305  0.47305  0.00000  0.05391
      16     H     0.44553  0.44553  0.00000  0.10893

   Total alpha = 25.00000, Total beta = 25.00000, Total charge = -0.00000
