  ==> Input File <==

--------------------------------------------------------------------------
set {
	reference rhf
	basis 6-31G*
}

set_num_threads( 1 )
memory 2 gb

molecule MOL {
0 1

O	 1.367933	 2.130805	 -0.108640
C	 0.291449	 2.579603	 -0.338600
C	 -1.003031	 1.803608	 -0.333975
O	 0.084993	 3.857061	 -0.632899
C	 -0.823008	 0.326187	 0.001381
H	 -1.670225	 2.289368	 0.372852
H	 -1.462396	 1.932650	 -1.310218
C	 -2.149452	 -0.435131	 -0.000098
H	 -0.346562	 0.235419	 0.972436
H	 -0.139470	 -0.121968	 -0.712931
C	 -3.368779	 0.488503	 -0.000883
H	 -2.193746	 -1.087250	 -0.871175
H	 -2.195311	 -1.087803	 0.870418
C	 -4.693822	 -0.272754	 -0.001129
H	 -3.325798	 1.139422	 -0.871284
H	 -3.326423	 1.139959	 0.869145
H	 -4.781274	 -0.907928	 -0.878124
H	 -5.538651	 0.408946	 -0.001420
H	 -4.781694	 -0.907783	 0.875984
C	 1.222042	 4.700138	 -0.668914
H	 1.711371	 4.719587	 0.294261
H	 0.853410	 5.682190	 -0.921023
H	 1.923767	 4.360130	 -1.416900

	symmetry c1
}
set optking {
	frozen_dihedral = ("
		15 11 8 12,
		1 2 3 6,
		9 5 3 6,
		1 2 4 20
	")
}

ee = energy('scf')
oeprop('DIPOLE', 'QUADRUPOLE', 'MULLIKEN_CHARGES')
f=open( 'psi4out.xyz', 'w' )
f.write( "23  " )
f.write( str(ee) + "\n" )
f.write( MOL.save_string_xyz() )
f.close()
--------------------------------------------------------------------------

    Molecular point group: c1

    Geometry (in Angstrom), charge = 0, multiplicity = 1:

       Center              X                  Y                   Z               Mass
    ------------   -----------------  -----------------  -----------------  -----------------
           O          2.355843542239     0.409110100849     0.127462543985    15.994914619560
           C          1.279359542239     0.857908100849    -0.102497456015    12.000000000000
           C         -0.015120457761     0.081913100849    -0.097872456015    12.000000000000
           O          1.072903542239     2.135366100849    -0.396796456015    15.994914619560
           C          0.164902542239    -1.395507899151     0.237483543985    12.000000000000
           H         -0.682314457761     0.567673100849     0.608954543985     1.007825032070
           H         -0.474485457761     0.210955100849    -1.074115456015     1.007825032070
           C         -1.161541457761    -2.156825899151     0.236004543985    12.000000000000
           H          0.641348542239    -1.486275899151     1.208538543985     1.007825032070
           H          0.848440542239    -1.843662899151    -0.476828456015     1.007825032070
           C         -2.380868457761    -1.233191899151     0.235219543985    12.000000000000
           H         -1.205835457761    -2.808944899151    -0.635072456015     1.007825032070
           H         -1.207400457761    -2.809497899151     1.106520543985     1.007825032070
           C         -3.705911457761    -1.994448899151     0.234973543985    12.000000000000
           H         -2.337887457761    -0.582272899151    -0.635181456015     1.007825032070
           H         -2.338512457761    -0.581735899151     1.105247543985     1.007825032070
           H         -3.793363457761    -2.629622899151    -0.642021456015     1.007825032070
           H         -4.550740457761    -1.312748899151     0.234682543985     1.007825032070
           H         -3.793783457761    -2.629477899151     1.112086543985     1.007825032070
           C          2.209952542239     2.978443100849    -0.432811456015    12.000000000000
           H          2.699281542239     2.997892100849     0.530363543985     1.007825032070
           H          1.841320542239     3.960495100849    -0.684920456015     1.007825032070
           H          2.911677542239     2.638435100849    -1.180797456015     1.007825032070

  Charge       = 0
  Multiplicity = 1
  Basis Set: 6-31G*
  Basis Set:

    Orbital Energies (a.u.)
    -----------------------

    Doubly Occupied:

       1A    -20.602838     2A    -20.544087     3A    -11.370610
       4A    -11.280350     5A    -11.233492     6A    -11.218788
       7A    -11.217869     8A    -11.216505     9A    -11.210681
      10A     -1.468348    11A     -1.361662    12A     -1.098845
      13A     -1.038132    14A     -0.986680    15A     -0.932732
      16A     -0.856237    17A     -0.793821    18A     -0.756484
      19A     -0.699452    20A     -0.683648    21A     -0.669984
      22A     -0.652790    23A     -0.606461    24A     -0.601556
      25A     -0.579569    26A     -0.561326    27A     -0.551796
      28A     -0.525794    29A     -0.521701    30A     -0.511562
      31A     -0.499299    32A     -0.468785    33A     -0.456690
      34A     -0.455091    35A     -0.448542    36A     -0.435912

  @DF-RHF Final Energy:  -422.96269508200055

   => Energetics <=

    Nuclear Repulsion Energy =            462.7808681671128852
    One-Electron Energy =               -1493.2508979517838270
    Two-Electron Energy =                 607.5073347026695956
    DFT Exchange-Correlation Energy =       0.0000000000000000
    Empirical Dispersion Energy =           0.0000000000000000
    PCM Polarization Energy =               0.0000000000000000
    EFP Energy =                            0.0000000000000000
    Total Energy =                       -422.9626950820013462

  Mulliken Charges: (a.u.)
   Center  Symbol    Alpha    Beta     Spin     Total
       1     O     4.28622  4.28622  0.00000 -0.57244
       2     C     2.60186  2.60186  0.00000  0.79628
       3     C     3.21881  3.21881  0.00000 -0.43763
       4     O     4.30731  4.30731  0.00000 -0.61461
       5     C     3.15434  3.15434  0.00000 -0.30868
       6     H     0.39766  0.39766  0.00000  0.20467
       7     H     0.39957  0.39957  0.00000  0.20087
       8     C     3.15550  3.15550  0.00000 -0.31100
       9     H     0.40983  0.40983  0.00000  0.18035
      10     H     0.40893  0.40893  0.00000  0.18214
      11     C     3.16118  3.16118  0.00000 -0.32236
      12     H     0.42007  0.42007  0.00000  0.15985
      13     H     0.41831  0.41831  0.00000  0.16338
      14     C     3.23642  3.23642  0.00000 -0.47284
      15     H     0.42079  0.42079  0.00000  0.15842
      16     H     0.42203  0.42203  0.00000  0.15595
      17     H     0.42141  0.42141  0.00000  0.15718
      18     H     0.41924  0.41924  0.00000  0.16152
      19     H     0.42130  0.42130  0.00000  0.15740
      20     C     3.09228  3.09228  0.00000 -0.18456
      21     H     0.40916  0.40916  0.00000  0.18167
      22     H     0.40858  0.40858  0.00000  0.18284
      23     H     0.40919  0.40919  0.00000  0.18161

   Total alpha = 36.00000, Total beta = 36.00000, Total charge =  0.00000
