                              Psi4 1.0.54 Driver

  ==> Input File <==

--------------------------------------------------------------------------
set {
	reference rhf
	basis cc-pvtz
}

set_num_threads( 4 )
memory 2 gb

molecule MOL {
0 1

O	 -0.694481	 1.313155	 -0.204815
C	 -0.862519	 0.151932	 -0.046791
C	 -2.171428	 -0.477048	 0.339095
O	 0.085519	 -0.757083	 -0.192238
H	 -2.467997	 -1.191667	 -0.417688
H	 -2.923379	 0.287970	 0.444097
H	 -2.053854	 -1.015120	 1.270901
C	 0.877026	 -1.107592	 0.936984
C	 0.209735	 -2.175218	 1.778885
H	 1.077296	 -0.221856	 1.519376
H	 1.803987	 -1.470840	 0.519198
H	 0.869448	 -2.463495	 2.589519
H	 -0.713772	 -1.809325	 2.206249
H	 -0.002488	 -3.054968	 1.183407

	symmetry c1
}
set optking {
	frozen_dihedral = ("
		8 4 2 1
	")
}

ee,wfn = optimize('scf', return_wfn=True)
oeprop( wfn, 'DIPOLE', 'QUADRUPOLE', 'MULLIKEN_CHARGES')
f=open( 'psi4out.xyz', 'w' )
f.write( "14  " )
f.write( str(ee) + "\n" )
f.write( MOL.save_string_xyz() )
f.close()
--------------------------------------------------------------------------

    Molecular point group: c1
  Charge       = 0
  Multiplicity = 1
  Basis Set: CC-PVTZ
  Basis Set:
  @DF-RHF Final Energy:  -305.96456918082902
    Total Energy =                       -305.9645691808290735
    Molecular point group: c1
  Basis Set: CC-PVTZ
  Basis Set:
  Basis Set: CC-PVTZ
  Basis Set:
  @DF-RHF Final Energy:  -305.96798998156822
    Total Energy =                       -305.9679899815679960
  Basis Set: CC-PVTZ
  Basis Set:
  Basis Set: CC-PVTZ
  Basis Set:
  @DF-RHF Final Energy:  -305.96942576805429
    Total Energy =                       -305.9694257680544638
  Basis Set: CC-PVTZ
  Basis Set:
  Basis Set: CC-PVTZ
  Basis Set:
  @DF-RHF Final Energy:  -305.96948035040441
    Total Energy =                       -305.9694803504045240
  Basis Set: CC-PVTZ
  Basis Set:
  @DF-RHF Final Energy:  -305.96957081493747
    Total Energy =                       -305.9695708149375832
  @DF-RHF Final Energy:  -305.96969604161825
    Total Energy =                       -305.9696960416181355
  @DF-RHF Final Energy:  -305.96308338706280
    Total Energy =                       -305.9630833870629090
  @DF-RHF Final Energy:  -305.78093975721174
    Total Energy =                       -305.7809397572116268
  @DF-RHF Final Energy:  -305.92969994211199
    Total Energy =                       -305.9296999421119381
  @DF-RHF Final Energy:  -305.96419989780276
    Total Energy =                       -305.9641998978028710
  @DF-RHF Final Energy:  -305.96769975409308
    Total Energy =                       -305.9676997540932462
  @DF-RHF Final Energy:  -305.96973214344393
    Total Energy =                       -305.9697321434442756
  @DF-RHF Final Energy:  -305.96983642105886
    Total Energy =                       -305.9698364210588579
  @DF-RHF Final Energy:  -305.96988791990668
    Total Energy =                       -305.9698879199068529
  @DF-RHF Final Energy:  -305.96991499843352
    Total Energy =                       -305.9699149984339783
  @DF-RHF Final Energy:  -305.96995263207634
    Total Energy =                       -305.9699526320761720
  @DF-RHF Final Energy:  -305.97004786369661
    Total Energy =                       -305.9700478636967773
  @DF-RHF Final Energy:  -305.97012585405855
    Total Energy =                       -305.9701258540583240
  @DF-RHF Final Energy:  -305.96810475304198
    Total Energy =                       -305.9681047530415299
  @DF-RHF Final Energy:  -305.97053603549057
    Total Energy =                       -305.9705360354902837
  @DF-RHF Final Energy:  -305.97032392808296
    Total Energy =                       -305.9703239280829621
  @DF-RHF Final Energy:  -305.97203564925564
    Total Energy =                       -305.9720356492551900
  @DF-RHF Final Energy:  -305.96859817096299
    Total Energy =                       -305.9685981709632188
  @DF-RHF Final Energy:  -305.97294496489923
    Total Energy =                       -305.9729449648993977
  @DF-RHF Final Energy:  -305.97021819026975
    Total Energy =                       -305.9702181902698044
  @DF-RHF Final Energy:  -305.97300133606751
    Total Energy =                       -305.9730013360673979
  @DF-RHF Final Energy:  -305.97057849874790
    Total Energy =                       -305.9705784987479547
  @DF-RHF Final Energy:  -305.97315569212327
    Total Energy =                       -305.9731556921229867
  Basis Set: CC-PVTZ
  Basis Set:
  @DF-RHF Final Energy:  -305.97325521872250
    Total Energy =                       -305.9732552187224428
  Basis Set: CC-PVTZ
  Basis Set:
  Basis Set: CC-PVTZ
  Basis Set:
  @DF-RHF Final Energy:  -305.97327106882824
    Total Energy =                       -305.9732710688277848
  Basis Set: CC-PVTZ
  Basis Set:
  Basis Set: CC-PVTZ
  Basis Set:
  @DF-RHF Final Energy:  -305.97327319589942
    Total Energy =                       -305.9732731958996510
  Basis Set: CC-PVTZ
  Basis Set:
  Charge       = 0
  Multiplicity = 1
  Basis Set: CC-PVTZ
  Basis Set:

    Orbital Energies (a.u.)
    -----------------------

    Doubly Occupied:

       1A    -20.576388     2A    -20.545343     3A    -11.370274
       4A    -11.293962     5A    -11.236427     6A    -11.223295
       7A     -1.461547     8A     -1.370021     9A     -1.051221
      10A     -1.008882    11A     -0.873665    12A     -0.782800
      13A     -0.699241    14A     -0.690680    15A     -0.650594
      16A     -0.632433    17A     -0.585393    18A     -0.576460
      19A     -0.554937    20A     -0.534436    21A     -0.523418
      22A     -0.494734    23A     -0.456145    24A     -0.441716

  @DF-RHF Final Energy:  -305.97327396389699

   => Energetics <=

    Nuclear Repulsion Energy =            245.1591771898859804
    One-Electron Energy =                -902.9968743718873156
    Two-Electron Energy =                 351.8644232181045481
    DFT Exchange-Correlation Energy =       0.0000000000000000
    Empirical Dispersion Energy =           0.0000000000000000
    PCM Polarization Energy =               0.0000000000000000
    EFP Energy =                            0.0000000000000000
    Total Energy =                       -305.9732739638967587
    Molecular point group: c1
  Basis Set: CC-PVTZ
  Basis Set:

  -Total Gradient:
     Atom            X                  Y                   Z
    ------   -----------------  -----------------  -----------------
       1       -0.002207747573    -0.000686991135    -0.001918791718
       2        0.002693554467     0.001820080426     0.003289061114
       3        0.000026294608    -0.000037907973    -0.000019995094
       4        0.000926980964    -0.002792094202    -0.002098111102
       5       -0.000034780254     0.000006801161    -0.000032514615
       6       -0.000034992064    -0.000005558793     0.000004507582
       7       -0.000020868309    -0.000003821013     0.000005879765
       8       -0.001369374102     0.001570474365     0.000739496228
       9       -0.000025421707     0.000123031254    -0.000075692223
      10        0.000016746992     0.000047173086     0.000073359534
      11       -0.000033861883     0.000005969850     0.000023609328
      12        0.000040565891     0.000022683954     0.000049462210
      13        0.000040275867    -0.000027324084     0.000003176948
      14       -0.000017372898    -0.000042516898    -0.000043447953

  **** Optimization is complete! (in 32 steps) ****
    Final optimized geometry and variables:
    Molecular point group: c1

    Geometry (in Angstrom), charge = 0, multiplicity = 1:

    O            0.909761632139     0.160096973575    -1.688002370480
    C            0.119413516670     0.488765864035    -0.881699495049
    C           -0.482135103402     1.863334970867    -0.792763648002
    O           -0.393833203200    -0.386283099774     0.006994485445
    H           -1.542805286466     1.790521388294    -1.000454751836
    H           -0.011177706395     2.522786644213    -1.503651497372
    H           -0.375285564425     2.258381587620     0.209793120531
    C            0.292333077271    -0.536508143625     1.237541017988
    C           -0.437092383686    -1.569440941067     2.063175133732
    H            0.322233746781     0.415987146816     1.758199055759
    H            1.310788554514    -0.848331819781     1.039459729864
    H            0.068526336570    -1.707095558938     3.011867533985
    H           -1.454734166928    -1.255182169533     2.256616076809
    H           -0.463216425982    -2.518215976619     1.543469774586

  Mulliken Charges: (a.u.)
   Center  Symbol    Alpha    Beta     Spin     Total
       1     O     4.16952  4.16952  0.00000 -0.33904
       2     C     2.80414  2.80414  0.00000  0.39172
       3     C     3.14276  3.14276  0.00000 -0.28552
       4     O     4.16980  4.16980  0.00000 -0.33961
       5     H     0.44381  0.44381  0.00000  0.11238
       6     H     0.43688  0.43688  0.00000  0.12623
       7     H     0.45066  0.45066  0.00000  0.09868
       8     C     2.97350  2.97350  0.00000  0.05300
       9     C     3.13434  3.13434  0.00000 -0.26868
      10     H     0.46684  0.46684  0.00000  0.06632
      11     H     0.45460  0.45460  0.00000  0.09080
      12     H     0.45659  0.45659  0.00000  0.08681
      13     H     0.45070  0.45070  0.00000  0.09860
      14     H     0.44586  0.44586  0.00000  0.10828

   Total alpha = 24.00000, Total beta = 24.00000, Total charge = -0.00000

*** Psi4 exiting successfully. Buy a developer a beer!
