                              Psi4 1.0.54 Driver

  ==> Input File <==

--------------------------------------------------------------------------
set {
	reference rhf
	basis cc-pvtz
}

set_num_threads( 4 )
memory 2 gb

molecule MOL {
0 1

H	 -0.161727	 2.764065	 0.003361
C	 -0.083353	 1.691622	 0.002143
N	 -1.217615	 1.028167	 0.007077
C	 1.161276	 1.093647	 -0.007432
C	 -1.166159	 -0.293737	 0.002193
H	 2.048291	 1.697005	 -0.014689
C	 1.232095	 -0.287083	 -0.010122
C	 0.033998	 -0.982874	 -0.007680
C	 -2.486703	 -1.013595	 0.001606
C	 2.552391	 -1.009951	 0.007858
H	 0.032032	 -2.056065	 -0.015569
H	 -3.056961	 -0.739187	 -0.877257
H	 -2.358485	 -2.087502	 0.012127
H	 -3.066456	 -0.722293	 0.868470
H	 2.505198	 -1.924081	 -0.569481
H	 3.343748	 -0.391433	 -0.393612
H	 2.821321	 -1.275579	 1.024515

	symmetry c1
}
ee,wfn = energy('scf', return_wfn=True)
oeprop( wfn, 'DIPOLE', 'QUADRUPOLE', 'MULLIKEN_CHARGES')
oeprop( wfn, 'GRID_ESP')
f=open( 'psi4out.xyz', 'w' )
f.write( "17  " )
f.write( str(ee) + "\n" )
f.write( MOL.save_string_xyz() )
f.close()
--------------------------------------------------------------------------

    Molecular point group: c1

    Geometry (in Angstrom), charge = 0, multiplicity = 1:

       Center              X                  Y                   Z               Mass
    ------------   -----------------  -----------------  -----------------  -----------------
           H         -0.161686234386     2.764048894094     0.003360504550     1.007825032070
           C         -0.083312234386     1.691605894094     0.002142504550    12.000000000000
           N         -1.217574234386     1.028150894094     0.007076504550    14.003074004780
           C          1.161316765614     1.093630894094    -0.007432495450    12.000000000000
           C         -1.166118234386    -0.293753105906     0.002192504550    12.000000000000
           H          2.048331765614     1.696988894094    -0.014689495450     1.007825032070
           C          1.232135765614    -0.287099105906    -0.010122495450    12.000000000000
           C          0.034038765614    -0.982890105906    -0.007680495450    12.000000000000
           C         -2.486662234386    -1.013611105906     0.001605504550    12.000000000000
           C          2.552431765614    -1.009967105906     0.007857504550    12.000000000000
           H          0.032072765614    -2.056081105906    -0.015569495450     1.007825032070
           H         -3.056920234386    -0.739203105906    -0.877257495450     1.007825032070
           H         -2.358444234386    -2.087518105906     0.012126504550     1.007825032070
           H         -3.066415234386    -0.722309105906     0.868469504550     1.007825032070
           H          2.505238765614    -1.924097105906    -0.569481495450     1.007825032070
           H          3.343788765614    -0.391449105906    -0.393612495450     1.007825032070
           H          2.821361765614    -1.275595105906     1.024514504550     1.007825032070

  Charge       = 0
  Multiplicity = 1
  Basis Set: CC-PVTZ
  Basis Set:

    Orbital Energies (a.u.)
    -----------------------

    Doubly Occupied:

       1A    -15.542888     2A    -11.269406     3A    -11.261083
       4A    -11.255855     5A    -11.229379     6A    -11.220866
       7A    -11.220501     8A    -11.214139     9A     -1.262142
      10A     -1.106944    11A     -1.054463    12A     -0.970141
      13A     -0.947482    14A     -0.847106    15A     -0.797502
      16A     -0.684794    17A     -0.677620    18A     -0.632786
      19A     -0.595440    20A     -0.576821    21A     -0.574763
      22A     -0.563374    23A     -0.549276    24A     -0.530269
      25A     -0.510671    26A     -0.498172    27A     -0.404322
      28A     -0.366299    29A     -0.334340

  @DF-RHF Final Energy:  -324.88355136334462

   => Energetics <=

    Nuclear Repulsion Energy =            347.7301758746068572
    One-Electron Energy =               -1127.8297862925539903
    Two-Electron Energy =                 455.2160590546022831
    DFT Exchange-Correlation Energy =       0.0000000000000000
    Empirical Dispersion Energy =           0.0000000000000000
    PCM Polarization Energy =               0.0000000000000000
    EFP Energy =                            0.0000000000000000
    Total Energy =                       -324.8835513633448500

  Mulliken Charges: (a.u.)
   Center  Symbol    Alpha    Beta     Spin     Total
       1     H     0.42138  0.42138  0.00000  0.15723
       2     C     3.05146  3.05146  0.00000 -0.10292
       3     N     3.60707  3.60707  0.00000 -0.21414
       4     C     3.08865  3.08865  0.00000 -0.17729
       5     C     2.93797  2.93797  0.00000  0.12405
       6     H     0.41632  0.41632  0.00000  0.16735
       7     C     2.96877  2.96877  0.00000  0.06245
       8     C     3.12024  3.12024  0.00000 -0.24047
       9     C     3.13512  3.13512  0.00000 -0.27024
      10     C     3.14677  3.14677  0.00000 -0.29354
      11     H     0.41917  0.41917  0.00000  0.16167
      12     H     0.44585  0.44585  0.00000  0.10829
      13     H     0.45518  0.45518  0.00000  0.08965
      14     H     0.44557  0.44557  0.00000  0.10885
      15     H     0.44757  0.44757  0.00000  0.10486
      16     H     0.44817  0.44817  0.00000  0.10366
      17     H     0.44473  0.44473  0.00000  0.11053

   Total alpha = 29.00000, Total beta = 29.00000, Total charge =  0.00000

*** Psi4 exiting successfully. Buy a developer a beer!
