  ==> Input File <==

--------------------------------------------------------------------------
set {
	reference rhf
	basis 6-31G*
}

set_num_threads( 4 )
memory 2 gb

molecule MOL {
0 1

O	 1.760332	 1.194396	 -0.495224
C	 1.705091	 0.115954	 0.001797
C	 0.502571	 -0.467649	 0.702667
O	 2.721346	 -0.737485	 -0.000216
C	 -0.697930	 0.473404	 0.732005
H	 0.258350	 -1.402049	 0.204704
H	 0.813315	 -0.740918	 1.707397
C	 -1.901366	 -0.143127	 1.446632
H	 -0.968977	 0.739028	 -0.284935
H	 -0.413869	 1.400354	 1.220249
C	 -3.115066	 0.787116	 1.484562
H	 -2.179083	 -1.074095	 0.954525
H	 -1.622515	 -0.409492	 2.465050
C	 -4.316786	 0.171021	 2.199786
H	 -3.396483	 1.052095	 0.467836
H	 -2.839472	 1.717197	 1.976634
H	 -4.638305	 -0.743788	 1.709924
H	 -5.160403	 0.854138	 2.210356
H	 -4.076692	 -0.073837	 3.230664
C	 4.024888	 -0.184556	 -0.001949
H	 4.179030	 0.422472	 -0.882452
H	 4.701782	 -1.024608	 -0.003642
H	 4.181981	 0.421185	 0.878906

	symmetry c1
}
set optking {
	frozen_dihedral = ("
		1 2 4 20
	")
}

ee = optimize('scf')
oeprop('DIPOLE', 'QUADRUPOLE', 'MULLIKEN_CHARGES')
f=open( 'psi4out.xyz', 'w' )
f.write( "23  " )
f.write( str(ee) + "\n" )
f.write( MOL.save_string_xyz() )
f.close()
--------------------------------------------------------------------------

    Molecular point group: c1
  Charge       = 0
  Multiplicity = 1
  Basis Set: 6-31G*
  Basis Set:
  @DF-RHF Final Energy:  -422.97108501775557
    Total Energy =                       -422.9710850177553993
    Molecular point group: c1
  Basis Set: 6-31G*
  Basis Set:
  Basis Set: 6-31G*
  Basis Set:
  @DF-RHF Final Energy:  -422.96763106280622
    Total Energy =                       -422.9676310628060492
  Basis Set: 6-31G*
  Basis Set:
  Basis Set: 6-31G*
  Basis Set:
  @DF-RHF Final Energy:  -422.97147987716767
    Total Energy =                       -422.9714798771678943
  Basis Set: 6-31G*
  Basis Set:
  Basis Set: 6-31G*
  Basis Set:
  @DF-RHF Final Energy:  -422.97155025114336
    Total Energy =                       -422.9715502511430714
  Basis Set: 6-31G*
  Basis Set:
  @DF-RHF Final Energy:  -422.97156109512343
    Total Energy =                       -422.9715610951229792
  @DF-RHF Final Energy:  -422.97156414923222
    Total Energy =                       -422.9715641492322220
  Basis Set: 6-31G*
  Basis Set:
  @DF-RHF Final Energy:  -422.97156544427060
    Total Energy =                       -422.9715654442711639
  Basis Set: 6-31G*
  Basis Set:
  Basis Set: 6-31G*
  Basis Set:
  @DF-RHF Final Energy:  -422.97153749399985
    Total Energy =                       -422.9715374940002448
  Basis Set: 6-31G*
  Basis Set:
  Basis Set: 6-31G*
  Basis Set:
  @DF-RHF Final Energy:  -422.97156547203150
    Total Energy =                       -422.9715654720317843
  Basis Set: 6-31G*
  Basis Set:
  Charge       = 0
  Multiplicity = 1
  Basis Set: 6-31G*
  Basis Set:

    Orbital Energies (a.u.)
    -----------------------

    Doubly Occupied:

       1A    -20.599163     2A    -20.547796     3A    -11.372946
       4A    -11.282989     5A    -11.235851     6A    -11.219459
       7A    -11.218092     8A    -11.216617     9A    -11.209773
      10A     -1.466223    11A     -1.363559    12A     -1.093264
      13A     -1.043179    14A     -0.986007    15A     -0.933421
      16A     -0.844670    17A     -0.795269    18A     -0.766583
      19A     -0.696299    20A     -0.681575    21A     -0.671674
      22A     -0.651180    23A     -0.609891    24A     -0.601159
      25A     -0.574011    26A     -0.563949    27A     -0.553404
      28A     -0.527753    29A     -0.516484    30A     -0.507820
      31A     -0.484709    32A     -0.470053    33A     -0.466402
      34A     -0.463417    35A     -0.453508    36A     -0.433885

  @DF-RHF Final Energy:  -422.97156578382277

   => Energetics <=

    Nuclear Repulsion Energy =            451.8441574058372794
    One-Electron Energy =               -1471.3873747518298387
    Two-Electron Energy =                 596.5716515621695635
    DFT Exchange-Correlation Energy =       0.0000000000000000
    Empirical Dispersion Energy =           0.0000000000000000
    PCM Polarization Energy =               0.0000000000000000
    EFP Energy =                            0.0000000000000000
    Total Energy =                       -422.9715657838230527
    Molecular point group: c1
  Basis Set: 6-31G*
  Basis Set:

  -Total Gradient:
     Atom            X                  Y                   Z
    ------   -----------------  -----------------  -----------------
       1       -0.003417830426    -0.002866836261    -0.007585418500
       2        0.005276066545     0.004046609066     0.014633125022
       3       -0.000006017643    -0.000024197447    -0.000043609726
       4       -0.002310002994    -0.000720604457    -0.013941299610
       5        0.000001108242    -0.000013991165     0.000010352841
       6       -0.000009286120     0.000021947324     0.000008272064
       7        0.000009752135    -0.000018133733     0.000018679797
       8       -0.000004310836     0.000000744946    -0.000006883814
       9        0.000000098937     0.000000561890    -0.000013679139
      10       -0.000006768070    -0.000006615232    -0.000006159952
      11        0.000010101443     0.000011389915     0.000027994620
      12       -0.000005847288    -0.000001390603     0.000002701092
      13        0.000005835121     0.000001282984    -0.000002924701
      14       -0.000005434967    -0.000005949506    -0.000013612946
      15        0.000004303429     0.000002226615     0.000004420669
      16       -0.000000815620     0.000002403896     0.000006107443
      17        0.000000867850    -0.000005821150     0.000004351644
      18       -0.000002595037    -0.000002943775    -0.000006161421
      19        0.000000355933     0.000007323242    -0.000001666629
      20        0.000437810310    -0.000458418632     0.006968104462
      21        0.000009820790     0.000020441789    -0.000019241314
      22        0.000005551618    -0.000000758044    -0.000014076259
      23        0.000007236643     0.000010728339    -0.000029375644

  **** Optimization is complete! (in 10 steps) ****
    Final optimized geometry and variables:
    Molecular point group: c1

    Geometry (in Angstrom), charge = 0, multiplicity = 1:

    O            1.685003667195     1.125245031621    -1.026083946853
    C            1.611965984498     0.022718637331    -0.591695636119
    C            0.400584940863    -0.575167118327     0.079724686529
    O            2.590010742893    -0.874460482197    -0.716251795868
    C           -0.815540601741     0.345714806659     0.076635704147
    H            0.186397691651    -1.517926952857    -0.415377069081
    H            0.692710368652    -0.835875376099     1.094389325643
    C           -2.022749566996    -0.283433391299     0.773671519125
    H           -1.071053764490     0.596140529052    -0.948533723864
    H           -0.556237841627     1.282139642859     0.560141494037
    C           -3.251159862150     0.628017225356     0.780429965727
    H           -2.276568076099    -1.222848420372     0.284858136246
    H           -1.759186451298    -0.536475076729     1.799628018402
    C           -4.457644660885    -0.001965937221     1.475278034626
    H           -3.515778199039     0.881629588700    -0.243639645007
    H           -3.000141214501     1.565597369256     1.271382690468
    H           -4.753863764345    -0.925813855287     0.986367425273
    H           -5.312248758599     0.667270556756     1.462448406857
    H           -4.235557392232    -0.234664085410     2.512984944560
    C            3.915292365386    -0.378742211530    -0.775920227625
    H            4.071518551629     0.200803255283    -1.673832027780
    H            4.557820102258    -1.245412765343    -0.775457931050
    H            4.125242837335     0.236971270841     0.088681027852

  Mulliken Charges: (a.u.)
   Center  Symbol    Alpha    Beta     Spin     Total
       1     O     4.27957  4.27957  0.00000 -0.55913
       2     C     2.60458  2.60458  0.00000  0.79085
       3     C     3.21006  3.21006  0.00000 -0.42012
       4     O     4.30988  4.30988  0.00000 -0.61977
       5     C     3.15272  3.15272  0.00000 -0.30545
       6     H     0.39899  0.39899  0.00000  0.20202
       7     H     0.40294  0.40294  0.00000  0.19411
       8     C     3.15327  3.15327  0.00000 -0.30653
       9     H     0.41220  0.41220  0.00000  0.17560
      10     H     0.41111  0.41111  0.00000  0.17777
      11     C     3.15156  3.15156  0.00000 -0.30312
      12     H     0.42374  0.42374  0.00000  0.15251
      13     H     0.42430  0.42430  0.00000  0.15140
      14     C     3.23959  3.23959  0.00000 -0.47918
      15     H     0.42123  0.42123  0.00000  0.15753
      16     H     0.42137  0.42137  0.00000  0.15727
      17     H     0.42173  0.42173  0.00000  0.15653
      18     H     0.41844  0.41844  0.00000  0.16312
      19     H     0.42191  0.42191  0.00000  0.15619
      20     C     3.09327  3.09327  0.00000 -0.18654
      21     H     0.40492  0.40492  0.00000  0.19015
      22     H     0.40742  0.40742  0.00000  0.18516
      23     H     0.41519  0.41519  0.00000  0.16961

   Total alpha = 36.00000, Total beta = 36.00000, Total charge =  0.00000
