                              Psi4 1.0.54 Driver

  ==> Input File <==

--------------------------------------------------------------------------
set {
	reference rhf
	basis cc-pvtz
}

set_num_threads( 4 )
memory 2 gb

molecule MOL {
0 1

O	 3.219313	 0.959291	 -0.614106
C	 2.698710	 0.058177	 -0.050237
C	 1.246364	 -0.005813	 0.348416
O	 3.344101	 -1.038700	 0.312317
C	 0.453207	 1.232821	 -0.049003
H	 0.839270	 -0.907818	 -0.092281
H	 1.216683	 -0.160521	 1.422434
C	 -0.998367	 1.217982	 0.432195
H	 0.481498	 1.345443	 -1.127236
H	 0.951413	 2.105557	 0.354893
C	 -1.882951	 0.151251	 -0.211235
H	 -1.429490	 2.193659	 0.228843
H	 -1.019755	 1.099323	 1.513279
C	 -1.342984	 -0.343207	 -1.550539
H	 -1.977837	 -0.691216	 0.470027
H	 -2.886963	 0.537707	 -0.360057
C	 -2.221865	 -1.404957	 -2.205541
H	 -0.342797	 -0.745209	 -1.407851
H	 -1.236591	 0.500579	 -2.228456
C	 -1.674954	 -1.895176	 -3.542085
H	 -2.328931	 -2.248821	 -1.529411
H	 -3.221187	 -1.003790	 -2.351408
H	 -2.321804	 -2.646919	 -3.979635
H	 -0.690022	 -2.334664	 -3.424316
H	 -1.588405	 -1.079599	 -4.252403
C	 4.720529	 -1.114346	 0.001449
H	 4.874321	 -1.055557	 -1.065852
H	 5.057824	 -2.067950	 0.373977
H	 5.264321	 -0.313596	 0.480350

	symmetry c1
}
set optking {
	frozen_dihedral = ("
		15 11 8 5
	")
}

ee,wfn = optimize('scf', return_wfn=True)
oeprop( wfn, 'DIPOLE', 'QUADRUPOLE', 'MULLIKEN_CHARGES')
f=open( 'psi4out.xyz', 'w' )
f.write( "29  " )
f.write( str(ee) + "\n" )
f.write( MOL.save_string_xyz() )
f.close()
--------------------------------------------------------------------------

    Molecular point group: c1
  Charge       = 0
  Multiplicity = 1
  Basis Set: CC-PVTZ
  Basis Set:
  @DF-RHF Final Energy:  -501.21105562116622
    Total Energy =                       -501.2110556211672474
    Molecular point group: c1
  Basis Set: CC-PVTZ
  Basis Set:
  Basis Set: CC-PVTZ
  Basis Set:
  @DF-RHF Final Energy:  -501.21635649544510
    Total Energy =                       -501.2163564954443018
  Basis Set: CC-PVTZ
  Basis Set:
  Basis Set: CC-PVTZ
  Basis Set:
  @DF-RHF Final Energy:  -501.21726678872517
    Total Energy =                       -501.2172667887243733
  Basis Set: CC-PVTZ
  Basis Set:
  Basis Set: CC-PVTZ
  Basis Set:
  @DF-RHF Final Energy:  -501.21716156630282
    Total Energy =                       -501.2171615663035027
  Basis Set: CC-PVTZ
  Basis Set:
  @DF-RHF Final Energy:  -501.21708744050750
    Total Energy =                       -501.2170874405071572
  Basis Set: CC-PVTZ
  Basis Set:
  @DF-RHF Final Energy:  -501.21767210234543
    Total Energy =                       -501.2176721023454320
  Basis Set: CC-PVTZ
  Basis Set:
  Basis Set: CC-PVTZ
  Basis Set:
  @DF-RHF Final Energy:  -501.21767815398994
    Total Energy =                       -501.2176781539899366
  Basis Set: CC-PVTZ
  Basis Set:
  Basis Set: CC-PVTZ
  Basis Set:
  @DF-RHF Final Energy:  -501.21767953405026
    Total Energy =                       -501.2176795340494664
  Basis Set: CC-PVTZ
  Basis Set:
  Charge       = 0
  Multiplicity = 1
  Basis Set: CC-PVTZ
  Basis Set:

    Orbital Energies (a.u.)
    -----------------------

    Doubly Occupied:

       1A    -20.595915     2A    -20.533748     3A    -11.363982
       4A    -11.278188     5A    -11.232331     6A    -11.216308
       7A    -11.215701     8A    -11.214229     9A    -11.214026
      10A    -11.213107    11A    -11.206971    12A     -1.471737
      13A     -1.365331    14A     -1.098061    15A     -1.066123
      16A     -1.018898    17A     -0.976594    18A     -0.931038
      19A     -0.868002    20A     -0.809369    21A     -0.779496
      22A     -0.760074    23A     -0.702853    24A     -0.685655
      25A     -0.675649    26A     -0.647943    27A     -0.635073
      28A     -0.603714    29A     -0.595434    30A     -0.581118
      31A     -0.565616    32A     -0.552638    33A     -0.540872
      34A     -0.527641    35A     -0.523132    36A     -0.507413
      37A     -0.493971    38A     -0.481309    39A     -0.472435
      40A     -0.460357    41A     -0.457089    42A     -0.452331
      43A     -0.443465    44A     -0.437340

  @DF-RHF Final Energy:  -501.21767974340332

   => Energetics <=

    Nuclear Repulsion Energy =            629.7651472365748759
    One-Electron Energy =               -1931.0211138462727831
    Two-Electron Energy =                 800.0382868662950386
    DFT Exchange-Correlation Energy =       0.0000000000000000
    Empirical Dispersion Energy =           0.0000000000000000
    PCM Polarization Energy =               0.0000000000000000
    EFP Energy =                            0.0000000000000000
    Total Energy =                       -501.2176797434028686
    Molecular point group: c1
  Basis Set: CC-PVTZ
  Basis Set:

  -Total Gradient:
     Atom            X                  Y                   Z
    ------   -----------------  -----------------  -----------------
       1       -0.000064229980     0.000008304087     0.000032301018
       2        0.000041344116    -0.000003374319    -0.000036767187
       3        0.000001065278    -0.000026680349    -0.000013859251
       4       -0.000019802823    -0.000018708935     0.000009426365
       5       -0.001275628523     0.003669766168    -0.004025663905
       6        0.000023049993     0.000024818282     0.000013720143
       7        0.000010830371     0.000013343725    -0.000010300055
       8        0.000443122798    -0.004577329790     0.006624437810
       9       -0.000008570758    -0.000005913900    -0.000008188746
      10       -0.000000687129    -0.000012523380    -0.000010523394
      11        0.006916981347    -0.002224346173    -0.005564428295
      12        0.000011543533     0.000000459852     0.000010920858
      13        0.000012732491    -0.000015852174    -0.000008827334
      14       -0.000010246435     0.000022657839     0.000012328789
      15       -0.006075858718     0.003154024523     0.002991321546
      16       -0.000004002114    -0.000007809015    -0.000003426387
      17        0.000010493858     0.000005186446    -0.000010052267
      18        0.000012342278    -0.000000454937    -0.000001776770
      19       -0.000011862368    -0.000007273114    -0.000005689054
      20        0.000003488150    -0.000010889924     0.000001965742
      21       -0.000000874685     0.000004138955     0.000000622555
      22        0.000004906268     0.000002494817     0.000001705588
      23        0.000002910642    -0.000001490404    -0.000002367981
      24       -0.000001696262     0.000000082697    -0.000003867299
      25       -0.000001313514    -0.000001634213     0.000003409452
      26        0.000012081420     0.000021159926    -0.000008917048
      27       -0.000002697432     0.000002586917     0.000023903453
      28       -0.000017426841     0.000007946803    -0.000000111957
      29       -0.000011994944    -0.000022690408    -0.000011296395

  **** Optimization is complete! (in 9 steps) ****
    Final optimized geometry and variables:
    Molecular point group: c1

    Geometry (in Angstrom), charge = 0, multiplicity = 1:

    O            2.565308773386     1.134646139304     0.045948525484
    C            2.070252667697     0.290103314841     0.711421890534
    C            0.620550583764     0.234635589205     1.119789887364
    O            2.745961913722    -0.740018508638     1.194519539976
    C           -0.207491115492     1.403313327600     0.598138778190
    H            0.232059613000    -0.720447615103     0.785869529675
    H            0.595563891226     0.197321861945     2.204126271735
    C           -1.680476971722     1.334909851337     1.009370450264
    H           -0.114432910833     1.465348474876    -0.477236438683
    H            0.216319584863     2.322084445198     0.985357680459
    C           -2.567473680680     0.264668919835     0.333692685671
    H           -2.106763552095     2.307469648870     0.784693530118
    H           -1.752652967045     1.224811288665     2.086830570771
    C           -2.183817239248    -0.181369810573    -1.074091875312
    H           -2.687289110464    -0.590934870130     0.992839629498
    H           -3.570324873135     0.680883442648     0.280393073074
    C           -3.193862583693    -1.156133746669    -1.674768534555
    H           -1.204452348547    -0.648472695495    -1.076770044902
    H           -2.105241061937     0.689410440000    -1.720099662436
    C           -2.823770604052    -1.609527372116    -3.083052864063
    H           -3.281707029576    -2.025129999169    -1.028256706578
    H           -4.175279959763    -0.690601047352    -1.692850603191
    H           -3.560404644014    -2.298623781063    -3.479918437546
    H           -1.862235592623    -2.112048982838    -3.093193913751
    H           -2.760838817325    -0.765733074386    -3.762082485752
    C            4.123711018034    -0.813157148053     0.889054180660
    H            4.275165172563    -0.872309793809    -0.178544081580
    H            4.487347925574    -1.708497454339     1.366579402104
    H            4.645639644581     0.051460084959     1.271427178894

  Mulliken Charges: (a.u.)
   Center  Symbol    Alpha    Beta     Spin     Total
       1     O     4.19686  4.19686  0.00000 -0.39372
       2     C     2.80435  2.80435  0.00000  0.39131
       3     C     3.10346  3.10346  0.00000 -0.20691
       4     O     4.14748  4.14748  0.00000 -0.29496
       5     C     3.10192  3.10192  0.00000 -0.20383
       6     H     0.43941  0.43941  0.00000  0.12118
       7     H     0.43658  0.43658  0.00000  0.12684
       8     C     3.10772  3.10772  0.00000 -0.21543
       9     H     0.44137  0.44137  0.00000  0.11726
      10     H     0.43646  0.43646  0.00000  0.12708
      11     C     3.10671  3.10671  0.00000 -0.21342
      12     H     0.44474  0.44474  0.00000  0.11052
      13     H     0.44861  0.44861  0.00000  0.10277
      14     C     3.09036  3.09036  0.00000 -0.18072
      15     H     0.44857  0.44857  0.00000  0.10286
      16     H     0.44809  0.44809  0.00000  0.10383
      17     C     3.08547  3.08547  0.00000 -0.17093
      18     H     0.45294  0.45294  0.00000  0.09412
      19     H     0.45104  0.45104  0.00000  0.09792
      20     C     3.15002  3.15002  0.00000 -0.30005
      21     H     0.45478  0.45478  0.00000  0.09045
      22     H     0.45311  0.45311  0.00000  0.09377
      23     H     0.44816  0.44816  0.00000  0.10368
      24     H     0.45535  0.45535  0.00000  0.08931
      25     H     0.45459  0.45459  0.00000  0.09083
      26     C     3.03792  3.03792  0.00000 -0.07584
      27     H     0.45435  0.45435  0.00000  0.09129
      28     H     0.44533  0.44533  0.00000  0.10934
      29     H     0.45427  0.45427  0.00000  0.09146

   Total alpha = 44.00000, Total beta = 44.00000, Total charge =  0.00000

*** Psi4 exiting successfully. Buy a developer a beer!
