  ==> Input File <==

--------------------------------------------------------------------------
set {
	reference rhf
	basis cc-pvtz
}

set_num_threads( 4 )
memory 2 gb

molecule MOL {
0 1

H	 -3.239814	 2.015200	 -0.580845
O	 -2.543503	 1.428647	 -0.811717
C	 -2.302264	 0.528872	 0.237390
C	 -1.175688	 -0.398187	 -0.171891
H	 -2.029878	 1.065307	 1.143931
H	 -3.197297	 -0.049925	 0.455884
C	 0.196029	 0.106276	 0.266738
H	 -1.201873	 -0.515469	 -1.250677
H	 -1.365975	 -1.378728	 0.252664
C	 1.330220	 -0.826136	 -0.155230
H	 0.359542	 1.097229	 -0.145561
H	 0.212134	 0.218135	 1.348778
C	 2.719700	 -0.407669	 0.328325
H	 1.339388	 -0.911200	 -1.239363
H	 1.119001	 -1.821953	 0.224128
C	 3.241564	 0.893452	 -0.276737
H	 3.418299	 -1.204729	 0.093035
H	 2.711776	 -0.323368	 1.411960
H	 3.254204	 0.841071	 -1.360784
H	 2.634460	 1.745075	 0.005842
H	 4.254264	 1.092401	 0.054971

	symmetry c1
}
set optking {
	frozen_dihedral = ("
		2 3 4 8
	")
}

ee = optimize('scf')
oeprop('DIPOLE', 'QUADRUPOLE', 'MULLIKEN_CHARGES')
f=open( 'psi4out.xyz', 'w' )
f.write( "21  " )
f.write( str(ee) + "\n" )
f.write( MOL.save_string_xyz() )
f.close()
--------------------------------------------------------------------------

    Molecular point group: c1
  Charge       = 0
  Multiplicity = 1
  Basis Set: CC-PVTZ
  Basis Set:
  @DF-RHF Final Energy:  -310.32990677409754
    Total Energy =                       -310.3299067740978785
    Molecular point group: c1
  Basis Set: CC-PVTZ
  Basis Set:
  Basis Set: CC-PVTZ
  Basis Set:
  @DF-RHF Final Energy:  -310.33029761708826
    Total Energy =                       -310.3302976170876946
  Basis Set: CC-PVTZ
  Basis Set:
  Basis Set: CC-PVTZ
  Basis Set:
  @DF-RHF Final Energy:  -310.33038735112439
    Total Energy =                       -310.3303873511243864
  Basis Set: CC-PVTZ
  Basis Set:
  Basis Set: CC-PVTZ
  Basis Set:
  @DF-RHF Final Energy:  -310.33039157981483
    Total Energy =                       -310.3303915798151138
  Basis Set: CC-PVTZ
  Basis Set:
  Charge       = 0
  Multiplicity = 1
  Basis Set: CC-PVTZ
  Basis Set:

    Orbital Energies (a.u.)
    -----------------------

    Doubly Occupied:

       1A    -20.545960     2A    -11.265475     3A    -11.210622
       4A    -11.209537     5A    -11.208338     6A    -11.207476
       7A    -11.202991     8A     -1.363053     9A     -1.083769
      10A     -1.031417    11A     -0.953849    12A     -0.875916
      13A     -0.804856    14A     -0.775612    15A     -0.707925
      16A     -0.640244    17A     -0.628316    18A     -0.602259
      19A     -0.592325    20A     -0.563883    21A     -0.541435
      22A     -0.519389    23A     -0.505526    24A     -0.493716
      25A     -0.476981    26A     -0.459394    27A     -0.456259
      28A     -0.446603    29A     -0.425699

  @DF-RHF Final Energy:  -310.33039125449568

   => Energetics <=

    Nuclear Repulsion Energy =            316.0738724650877884
    One-Electron Energy =               -1047.2108811304281062
    Two-Electron Energy =                 420.8066174108448649
    DFT Exchange-Correlation Energy =       0.0000000000000000
    Empirical Dispersion Energy =           0.0000000000000000
    PCM Polarization Energy =               0.0000000000000000
    EFP Energy =                            0.0000000000000000
    Total Energy =                       -310.3303912544954528
    Molecular point group: c1
  Basis Set: CC-PVTZ
  Basis Set:

  -Total Gradient:
     Atom            X                  Y                   Z
    ------   -----------------  -----------------  -----------------
       1       -0.000029235663     0.000099079183    -0.000059654303
       2       -0.002446773421    -0.002227975940    -0.001358894413
       3        0.003829954168     0.003525022315     0.001831716329
       4       -0.004282648911    -0.005213869837    -0.000027195505
       5       -0.000020795960     0.000051435081    -0.000056737079
       6       -0.000030593947     0.000018535436     0.000004531735
       7        0.000001112354     0.000057124573     0.000051474420
       8        0.002920983523     0.003600989324    -0.000379193195
       9        0.000004565144     0.000080965410     0.000004364074
      10       -0.000017398927     0.000042402731    -0.000038469248
      11       -0.000036337378    -0.000059511360    -0.000000298347
      12        0.000002968930     0.000021758105     0.000023517054
      13       -0.000004976359     0.000003751954     0.000040334286
      14        0.000006690408     0.000008186608    -0.000004975575
      15        0.000015470531     0.000001552042    -0.000024804940
      16        0.000038055707     0.000007684949    -0.000008947613
      17        0.000011179830    -0.000006425072     0.000025615547
      18       -0.000011962181     0.000015761867     0.000000745638
      19       -0.000006936124     0.000008876951    -0.000014599648
      20        0.000055824653    -0.000024088014     0.000006309386
      21        0.000000853620    -0.000011256306    -0.000014838605

  **** Optimization is complete! (in 5 steps) ****
    Final optimized geometry and variables:
    Molecular point group: c1

    Geometry (in Angstrom), charge = 0, multiplicity = 1:

    H           -3.285669418350     1.853943354191    -0.512781513027
    O           -2.659633997097     1.193757519466    -0.746559876740
    C           -2.471083985004     0.303565119683     0.325149554004
    C           -1.340120712072    -0.652879565311    -0.030537433120
    H           -2.238078238612     0.845313855040     1.238362470384
    H           -3.387578639619    -0.253749343254     0.500615935454
    C            0.037309839321    -0.138509250907     0.388394402655
    H           -1.345453287582    -0.772245892379    -1.108142608645
    H           -1.523338863533    -1.623173552270     0.418470833422
    C            1.173932748233    -1.052354182717    -0.063886407116
    H            0.171876039722     0.857149882144    -0.019856188598
    H            0.069864254703    -0.037607739672     1.471301654859
    C            2.565799678053    -0.630424409896     0.410217808768
    H            1.170780394896    -1.117302141030    -1.149480920651
    H            0.977255279892    -2.057869743091     0.299249798949
    C            3.070177556766     0.682680820648    -0.183514192738
    H            3.268315232716    -1.418649608097     0.157048243773
    H            2.568955341602    -0.560184705702     1.494927544512
    H            3.070767287232     0.644279570481    -1.268128901168
    H            2.458422046867     1.524825717886     0.116207436175
    H            4.084892174828     0.885898243577     0.139574944660

  Mulliken Charges: (a.u.)
   Center  Symbol    Alpha    Beta     Spin     Total
       1     H     0.39529  0.39529  0.00000  0.20942
       2     O     4.19957  4.19957  0.00000 -0.39913
       3     C     2.97034  2.97034  0.00000  0.05931
       4     C     3.08981  3.08981  0.00000 -0.17961
       5     H     0.47475  0.47475  0.00000  0.05050
       6     H     0.46743  0.46743  0.00000  0.06513
       7     C     3.09578  3.09578  0.00000 -0.19156
       8     H     0.44948  0.44948  0.00000  0.10104
       9     H     0.45082  0.45082  0.00000  0.09836
      10     C     3.09592  3.09592  0.00000 -0.19184
      11     H     0.44681  0.44681  0.00000  0.10639
      12     H     0.45816  0.45816  0.00000  0.08369
      13     C     3.08994  3.08994  0.00000 -0.17989
      14     H     0.45267  0.45267  0.00000  0.09466
      15     H     0.45116  0.45116  0.00000  0.09769
      16     C     3.15163  3.15163  0.00000 -0.30327
      17     H     0.44909  0.44909  0.00000  0.10183
      18     H     0.45572  0.45572  0.00000  0.08857
      19     H     0.45454  0.45454  0.00000  0.09093
      20     H     0.45364  0.45364  0.00000  0.09271
      21     H     0.44746  0.44746  0.00000  0.10507

   Total alpha = 29.00000, Total beta = 29.00000, Total charge =  0.00000
