  ==> Input File <==

--------------------------------------------------------------------------
set {
	reference rhf
	basis 6-31G*
}

set_num_threads( 4 )
memory 2 gb

molecule MOL {
0 1

H	 -3.261111	 -0.295142	 1.469456
C	 -3.306842	 -0.277400	 0.373456
C	 -2.660244	 0.921717	 -0.272021
O	 -3.838538	 -1.161155	 -0.216482
C	 -1.219997	 0.642093	 -0.723411
H	 -3.282384	 1.241659	 -1.099843
H	 -2.654592	 1.719838	 0.469347
C	 -1.124566	 -0.371234	 -1.866810
H	 -0.768713	 1.579791	 -1.033813
H	 -0.636412	 0.292326	 0.126794
C	 0.315298	 -0.631456	 -2.313901
H	 -1.707649	 -0.010498	 -2.711637
H	 -1.581891	 -1.311781	 -1.565538
C	 0.405909	 -1.633132	 -3.468191
H	 0.770028	 0.312479	 -2.603623
H	 0.893398	 -1.003723	 -1.469151
C	 1.834491	 -1.988349	 -3.896028
H	 -0.139327	 -1.243771	 -4.326567
H	 -0.104111	 -2.548455	 -3.175316
C	 2.620615	 -0.829300	 -4.511035
H	 1.784389	 -2.797673	 -4.620205
H	 2.379640	 -2.381205	 -3.040225
H	 2.090838	 -0.405655	 -5.360228
H	 2.793238	 -0.031004	 -3.796963
H	 3.591165	 -1.166107	 -4.862590

	symmetry c1
}
set optking {
	frozen_dihedral = ("
		6 3 2 4
	")
}

ee = optimize('scf')
oeprop('DIPOLE', 'QUADRUPOLE', 'MULLIKEN_CHARGES')
f=open( 'psi4out.xyz', 'w' )
f.write( "25  " )
f.write( str(ee) + "\n" )
f.write( MOL.save_string_xyz() )
f.close()
--------------------------------------------------------------------------

    Molecular point group: c1
  Charge       = 0
  Multiplicity = 1
  Basis Set: 6-31G*
  Basis Set:
  @DF-RHF Final Energy:  -387.11999801935247
    Total Energy =                       -387.1199980193523515
    Molecular point group: c1
  Basis Set: 6-31G*
  Basis Set:
  Basis Set: 6-31G*
  Basis Set:
  @DF-RHF Final Energy:  -387.11878336337173
    Total Energy =                       -387.1187833633716764
  Basis Set: 6-31G*
  Basis Set:
  Basis Set: 6-31G*
  Basis Set:
  @DF-RHF Final Energy:  -387.12025924937780
    Total Energy =                       -387.1202592493777956
  Basis Set: 6-31G*
  Basis Set:
  Basis Set: 6-31G*
  Basis Set:
  @DF-RHF Final Energy:  -387.12031737148914
    Total Energy =                       -387.1203173714892500
  Basis Set: 6-31G*
  Basis Set:
  @DF-RHF Final Energy:  -387.12031494035222
    Total Energy =                       -387.1203149403518182
  Basis Set: 6-31G*
  Basis Set:
  @DF-RHF Final Energy:  -387.12033375861881
    Total Energy =                       -387.1203337586186990
  Basis Set: 6-31G*
  Basis Set:
  Basis Set: 6-31G*
  Basis Set:
  @DF-RHF Final Energy:  -387.12032688696877
    Total Energy =                       -387.1203268869692238
  Basis Set: 6-31G*
  Basis Set:
  Basis Set: 6-31G*
  Basis Set:
  @DF-RHF Final Energy:  -387.12033504681494
    Total Energy =                       -387.1203350468149438
  Basis Set: 6-31G*
  Basis Set:
  Charge       = 0
  Multiplicity = 1
  Basis Set: 6-31G*
  Basis Set:

    Orbital Energies (a.u.)
    -----------------------

    Doubly Occupied:

       1A    -20.563239     2A    -11.327193     3A    -11.235102
       4A    -11.234042     5A    -11.215484     6A    -11.214768
       7A    -11.214692     8A    -11.212735     9A    -11.208086
      10A     -1.403010    11A     -1.098441    12A     -1.065611
      13A     -1.010142    14A     -0.940746    15A     -0.873819
      16A     -0.815054    17A     -0.784066    18A     -0.775896
      19A     -0.675795    20A     -0.659710    21A     -0.630161
      22A     -0.616488    23A     -0.594064    24A     -0.587430
      25A     -0.576438    26A     -0.551018    27A     -0.536846
      28A     -0.515155    29A     -0.508197    30A     -0.494506
      31A     -0.486451    32A     -0.474503    33A     -0.460238
      34A     -0.455011    35A     -0.437957    36A     -0.407934

  @DF-RHF Final Energy:  -387.12033510009303

   => Energetics <=

    Nuclear Repulsion Energy =            442.3514334242667019
    One-Electron Energy =               -1401.2234782464670388
    Two-Electron Energy =                 571.7517097221079894
    DFT Exchange-Correlation Energy =       0.0000000000000000
    Empirical Dispersion Energy =           0.0000000000000000
    PCM Polarization Energy =               0.0000000000000000
    EFP Energy =                            0.0000000000000000
    Total Energy =                       -387.1203351000923476
    Molecular point group: c1
  Basis Set: 6-31G*
  Basis Set:

  -Total Gradient:
     Atom            X                  Y                   Z
    ------   -----------------  -----------------  -----------------
       1        0.000003342209     0.000004688411    -0.000000812702
       2       -0.002725436387     0.001617707250     0.000306001042
       3        0.001947819831    -0.001861445780    -0.001354113844
       4        0.001727850677    -0.000934795492    -0.000044261778
       5        0.000000082831     0.000006301370    -0.000004771919
       6       -0.000981322683     0.001173154060     0.001094008090
       7       -0.000002944959    -0.000006582442     0.000008729460
       8        0.000017245400     0.000010455723     0.000003830244
       9        0.000014242673    -0.000007914350    -0.000009541415
      10        0.000006412402    -0.000002386631    -0.000007670749
      11       -0.000002945076    -0.000006746317     0.000002843050
      12       -0.000000039468     0.000007957855     0.000004070979
      13       -0.000002966932    -0.000005554661     0.000006483972
      14       -0.000001632949     0.000009390545    -0.000004950201
      15       -0.000020698257    -0.000003241614     0.000003401056
      16        0.000008658310     0.000003655903    -0.000002195943
      17        0.000005390653    -0.000006476893     0.000014544274
      18        0.000003269930     0.000002835727    -0.000005272603
      19       -0.000005702025     0.000004719629    -0.000001019608
      20       -0.000000276993     0.000000267640    -0.000003504049
      21        0.000000553184     0.000001342392     0.000001807411
      22        0.000005151653    -0.000002220393    -0.000000001210
      23        0.000000467946     0.000000988566    -0.000001568245
      24        0.000004795924    -0.000005117209    -0.000006793539
      25       -0.000001317882    -0.000000983290     0.000000758225

  **** Optimization is complete! (in 9 steps) ****
    Final optimized geometry and variables:
    Molecular point group: c1

    Geometry (in Angstrom), charge = 0, multiplicity = 1:

    H           -2.445105590107     0.353738738660     3.408997298898
    C           -2.522015234997     0.340659644624     2.315793621618
    C           -1.906120504229     1.518328687040     1.598168378289
    O           -3.031513515634    -0.584423720791     1.769033306543
    C           -0.466631490478     1.227290639666     1.131528095780
    H           -2.537813542497     1.776572483700     0.754583760446
    H           -1.896434499032     2.367811679864     2.275507827617
    C           -0.371039385343     0.225527852687    -0.020985448590
    H           -0.019508484951     2.169537392183     0.827116913221
    H            0.121473990792     0.873929831919     1.976917078428
    C            1.073158367459    -0.032699960314    -0.456483495618
    H           -0.941032470547     0.605421336866    -0.866607700943
    H           -0.839614809950    -0.710946227160     0.263132838527
    C            1.170608382955    -1.018558327589    -1.623882029256
    H            1.538097086527     0.912132100112    -0.727271224820
    H            1.640000189697    -0.421969720278     0.388291485188
    C            2.601183215017    -1.386933266129    -2.033393580555
    H            0.645740871013    -0.608890576209    -2.485464245725
    H            0.642849644705    -1.930519702793    -1.353564573411
    C            3.414674778192    -0.228966629112    -2.614523874349
    H            2.552854985803    -2.183499750679    -2.771744783210
    H            3.125440725364    -1.801705858368    -1.174759260393
    H            2.908138671891     0.213907568636    -3.467990843203
    H            3.582381477619     0.556591343545    -1.885145966914
    H            4.387971594843    -0.572603013247    -2.951244212150

  Mulliken Charges: (a.u.)
   Center  Symbol    Alpha    Beta     Spin     Total
       1     H     0.42853  0.42853  0.00000  0.14293
       2     C     2.84174  2.84174  0.00000  0.31652
       3     C     3.20191  3.20191  0.00000 -0.40382
       4     O     4.23545  4.23545  0.00000 -0.47089
       5     C     3.16330  3.16330  0.00000 -0.32660
       6     H     0.40048  0.40048  0.00000  0.19904
       7     H     0.41426  0.41426  0.00000  0.17148
       8     C     3.15503  3.15503  0.00000 -0.31007
       9     H     0.41407  0.41407  0.00000  0.17185
      10     H     0.41913  0.41913  0.00000  0.16175
      11     C     3.15506  3.15506  0.00000 -0.31011
      12     H     0.42137  0.42137  0.00000  0.15727
      13     H     0.40622  0.40622  0.00000  0.18757
      14     C     3.15282  3.15282  0.00000 -0.30565
      15     H     0.42269  0.42269  0.00000  0.15461
      16     H     0.42448  0.42448  0.00000  0.15104
      17     C     3.15255  3.15255  0.00000 -0.30509
      18     H     0.42376  0.42376  0.00000  0.15248
      19     H     0.41972  0.41972  0.00000  0.16056
      20     C     3.24112  3.24112  0.00000 -0.48223
      21     H     0.42050  0.42050  0.00000  0.15900
      22     H     0.42348  0.42348  0.00000  0.15304
      23     H     0.42229  0.42229  0.00000  0.15542
      24     H     0.42078  0.42078  0.00000  0.15843
      25     H     0.41926  0.41926  0.00000  0.16148

   Total alpha = 36.00000, Total beta = 36.00000, Total charge = -0.00000
