  ==> Input File <==

--------------------------------------------------------------------------
set {
	reference rhf
	basis 6-31G*
}

set_num_threads( 4 )
memory 2 gb

molecule MOL {
0 1

H	 -2.499100	 -0.730091	 -0.745082
O	 -2.347518	 -0.290803	 0.079804
C	 -1.184022	 0.487508	 -0.006784
C	 0.062599	 -0.378592	 0.031606
H	 -1.176523	 1.099369	 -0.904519
H	 -1.187323	 1.153111	 0.844927
O	 1.171513	 0.459272	 -0.058250
H	 0.050699	 -1.089204	 -0.797170
H	 0.078739	 -0.954914	 0.954740
C	 0.880337	 1.816376	 0.054127
H	 0.425901	 2.047508	 1.015738
H	 1.811661	 2.358613	 -0.032579
H	 0.205930	 2.144468	 -0.734112

	symmetry c1
}
set optking {
	frozen_dihedral = ("
		10 7 4 8
	")
}

ee = optimize('scf')
oeprop('DIPOLE', 'QUADRUPOLE', 'MULLIKEN_CHARGES')
f=open( 'psi4out.xyz', 'w' )
f.write( "13  " )
f.write( str(ee) + "\n" )
f.write( MOL.save_string_xyz() )
f.close()
--------------------------------------------------------------------------

    Molecular point group: c1
  Charge       = 0
  Multiplicity = 1
  Basis Set: 6-31G*
  Basis Set:
  @DF-RHF Final Energy:  -267.92023894344442
    Total Energy =                       -267.9202389434441898
    Molecular point group: c1
  Basis Set: 6-31G*
  Basis Set:
  Basis Set: 6-31G*
  Basis Set:
  @DF-RHF Final Energy:  -267.92627635297021
    Total Energy =                       -267.9262763529702625
  Basis Set: 6-31G*
  Basis Set:
  Basis Set: 6-31G*
  Basis Set:
  @DF-RHF Final Energy:  -267.93383232237142
    Total Energy =                       -267.9338323223716998
  Basis Set: 6-31G*
  Basis Set:
  Basis Set: 6-31G*
  Basis Set:
  @DF-RHF Final Energy:  -267.93701085776456
    Total Energy =                       -267.9370108577645624
  Basis Set: 6-31G*
  Basis Set:
  @DF-RHF Final Energy:  -267.93767989543380
    Total Energy =                       -267.9376798954337460
  Basis Set: 6-31G*
  Basis Set:
  @DF-RHF Final Energy:  -267.93847415365701
    Total Energy =                       -267.9384741536570687
  Basis Set: 6-31G*
  Basis Set:
  Basis Set: 6-31G*
  Basis Set:
  @DF-RHF Final Energy:  -267.93863487725440
    Total Energy =                       -267.9386348772542874
  Basis Set: 6-31G*
  Basis Set:
  Basis Set: 6-31G*
  Basis Set:
  @DF-RHF Final Energy:  -267.93865221329452
    Total Energy =                       -267.9386522132946311
  Basis Set: 6-31G*
  Basis Set:
  Charge       = 0
  Multiplicity = 1
  Basis Set: 6-31G*
  Basis Set:

    Orbital Energies (a.u.)
    -----------------------

    Doubly Occupied:

       1A    -20.566878     2A    -20.555844     3A    -11.278470
       4A    -11.271926     5A    -11.271126     6A     -1.381054
       7A     -1.368699     8A     -1.013724     9A     -0.940032
      10A     -0.827982    11A     -0.714251    12A     -0.675408
      13A     -0.661178    14A     -0.634635    15A     -0.598324
      16A     -0.559900    17A     -0.551617    18A     -0.516137
      19A     -0.488763    20A     -0.430411    21A     -0.409551

  @DF-RHF Final Energy:  -267.93865332694133

   => Energetics <=

    Nuclear Repulsion Energy =            192.5744567182093192
    One-Electron Energy =                -747.5944014749416056
    Two-Electron Energy =                 287.0812914297909515
    DFT Exchange-Correlation Energy =       0.0000000000000000
    Empirical Dispersion Energy =           0.0000000000000000
    PCM Polarization Energy =               0.0000000000000000
    EFP Energy =                            0.0000000000000000
    Total Energy =                       -267.9386533269412780
    Molecular point group: c1
  Basis Set: 6-31G*
  Basis Set:

  -Total Gradient:
     Atom            X                  Y                   Z
    ------   -----------------  -----------------  -----------------
       1        0.000002199450     0.000011946447     0.000004357849
       2       -0.000019504884     0.000010912793     0.000030553500
       3       -0.000017862530    -0.000038515512    -0.000056185653
       4        0.001341126647    -0.001933374179     0.000588964833
       5        0.000000537241     0.000021394006     0.000008237400
       6       -0.000014281488    -0.000024279880    -0.000010471972
       7        0.000132948211     0.000104213769     0.002863823033
       8       -0.001189819087     0.001682364397    -0.001329817091
       9        0.000022330991     0.000000414191     0.000003984314
      10       -0.000275621168     0.000164970734    -0.002105547665
      11        0.000011175527     0.000013012566    -0.000000650728
      12       -0.000003211187    -0.000025587347    -0.000000627745
      13        0.000009982275     0.000012528017     0.000003379927

  **** Optimization is complete! (in 9 steps) ****
    Final optimized geometry and variables:
    Molecular point group: c1

    Geometry (in Angstrom), charge = 0, multiplicity = 1:

    H           -2.106909443630    -1.405874723055    -0.732857081851
    O           -2.055073438651    -0.909012382776     0.071896134979
    C           -1.019955861682     0.032853339537    -0.018797670699
    C            0.327058117248    -0.689657089716     0.001814870957
    H           -1.127126779976     0.640124431439    -0.913363980725
    H           -1.132762463199     0.682333355401     0.837586374099
    O            1.483894402166     0.102838749481    -0.064304538770
    H            0.351318007656    -1.356936215458    -0.855755791070
    H            0.366655717597    -1.298401405847     0.898764232464
    C            1.404946638989     1.490436898479     0.050924826159
    H            0.995333271952     1.805176017809     1.007340979231
    H            2.418726559494     1.859379711170    -0.020637043739
    H            0.821546731665     1.942832332883    -0.745703723050

  Mulliken Charges: (a.u.)
   Center  Symbol    Alpha    Beta     Spin     Total
       1     H     0.28032  0.28032  0.00000  0.43937
       2     O     4.36978  4.36978  0.00000 -0.73956
       3     C     3.01964  3.01964  0.00000 -0.03929
       4     C     2.98469  2.98469  0.00000  0.03062
       5     H     0.42469  0.42469  0.00000  0.15062
       6     H     0.41107  0.41107  0.00000  0.17785
       7     O     4.31616  4.31616  0.00000 -0.63231
       8     H     0.42952  0.42952  0.00000  0.14097
       9     H     0.41626  0.41626  0.00000  0.16747
      10     C     3.08210  3.08210  0.00000 -0.16419
      11     H     0.42788  0.42788  0.00000  0.14425
      12     H     0.40875  0.40875  0.00000  0.18251
      13     H     0.42915  0.42915  0.00000  0.14170

   Total alpha = 21.00000, Total beta = 21.00000, Total charge = -0.00000
