  ==> Input File <==

--------------------------------------------------------------------------
set {
	reference rhf
	basis cc-pvtz
}

set_num_threads( 4 )
memory 2 gb

molecule MOL {
0 1

H	 -2.734594	 -1.260281	 -0.315167
N	 -1.808259	 -1.145265	 0.036608
C	 -1.406373	 0.248755	 0.000024
H	 -1.198620	 -1.691635	 -0.534196
C	 0.001740	 0.408362	 0.525755
H	 -1.452912	 0.687158	 -0.996059
H	 -2.072809	 0.819026	 0.637757
O	 0.881195	 -0.248324	 -0.336237
H	 0.256269	 1.465628	 0.585564
H	 0.068964	 -0.015540	 1.525113
C	 2.208068	 -0.234417	 0.074171
H	 2.725499	 -1.027054	 -0.446768
H	 2.688377	 0.712084	 -0.164856
H	 2.295137	 -0.403407	 1.144883

	symmetry c1
}
set optking {
	frozen_dihedral = ("
		5 8 11 13
	")
}

ee = optimize('scf')
oeprop('DIPOLE', 'QUADRUPOLE', 'MULLIKEN_CHARGES')
f=open( 'psi4out.xyz', 'w' )
f.write( "14  " )
f.write( str(ee) + "\n" )
f.write( MOL.save_string_xyz() )
f.close()
--------------------------------------------------------------------------

    Molecular point group: c1
  Charge       = 0
  Multiplicity = 1
  Basis Set: CC-PVTZ
  Basis Set:
  @DF-RHF Final Energy:  -248.22531480088253
    Total Energy =                       -248.2253148008824155
    Molecular point group: c1
  Basis Set: CC-PVTZ
  Basis Set:
  Basis Set: CC-PVTZ
  Basis Set:
  @DF-RHF Final Energy:  -248.22535698671118
    Total Energy =                       -248.2253569867111764
  Basis Set: CC-PVTZ
  Basis Set:
  Basis Set: CC-PVTZ
  Basis Set:
  @DF-RHF Final Energy:  -248.22536203687088
    Total Energy =                       -248.2253620368711609
  Basis Set: CC-PVTZ
  Basis Set:
  Charge       = 0
  Multiplicity = 1
  Basis Set: CC-PVTZ
  Basis Set:

    Orbital Energies (a.u.)
    -----------------------

    Doubly Occupied:

       1A    -20.550085     2A    -15.523405     3A    -11.264087
       4A    -11.263492     5A    -11.239783     6A     -1.383553
       7A     -1.175890     8A     -1.000673     9A     -0.907728
      10A     -0.815611    11A     -0.684702    12A     -0.675868
      13A     -0.647068    14A     -0.611518    15A     -0.608221
      16A     -0.541664    17A     -0.531751    18A     -0.497718
      19A     -0.474132    20A     -0.419134    21A     -0.383763

  @DF-RHF Final Energy:  -248.22536215506932

   => Energetics <=

    Nuclear Repulsion Energy =            194.6262097900703338
    One-Electron Energy =                -723.3034537613177690
    Two-Electron Energy =                 280.4518818161780587
    DFT Exchange-Correlation Energy =       0.0000000000000000
    Empirical Dispersion Energy =           0.0000000000000000
    PCM Polarization Energy =               0.0000000000000000
    EFP Energy =                            0.0000000000000000
    Total Energy =                       -248.2253621550693765
    Molecular point group: c1
  Basis Set: CC-PVTZ
  Basis Set:

  -Total Gradient:
     Atom            X                  Y                   Z
    ------   -----------------  -----------------  -----------------
       1        0.000003269248    -0.000002066875    -0.000001359717
       2        0.000000366534    -0.000003172342    -0.000011925152
       3       -0.000012949880     0.000002607889     0.000041505639
       4       -0.000002435919    -0.000002868364    -0.000004366186
       5       -0.000275100702    -0.001568900606     0.000927002848
       6        0.000017213979    -0.000009178833     0.000013814062
       7       -0.000017627106     0.000005376948     0.000000989757
       8        0.000608625014     0.002019456900    -0.001948040249
       9        0.000002206186     0.000001145369     0.000005499090
      10       -0.000004051613    -0.000002874443    -0.000015278615
      11       -0.000953169752     0.000453027719     0.003097329348
      12        0.000011478628    -0.000004874572    -0.000002889256
      13        0.000632695047    -0.000883984338    -0.002099248339
      14       -0.000010519662    -0.000003694450    -0.000003033228

  **** Optimization is complete! (in 4 steps) ****
    Final optimized geometry and variables:
    Molecular point group: c1

    Geometry (in Angstrom), charge = 0, multiplicity = 1:

    H           -2.718526912625    -1.052717727733    -0.374644119823
    N           -1.794336064999    -0.936006392936    -0.017877584411
    C           -1.393997357056     0.458432615757    -0.053977442664
    H           -1.180896492312    -1.482309991547    -0.584593980576
    C            0.011974302502     0.619896450506     0.477184179668
    H           -1.437052365694     0.895940529115    -1.050576768913
    H           -2.063489359205     1.028774429645     0.580578745337
    O            0.893917351452    -0.042612690227    -0.378282809953
    H            0.264242301272     1.678057327562     0.535033465618
    H            0.075396837962     0.198821408420     1.477432865308
    C            2.224811637277    -0.027072430440     0.023062120857
    H            2.741102199918    -0.815581344968    -0.506959112140
    H            2.702785020706     0.917027139441    -0.228021736884
    H            2.325516217755    -0.203649441262     1.090123931446

  Mulliken Charges: (a.u.)
   Center  Symbol    Alpha    Beta     Spin     Total
       1     H     0.43027  0.43027  0.00000  0.13947
       2     N     3.69420  3.69420  0.00000 -0.38841
       3     C     3.02238  3.02238  0.00000 -0.04475
       4     H     0.42240  0.42240  0.00000  0.15521
       5     C     2.96934  2.96934  0.00000  0.06131
       6     H     0.46454  0.46454  0.00000  0.07092
       7     H     0.45868  0.45868  0.00000  0.08264
       8     O     4.18110  4.18110  0.00000 -0.36220
       9     H     0.47094  0.47094  0.00000  0.05813
      10     H     0.46712  0.46712  0.00000  0.06577
      11     C     3.03091  3.03091  0.00000 -0.06182
      12     H     0.44910  0.44910  0.00000  0.10181
      13     H     0.46700  0.46700  0.00000  0.06599
      14     H     0.47203  0.47203  0.00000  0.05593

   Total alpha = 21.00000, Total beta = 21.00000, Total charge =  0.00000
