  ==> Input File <==

--------------------------------------------------------------------------
set {
	reference rhf
	basis cc-pvtz
}

set_num_threads( 4 )
memory 2 gb

molecule MOL {
0 1

H	 2.646708	 0.758099	 0.000000
O	 2.258158	 -0.097743	 0.000000
C	 0.911162	 -0.015915	 0.000000
C	 0.258942	 -0.189971	 1.209593
C	 0.184457	 0.231282	 -1.149441
H	 0.838816	 -0.380891	 2.090952
C	 -1.116238	 -0.114958	 1.257862
H	 0.690485	 0.366381	 -2.088235
C	 -1.195819	 0.303931	 -1.086037
H	 -1.616322	 -0.250660	 2.198022
C	 -1.855385	 0.132207	 0.112885
H	 -1.752534	 0.496285	 -1.983475
H	 -2.925239	 0.189173	 0.158318

	symmetry c1
}
set optking {
	frozen_dihedral = ("
		4 3 2 1
	")
}

ee = optimize('scf')
oeprop('DIPOLE', 'QUADRUPOLE', 'MULLIKEN_CHARGES')
f=open( 'psi4out.xyz', 'w' )
f.write( "13  " )
f.write( str(ee) + "\n" )
f.write( MOL.save_string_xyz() )
f.close()
--------------------------------------------------------------------------

    Molecular point group: c1
  Charge       = 0
  Multiplicity = 1
  Basis Set: CC-PVTZ
  Basis Set:
  @DF-RHF Final Energy:  -305.66562970992260
    Total Energy =                       -305.6656297099226549
    Molecular point group: c1
  Basis Set: CC-PVTZ
  Basis Set:
  Basis Set: CC-PVTZ
  Basis Set:
  @DF-RHF Final Energy:  -305.66628196991201
    Total Energy =                       -305.6662819699118359
  Basis Set: CC-PVTZ
  Basis Set:
  Basis Set: CC-PVTZ
  Basis Set:
  @DF-RHF Final Energy:  -305.66633739178718
    Total Energy =                       -305.6663373917871240
  Basis Set: CC-PVTZ
  Basis Set:
  Basis Set: CC-PVTZ
  Basis Set:
  @DF-RHF Final Energy:  -305.66634338276765
    Total Energy =                       -305.6663433827677636
  Basis Set: CC-PVTZ
  Basis Set:
  Charge       = 0
  Multiplicity = 1
  Basis Set: CC-PVTZ
  Basis Set:

    Orbital Energies (a.u.)
    -----------------------

    Doubly Occupied:

       1A    -20.571152     2A    -11.288875     3A    -11.233525
       4A    -11.233184     5A    -11.225914     6A    -11.225748
       7A    -11.225046     8A     -1.397955     9A     -1.153352
      10A     -1.022395    11A     -1.008345    12A     -0.839883
      13A     -0.828588    14A     -0.738117    15A     -0.684269
      16A     -0.651630    17A     -0.632534    18A     -0.596866
      19A     -0.592092    20A     -0.526281    21A     -0.517844
      22A     -0.498492    23A     -0.471677    24A     -0.341902
      25A     -0.329467

  @DF-RHF Final Energy:  -305.66634441938061

   => Energetics <=

    Nuclear Repulsion Energy =            273.3113032156186364
    One-Electron Energy =                -956.2850293527390022
    Two-Electron Energy =                 377.3073817177398723
    DFT Exchange-Correlation Energy =       0.0000000000000000
    Empirical Dispersion Energy =           0.0000000000000000
    PCM Polarization Energy =               0.0000000000000000
    EFP Energy =                            0.0000000000000000
    Total Energy =                       -305.6663444193804935
    Molecular point group: c1
  Basis Set: CC-PVTZ
  Basis Set:

  -Total Gradient:
     Atom            X                  Y                   Z
    ------   -----------------  -----------------  -----------------
       1        0.000034095061     0.000001520849     0.000718369188
       2        0.000161684766     0.000262240721    -0.000812861497
       3       -0.000300023770    -0.000765417182    -0.000196894755
       4        0.000016541575     0.000495287088     0.000201544522
       5        0.000176999018     0.000003256562     0.000051470111
       6       -0.000019145429    -0.000004085834    -0.000023676894
       7        0.000082954940     0.000038611421     0.000054739043
       8        0.000022251303    -0.000012668235    -0.000000534738
       9       -0.000146778496     0.000012333404     0.000100689509
      10       -0.000035364286    -0.000005205624    -0.000010785120
      11        0.000000237155    -0.000012533740    -0.000132391541
      12        0.000013297983    -0.000006466460     0.000013075283
      13       -0.000006749813    -0.000006872969     0.000037256891

  **** Optimization is complete! (in 5 steps) ****
    Final optimized geometry and variables:
    Molecular point group: c1

    Geometry (in Angstrom), charge = 0, multiplicity = 1:

    H            2.661319766614     0.708736378745    -0.078054588437
    O            2.267032510494    -0.145702212684    -0.081257689041
    C            0.903914649207    -0.044575841214    -0.033446528043
    C            0.250510047510    -0.225270938374     1.169959050595
    C            0.183915900502     0.196925034289    -1.187454594034
    H            0.826659535502    -0.422890595896     2.052773424603
    C           -1.129215026634    -0.160116326129     1.216487167361
    H            0.706478198680     0.319064694709    -2.116610410306
    C           -1.195512333898     0.264942142641    -1.132436822772
    H           -1.635168074701    -0.303144179103     2.152265016220
    C           -1.857180544671     0.087466340113     0.067880305867
    H           -1.752734736333     0.452216344361    -2.030486869462
    H           -2.928136989552     0.137094168405     0.107278210855

  Mulliken Charges: (a.u.)
   Center  Symbol    Alpha    Beta     Spin     Total
       1     H     0.38810  0.38810  0.00000  0.22381
       2     O     4.19244  4.19244  0.00000 -0.38487
       3     C     2.87213  2.87213  0.00000  0.25574
       4     C     3.10844  3.10844  0.00000 -0.21688
       5     C     3.11265  3.11265  0.00000 -0.22529
       6     H     0.41660  0.41660  0.00000  0.16680
       7     C     3.06898  3.06898  0.00000 -0.13796
       8     H     0.41801  0.41801  0.00000  0.16398
       9     C     3.06964  3.06964  0.00000 -0.13928
      10     H     0.42158  0.42158  0.00000  0.15684
      11     C     3.08674  3.08674  0.00000 -0.17349
      12     H     0.42166  0.42166  0.00000  0.15669
      13     H     0.42303  0.42303  0.00000  0.15394

   Total alpha = 25.00000, Total beta = 25.00000, Total charge = -0.00000
