  ==> Input File <==

--------------------------------------------------------------------------
set {
	reference rhf
	basis 6-31G*
}

set_num_threads( 4 )
memory 2 gb

molecule MOL {
0 1

H	 3.244606	 0.189187	 0.415763
N	 2.389694	 -0.332380	 0.440404
C	 1.267428	 0.496480	 0.024474
H	 2.266416	 -0.641538	 1.385993
C	 -0.016086	 -0.325158	 -0.029487
H	 1.489884	 0.879337	 -0.966974
H	 1.114116	 1.365923	 0.668635
C	 -1.282277	 0.529072	 0.046735
H	 -0.012495	 -0.908639	 -0.945788
H	 -0.015903	 -1.041248	 0.791956
C	 -2.563920	 -0.301775	 -0.006060
H	 -1.284084	 1.244622	 -0.773004
H	 -1.271387	 1.115393	 0.963286
H	 -2.621848	 -0.873522	 -0.927727
H	 -3.445135	 0.329952	 0.047812
H	 -2.609542	 -1.004582	 0.821105

	symmetry c1
}
set optking {
	frozen_dihedral = ("
		6 3 5 9
	")
}

ee = optimize('scf')
oeprop('DIPOLE', 'QUADRUPOLE', 'MULLIKEN_CHARGES')
f=open( 'psi4out.xyz', 'w' )
f.write( "16  " )
f.write( str(ee) + "\n" )
f.write( MOL.save_string_xyz() )
f.close()
--------------------------------------------------------------------------

    Molecular point group: c1
  Charge       = 0
  Multiplicity = 1
  Basis Set: 6-31G*
  Basis Set:
  @DF-RHF Final Energy:  -212.31511269613151
    Total Energy =                       -212.3151126961316209
    Molecular point group: c1
  Basis Set: 6-31G*
  Basis Set:
  Basis Set: 6-31G*
  Basis Set:
  @DF-RHF Final Energy:  -212.31529804828801
    Total Energy =                       -212.3152980482877865
  Basis Set: 6-31G*
  Basis Set:
  Basis Set: 6-31G*
  Basis Set:
  @DF-RHF Final Energy:  -212.31536754342119
    Total Energy =                       -212.3153675434212460
  Basis Set: 6-31G*
  Basis Set:
  Charge       = 0
  Multiplicity = 1
  Basis Set: 6-31G*
  Basis Set:

    Orbital Energies (a.u.)
    -----------------------

    Doubly Occupied:

       1A    -15.532240     2A    -11.240133     3A    -11.214812
       4A    -11.209849     5A    -11.207797     6A     -1.175936
       7A     -1.059112     8A     -0.957893     9A     -0.844087
      10A     -0.791269    11A     -0.667750    12A     -0.629158
      13A     -0.611660    14A     -0.574473    15A     -0.560081
      16A     -0.528897    17A     -0.501242    18A     -0.471206
      19A     -0.465256    20A     -0.458237    21A     -0.380768

  @DF-RHF Final Energy:  -212.31536799867806

   => Energetics <=

    Nuclear Repulsion Energy =            186.2486242232179450
    One-Electron Energy =                -654.9642710528308953
    Two-Electron Energy =                 256.4002788309348944
    DFT Exchange-Correlation Energy =       0.0000000000000000
    Empirical Dispersion Energy =           0.0000000000000000
    PCM Polarization Energy =               0.0000000000000000
    EFP Energy =                            0.0000000000000000
    Total Energy =                       -212.3153679986780844
    Molecular point group: c1
  Basis Set: 6-31G*
  Basis Set:

  -Total Gradient:
     Atom            X                  Y                   Z
    ------   -----------------  -----------------  -----------------
       1       -0.000018998832    -0.000022329149     0.000001785340
       2       -0.000050228749    -0.000061534965     0.000209081825
       3       -0.003117454058     0.004936156804     0.000170748914
       4        0.000103788617    -0.000064377368     0.000016841823
       5        0.002980988476    -0.004559447219     0.002161836451
       6        0.002078479941    -0.003312272227    -0.000850341946
       7       -0.000071781745    -0.000142872233     0.000044966551
       8       -0.000010348586     0.000029523640     0.000246331811
       9       -0.001838479885     0.002985750886    -0.001998155052
      10        0.000011516168     0.000160363736     0.000019240178
      11        0.000007343693     0.000012969554    -0.000094594203
      12        0.000025615590    -0.000005235799     0.000047772292
      13       -0.000105811425     0.000052652131     0.000051190981
      14        0.000004591802    -0.000045253074     0.000005053363
      15        0.000009848864     0.000003264651    -0.000050634332
      16       -0.000009069870     0.000032640631     0.000018876003

  **** Optimization is complete! (in 4 steps) ****
    Final optimized geometry and variables:
    Molecular point group: c1

    Geometry (in Angstrom), charge = 0, multiplicity = 1:

    H            3.269738714688     0.173325665986     0.219365244035
    N            2.413386431201    -0.340685548211     0.296976274005
    C            1.274668687808     0.490317720258    -0.074117376382
    H            2.338129291252    -0.637417587319     1.251400841867
    C           -0.007552489825    -0.342771939072    -0.091212599596
    H            1.475053009408     0.858598845132    -1.075034195138
    H            1.146956814460     1.357053649200     0.577514873521
    C           -1.274968554674     0.515025305930    -0.047352754523
    H           -0.022874210376    -0.942811293819    -0.996475105769
    H           -0.006522281931    -1.030410104987     0.751604106667
    C           -2.556811972578    -0.310369323587    -0.151509903227
    H           -1.247998178541     1.239997868091    -0.858865339908
    H           -1.291968653267     1.092397265125     0.874800944771
    H           -2.586240185754    -0.873335119359    -1.080015208217
    H           -3.437452326927     0.323796980089    -0.120896720262
    H           -2.632239601162    -1.021197890363     0.666687483697

  Mulliken Charges: (a.u.)
   Center  Symbol    Alpha    Beta     Spin     Total
       1     H     0.33294  0.33294  0.00000  0.33411
       2     N     3.92241  3.92241  0.00000 -0.84481
       3     C     3.06176  3.06176  0.00000 -0.12351
       4     H     0.33559  0.33559  0.00000  0.32882
       5     C     3.14825  3.14825  0.00000 -0.29650
       6     H     0.41962  0.41962  0.00000  0.16075
       7     H     0.43339  0.43339  0.00000  0.13323
       8     C     3.15690  3.15690  0.00000 -0.31381
       9     H     0.41603  0.41603  0.00000  0.16794
      10     H     0.42461  0.42461  0.00000  0.15077
      11     C     3.23873  3.23873  0.00000 -0.47745
      12     H     0.42342  0.42342  0.00000  0.15316
      13     H     0.42389  0.42389  0.00000  0.15222
      14     H     0.42094  0.42094  0.00000  0.15812
      15     H     0.41971  0.41971  0.00000  0.16057
      16     H     0.42181  0.42181  0.00000  0.15639

   Total alpha = 21.00000, Total beta = 21.00000, Total charge = -0.00000
