  ==> Input File <==

--------------------------------------------------------------------------
set {
	reference rhf
	basis 6-31G*
}

set_num_threads( 4 )
memory 2 gb

molecule MOL {
0 1

H	 -3.420663	 1.227371	 -1.044276
O	 -3.452007	 0.283848	 -0.965577
C	 -3.181085	 -0.079926	 0.364119
C	 -1.765924	 0.277073	 0.805136
H	 -3.327791	 -1.152017	 0.410903
H	 -3.905698	 0.375695	 1.036898
C	 -0.677594	 -0.417312	 -0.014550
H	 -1.637766	 1.358238	 0.744969
H	 -1.659588	 0.017670	 1.857098
C	 -1.231622	 -1.463524	 -0.983917
H	 0.034177	 -0.883187	 0.660025
H	 -0.121627	 0.333651	 -0.573432
C	 -0.136876	 -2.150061	 -1.805064
H	 -1.793694	 -2.204761	 -0.420835
H	 -1.942550	 -0.990217	 -1.660059
C	 -0.649456	 -3.143651	 -2.853965
H	 0.549823	 -2.661554	 -1.132371
H	 0.449017	 -1.385777	 -2.311441
C	 -1.340100	 -4.379810	 -2.274892
H	 0.192204	 -3.467735	 -3.461311
H	 -1.331641	 -2.632483	 -3.530377
H	 -0.685352	 -4.904739	 -1.584317
H	 -1.611811	 -5.074604	 -3.063734
H	 -2.248874	 -4.124596	 -1.739953

	symmetry c1
}
set optking {
	frozen_dihedral = ("
		11 7 4 3
	")
}

ee = optimize('scf')
oeprop('DIPOLE', 'QUADRUPOLE', 'MULLIKEN_CHARGES')
f=open( 'psi4out.xyz', 'w' )
f.write( "24  " )
f.write( str(ee) + "\n" )
f.write( MOL.save_string_xyz() )
f.close()
--------------------------------------------------------------------------

    Molecular point group: c1
  Charge       = 0
  Multiplicity = 1
  Basis Set: 6-31G*
  Basis Set:
  @DF-RHF Final Energy:  -349.23191794023330
    Total Energy =                       -349.2319179402333020
    Molecular point group: c1
  Basis Set: 6-31G*
  Basis Set:
  Basis Set: 6-31G*
  Basis Set:
  @DF-RHF Final Energy:  -349.23673205554013
    Total Energy =                       -349.2367320555400738
  Basis Set: 6-31G*
  Basis Set:
  Basis Set: 6-31G*
  Basis Set:
  @DF-RHF Final Energy:  -349.23813544647692
    Total Energy =                       -349.2381354464770311
  Basis Set: 6-31G*
  Basis Set:
  Basis Set: 6-31G*
  Basis Set:
  @DF-RHF Final Energy:  -349.23825980818771
    Total Energy =                       -349.2382598081878768
  Basis Set: 6-31G*
  Basis Set:
  @DF-RHF Final Energy:  -349.23833604801661
    Total Energy =                       -349.2383360480164356
  Basis Set: 6-31G*
  Basis Set:
  @DF-RHF Final Energy:  -349.23838074916756
    Total Energy =                       -349.2383807491673906
  Basis Set: 6-31G*
  Basis Set:
  Basis Set: 6-31G*
  Basis Set:
  @DF-RHF Final Energy:  -349.23833449399621
    Total Energy =                       -349.2383344939960352
  Basis Set: 6-31G*
  Basis Set:
  Basis Set: 6-31G*
  Basis Set:
  @DF-RHF Final Energy:  -349.23838850799763
    Total Energy =                       -349.2383885079974561
  Basis Set: 6-31G*
  Basis Set:
  Charge       = 0
  Multiplicity = 1
  Basis Set: 6-31G*
  Basis Set:

    Orbital Energies (a.u.)
    -----------------------

    Doubly Occupied:

       1A    -20.553662     2A    -11.267933     3A    -11.219018
       4A    -11.213857     5A    -11.210084     6A    -11.208025
       7A    -11.204136     8A    -11.203753     9A     -1.360088
      10A     -1.083444    11A     -1.043431    12A     -0.981816
      13A     -0.913189    14A     -0.859974    15A     -0.792228
      16A     -0.768402    17A     -0.680501    18A     -0.650471
      19A     -0.620268    20A     -0.617970    21A     -0.594692
      22A     -0.584796    23A     -0.553017    24A     -0.537928
      25A     -0.514310    26A     -0.512591    27A     -0.492683
      28A     -0.479696    29A     -0.467735    30A     -0.457605
      31A     -0.446062    32A     -0.432585    33A     -0.421566

  @DF-RHF Final Energy:  -349.23838868781087

   => Energetics <=

    Nuclear Repulsion Energy =            394.8604451257899086
    One-Electron Energy =               -1256.3026338940944697
    Two-Electron Energy =                 512.2038000804940339
    DFT Exchange-Correlation Energy =       0.0000000000000000
    Empirical Dispersion Energy =           0.0000000000000000
    PCM Polarization Energy =               0.0000000000000000
    EFP Energy =                            0.0000000000000000
    Total Energy =                       -349.2383886878104704
    Molecular point group: c1
  Basis Set: 6-31G*
  Basis Set:

  -Total Gradient:
     Atom            X                  Y                   Z
    ------   -----------------  -----------------  -----------------
       1        0.000000818502     0.000006922184    -0.000005754854
       2        0.000009207262    -0.000000988308     0.000003383192
       3       -0.000108723556    -0.002446780945     0.001965506750
       4       -0.000358280189     0.002799725557    -0.002891751564
       5       -0.000003264308    -0.000002338796     0.000004800691
       6        0.000006383246     0.000006248299    -0.000006112961
       7        0.002863739338     0.002913974942     0.000954870821
       8        0.000003639201     0.000004653540     0.000001173409
       9        0.000005394712     0.000001365260     0.000002125260
      10       -0.000035226351     0.000014933760    -0.000021899604
      11       -0.002388950315    -0.003307124767    -0.000035831865
      12       -0.000004261563     0.000000502685     0.000003969376
      13       -0.000013259511     0.000009334007    -0.000003208396
      14       -0.000000715705    -0.000012783672    -0.000004521264
      15       -0.000003093695     0.000003952634     0.000016293534
      16        0.000013155089    -0.000004934653     0.000016328273
      17       -0.000001736734    -0.000002610724    -0.000000237848
      18        0.000012427985    -0.000009165926    -0.000019236621
      19       -0.000004967863     0.000004200380     0.000004465867
      20        0.000010942998     0.000013525136     0.000000672281
      21       -0.000003610899     0.000000281996     0.000009355348
      22        0.000002602588    -0.000005722596    -0.000000565775
      23       -0.000000903269     0.000004337873    -0.000002247009
      24       -0.000001316962     0.000008492123     0.000008422958

  **** Optimization is complete! (in 9 steps) ****
    Final optimized geometry and variables:
    Molecular point group: c1

    Geometry (in Angstrom), charge = 0, multiplicity = 1:

    H           -1.870937150149     2.860456681284     0.140823635256
    O           -2.005824249993     1.922941977851     0.147786834956
    C           -1.642383925959     1.412135406303     1.406291219193
    C           -0.169749194045     1.619938316227     1.748020314126
    H           -1.894530477851     0.361624805350     1.383634257412
    H           -2.250392567849     1.869954055503     2.184850496156
    C            0.886164579581     0.868088477192     0.892637664361
    H            0.036234143905     2.688401422523     1.721439190300
    H           -0.052218586572     1.330892989798     2.790148503778
    C            0.360327165405    -0.195447260839    -0.081043658040
    H            1.572784555860     0.364229146293     1.567781807431
    H            1.474501035830     1.587876553209     0.331731075239
    C            1.497800969838    -0.848762007367    -0.871767074721
    H           -0.177181606490    -0.958428633327     0.475747587992
    H           -0.351432541378     0.248475789938    -0.767916690407
    C            1.041452183905    -1.872175901613    -1.918140285955
    H            2.192889637409    -1.327565654756    -0.183076917712
    H            2.063308397262    -0.069079055362    -1.378490889767
    C            0.391161399088    -3.129148909874    -1.337233858253
    H            1.904746650770    -2.168490585562    -2.509361775356
    H            0.349840502419    -1.394595711334    -2.608867890481
    H            1.054632492370    -3.620946244485    -0.630549294898
    H            0.160561687089    -3.841984508554    -2.123134363215
    H           -0.535868838468    -2.904730245987    -0.820437437740

  Mulliken Charges: (a.u.)
   Center  Symbol    Alpha    Beta     Spin     Total
       1     H     0.28343  0.28343  0.00000  0.43313
       2     O     4.36922  4.36922  0.00000 -0.73843
       3     C     2.99908  2.99908  0.00000  0.00184
       4     C     3.17068  3.17068  0.00000 -0.34137
       5     H     0.41362  0.41362  0.00000  0.17277
       6     H     0.42738  0.42738  0.00000  0.14524
       7     C     3.15252  3.15252  0.00000 -0.30504
       8     H     0.42531  0.42531  0.00000  0.14937
       9     H     0.42096  0.42096  0.00000  0.15809
      10     C     3.16497  3.16497  0.00000 -0.32994
      11     H     0.42169  0.42169  0.00000  0.15663
      12     H     0.42100  0.42100  0.00000  0.15801
      13     C     3.15233  3.15233  0.00000 -0.30466
      14     H     0.42476  0.42476  0.00000  0.15048
      15     H     0.40275  0.40275  0.00000  0.19450
      16     C     3.15178  3.15178  0.00000 -0.30356
      17     H     0.42665  0.42665  0.00000  0.14670
      18     H     0.42356  0.42356  0.00000  0.15289
      19     C     3.24096  3.24096  0.00000 -0.48192
      20     H     0.42244  0.42244  0.00000  0.15511
      21     H     0.42185  0.42185  0.00000  0.15629
      22     H     0.42357  0.42357  0.00000  0.15287
      23     H     0.41996  0.41996  0.00000  0.16007
      24     H     0.41953  0.41953  0.00000  0.16093

   Total alpha = 33.00000, Total beta = 33.00000, Total charge = -0.00000
