                              Psi4 1.0.54 Driver

  ==> Input File <==

--------------------------------------------------------------------------
set {
	reference rhf
	basis cc-pvtz
}

set_num_threads( 4 )
memory 2 gb

molecule MOL {
0 1

O	 -2.440701	 -0.934798	 -0.415053
C	 -1.922978	 0.063265	 -0.045005
C	 -2.632749	 1.372204	 0.158357
O	 -0.637375	 0.157174	 0.243149
H	 -2.187724	 2.129143	 -0.474664
H	 -3.677681	 1.257276	 -0.079438
H	 -2.516788	 1.693160	 1.185542
C	 0.162530	 -1.009518	 0.097799
C	 1.587210	 -0.664190	 0.477086
H	 0.096803	 -1.356267	 -0.924704
H	 -0.233803	 -1.785900	 0.736810
C	 2.301891	 -1.748039	 1.279747
H	 1.553733	 0.254610	 1.056242
H	 2.147656	 -0.442921	 -0.426118
C	 3.722797	 -1.352405	 1.667196
H	 1.729027	 -1.962179	 2.178117
H	 2.325602	 -2.665668	 0.703346
H	 4.204925	 -2.136782	 2.238764
H	 3.729470	 -0.451237	 2.271549
H	 4.329656	 -1.163843	 0.787888

	symmetry c1
}
set optking {
	frozen_dihedral = ("
		12 9 8 10
	")
}

ee,wfn = optimize('scf', return_wfn=True)
oeprop( wfn, 'DIPOLE', 'QUADRUPOLE', 'MULLIKEN_CHARGES')
f=open( 'psi4out.xyz', 'w' )
f.write( "20  " )
f.write( str(ee) + "\n" )
f.write( MOL.save_string_xyz() )
f.close()
--------------------------------------------------------------------------

    Molecular point group: c1
  Charge       = 0
  Multiplicity = 1
  Basis Set: CC-PVTZ
  Basis Set:
  @DF-RHF Final Energy:  -384.08315900995336
    Total Energy =                       -384.0831590099533059
    Molecular point group: c1
  Basis Set: CC-PVTZ
  Basis Set:
  Basis Set: CC-PVTZ
  Basis Set:
  @DF-RHF Final Energy:  -384.08351315523129
    Total Energy =                       -384.0835131552312305
  Basis Set: CC-PVTZ
  Basis Set:
  Basis Set: CC-PVTZ
  Basis Set:
  @DF-RHF Final Energy:  -384.08351542000139
    Total Energy =                       -384.0835154200012767
  Basis Set: CC-PVTZ
  Basis Set:
  Basis Set: CC-PVTZ
  Basis Set:
  @DF-RHF Final Energy:  -384.08349729913641
    Total Energy =                       -384.0834972991370933
  Basis Set: CC-PVTZ
  Basis Set:
  Basis Set: CC-PVTZ
  Basis Set:
  @DF-RHF Final Energy:  -384.08358444622468
    Total Energy =                       -384.0835844462245632
  Basis Set: CC-PVTZ
  Basis Set:
  Basis Set: CC-PVTZ
  Basis Set:
  @DF-RHF Final Energy:  -384.08358633719689
    Total Energy =                       -384.0835863371968344
  Basis Set: CC-PVTZ
  Basis Set:
  Charge       = 0
  Multiplicity = 1
  Basis Set: CC-PVTZ
  Basis Set:

    Orbital Energies (a.u.)
    -----------------------

    Doubly Occupied:

       1A    -20.593401     2A    -20.531859     3A    -11.365643
       4A    -11.280080     5A    -11.230942     6A    -11.223590
       7A    -11.222146     8A    -11.213317     9A     -1.469820
      10A     -1.363997    11A     -1.087244    12A     -1.030050
      13A     -0.980465    14A     -0.882560    15A     -0.808465
      16A     -0.778948    17A     -0.693073    18A     -0.686846
      19A     -0.670433    20A     -0.637393    21A     -0.598431
      22A     -0.594601    23A     -0.571143    24A     -0.558557
      25A     -0.545639    26A     -0.520802    27A     -0.512553
      28A     -0.483382    29A     -0.482440    30A     -0.475386
      31A     -0.453379    32A     -0.439737

  @DF-RHF Final Energy:  -384.08358650824221

   => Energetics <=

    Nuclear Repulsion Energy =            379.7613469577750038
    One-Electron Energy =               -1275.7172253018188712
    Two-Electron Energy =                 511.8722918358013203
    DFT Exchange-Correlation Energy =       0.0000000000000000
    Empirical Dispersion Energy =           0.0000000000000000
    PCM Polarization Energy =               0.0000000000000000
    EFP Energy =                            0.0000000000000000
    Total Energy =                       -384.0835865082425471
    Molecular point group: c1
  Basis Set: CC-PVTZ
  Basis Set:

  -Total Gradient:
     Atom            X                  Y                   Z
    ------   -----------------  -----------------  -----------------
       1        0.000055849679     0.000103912890     0.000043335890
       2       -0.000054646700    -0.000037229191    -0.000045841312
       3       -0.000001598359    -0.000003000119     0.000017205256
       4        0.000019658299    -0.000013992413    -0.000001020535
       5       -0.000015900726    -0.000042789307     0.000019665747
       6        0.000011238584     0.000013702943     0.000005550575
       7        0.000001803809    -0.000015458472    -0.000047882716
       8        0.000498873898    -0.004610201617     0.002449871729
       9        0.001218992674    -0.000413628465    -0.003908154384
      10       -0.000725287069     0.003971436458    -0.001104470026
      11        0.000016288078    -0.000008317880    -0.000003684279
      12       -0.001004799022     0.001070494289     0.002577019760
      13       -0.000000630366    -0.000010579179    -0.000014892244
      14       -0.000005124417    -0.000002526668     0.000012758796
      15       -0.000006658783     0.000002369727     0.000007764800
      16        0.000001617544    -0.000001580125    -0.000006850279
      17        0.000003588464    -0.000005874965    -0.000003733777
      18       -0.000007348196     0.000004901131     0.000000153679
      19        0.000003371754     0.000004127384    -0.000000936139
      20       -0.000009289146    -0.000005766421     0.000004139456

  **** Optimization is complete! (in 7 steps) ****
    Final optimized geometry and variables:
    Molecular point group: c1

    Geometry (in Angstrom), charge = 0, multiplicity = 1:

    O           -2.434581829165    -0.429446481160    -0.886257988707
    C           -1.940151045416     0.564306437122    -0.474415804081
    C           -2.673394726016     1.857095245214    -0.253060895587
    O           -0.664168427373     0.667334992934    -0.150891290972
    H           -2.220318394219     2.637999678984    -0.849985336452
    H           -3.709542931779     1.736189726971    -0.524036808904
    H           -2.590965905805     2.148171475249     0.786087111715
    C            0.157415232445    -0.485578552427    -0.316093413477
    C            1.582037333261    -0.110189041719     0.078400035184
    H            0.091985983797    -0.786133066956    -1.351418433727
    H           -0.235426139434    -1.281830244918     0.299434119627
    C            2.304761487494    -1.229224531757     0.824748567507
    H            1.534536655933     0.763068866683     0.718508172347
    H            2.146442235330     0.180316711207    -0.800891531794
    C            3.742107961777    -0.869223904622     1.182414504874
    H            1.752372222629    -1.461957690600     1.730178264516
    H            2.300609462820    -2.135078922577     0.223791234236
    H            4.223959211590    -1.674712873108     1.723866076370
    H            3.778777481266     0.017904811049     1.805793984427
    H            4.329282213208    -0.671048078931     0.292152782655

  Mulliken Charges: (a.u.)
   Center  Symbol    Alpha    Beta     Spin     Total
       1     O     4.19745  4.19745  0.00000 -0.39490
       2     C     2.80730  2.80730  0.00000  0.38540
       3     C     3.13789  3.13789  0.00000 -0.27578
       4     O     4.15179  4.15179  0.00000 -0.30358
       5     H     0.44588  0.44588  0.00000  0.10824
       6     H     0.43820  0.43820  0.00000  0.12361
       7     H     0.44608  0.44608  0.00000  0.10783
       8     C     2.98354  2.98354  0.00000  0.03292
       9     C     3.08761  3.08761  0.00000 -0.17522
      10     H     0.45133  0.45133  0.00000  0.09733
      11     H     0.45351  0.45351  0.00000  0.09298
      12     C     3.09110  3.09110  0.00000 -0.18219
      13     H     0.44762  0.44762  0.00000  0.10477
      14     H     0.45090  0.45090  0.00000  0.09820
      15     C     3.15002  3.15002  0.00000 -0.30004
      16     H     0.45197  0.45197  0.00000  0.09605
      17     H     0.45247  0.45247  0.00000  0.09506
      18     H     0.44710  0.44710  0.00000  0.10579
      19     H     0.45408  0.45408  0.00000  0.09185
      20     H     0.45417  0.45417  0.00000  0.09167

   Total alpha = 32.00000, Total beta = 32.00000, Total charge =  0.00000

*** Psi4 exiting successfully. Buy a developer a beer!
