                              Psi4 1.0.54 Driver

  ==> Input File <==

--------------------------------------------------------------------------
set {
	reference rhf
	basis cc-pvtz
}

set_num_threads( 4 )
memory 2 gb

molecule MOL {
0 1

H	 1.127368	 -1.575496	 -0.683693
C	 0.501843	 -0.696384	 -0.849010
N	 -0.537714	 -0.645117	 0.000000
O	 0.751526	 0.100030	 -1.697598
C	 -1.522613	 0.412524	 0.000000
H	 -0.623795	 -1.379043	 0.658730
H	 -2.150256	 0.356137	 -0.880771
H	 -1.005621	 1.357208	 0.000000
H	 -2.150256	 0.356137	 0.880771

	symmetry c1
}
set optking {
	frozen_dihedral = ("
		6 3 5 7
	")
}

ee,wfn = optimize('scf', return_wfn=True)
oeprop( wfn, 'DIPOLE', 'QUADRUPOLE', 'MULLIKEN_CHARGES')
f=open( 'psi4out.xyz', 'w' )
f.write( "9  " )
f.write( str(ee) + "\n" )
f.write( MOL.save_string_xyz() )
f.close()
--------------------------------------------------------------------------

    Molecular point group: c1
  Charge       = 0
  Multiplicity = 1
  Basis Set: CC-PVTZ
  Basis Set:
  @DF-RHF Final Energy:  -208.04316571823517
    Total Energy =                       -208.0431657182351159
    Molecular point group: c1
  Basis Set: CC-PVTZ
  Basis Set:
  Basis Set: CC-PVTZ
  Basis Set:
  @DF-RHF Final Energy:  -208.04359749182868
    Total Energy =                       -208.0435974918287911
  Basis Set: CC-PVTZ
  Basis Set:
  Basis Set: CC-PVTZ
  Basis Set:
  @DF-RHF Final Energy:  -208.04362047980800
    Total Energy =                       -208.0436204798079416
  Basis Set: CC-PVTZ
  Basis Set:
  Basis Set: CC-PVTZ
  Basis Set:
  @DF-RHF Final Energy:  -208.04364702073235
    Total Energy =                       -208.0436470207323225
  Basis Set: CC-PVTZ
  Basis Set:
  Basis Set: CC-PVTZ
  Basis Set:
  @DF-RHF Final Energy:  -208.04366462893881
    Total Energy =                       -208.0436646289386999
  Basis Set: CC-PVTZ
  Basis Set:
  Basis Set: CC-PVTZ
  Basis Set:
  @DF-RHF Final Energy:  -208.04366772078018
    Total Energy =                       -208.0436677207801495
  Basis Set: CC-PVTZ
  Basis Set:
  Charge       = 0
  Multiplicity = 1
  Basis Set: CC-PVTZ
  Basis Set:

    Orbital Energies (a.u.)
    -----------------------

    Doubly Occupied:

       1A    -20.516629     2A    -15.584378     3A    -11.335981
       4A    -11.260544     5A     -1.393950     6A     -1.239319
       7A     -0.969768     8A     -0.809258     9A     -0.749145
      10A     -0.645806    11A     -0.629943    12A     -0.596148
      13A     -0.559567    14A     -0.536932    15A     -0.428248
      16A     -0.396750

  @DF-RHF Final Energy:  -208.04366957012348

   => Energetics <=

    Nuclear Repulsion Energy =            122.9371879417568749
    One-Electron Energy =                -526.6569807357809623
    Two-Electron Energy =                 195.6761232239005892
    DFT Exchange-Correlation Energy =       0.0000000000000000
    Empirical Dispersion Energy =           0.0000000000000000
    PCM Polarization Energy =               0.0000000000000000
    EFP Energy =                            0.0000000000000000
    Total Energy =                       -208.0436695701235124
    Molecular point group: c1
  Basis Set: CC-PVTZ
  Basis Set:

  -Total Gradient:
     Atom            X                  Y                   Z
    ------   -----------------  -----------------  -----------------
       1        0.000014206405    -0.000004239901    -0.000005096545
       2       -0.000019243478    -0.000057169980     0.000048650642
       3       -0.000009168534    -0.000032705206    -0.000041067692
       4        0.000007021396     0.000046917704    -0.000038508407
       5       -0.000038421482     0.000013660517     0.000020737303
       6        0.000030461310     0.000016436689     0.000026680281
       7        0.000012701991     0.000011173565    -0.000034707314
       8        0.000019241838     0.000013685518     0.000001971747
       9       -0.000016799447    -0.000007758910     0.000021339980

  **** Optimization is complete! (in 7 steps) ****
    Final optimized geometry and variables:
    Molecular point group: c1

    Geometry (in Angstrom), charge = 0, multiplicity = 1:

    H            1.351700481827    -1.376613480005    -0.064551596873
    C            0.713032059454    -0.504581844035    -0.217273588120
    N           -0.301280329124    -0.440658847512     0.658349509753
    O            0.923441841624     0.291831622415    -1.076716189543
    C           -1.284295082766     0.619413322368     0.623168954976
    H           -0.403379713282    -1.177771694063     1.309845699987
    H           -1.884978726308     0.571331679724    -0.275944496097
    H           -0.800098932519     1.584806342063     0.655446087214
    H           -1.930909887803     0.522057163731     1.483206303349

  Mulliken Charges: (a.u.)
   Center  Symbol    Alpha    Beta     Spin     Total
       1     H     0.46441  0.46441  0.00000  0.07117
       2     C     2.87949  2.87949  0.00000  0.24101
       3     N     3.60565  3.60565  0.00000 -0.21130
       4     O     4.21438  4.21438  0.00000 -0.42875
       5     C     3.07506  3.07506  0.00000 -0.15013
       6     H     0.41003  0.41003  0.00000  0.17993
       7     H     0.45105  0.45105  0.00000  0.09789
       8     H     0.44537  0.44537  0.00000  0.10927
       9     H     0.45455  0.45455  0.00000  0.09090

   Total alpha = 16.00000, Total beta = 16.00000, Total charge =  0.00000

*** Psi4 exiting successfully. Buy a developer a beer!
