  ==> Input File <==

--------------------------------------------------------------------------
set {
	reference rhf
	basis 6-31G*
}

set_num_threads( 4 )
memory 2 gb

molecule MOL {
0 1

O	 3.225979	 0.970355	 -0.599647
C	 2.701189	 0.057885	 -0.047330
C	 1.245376	 -0.013843	 0.345420
O	 3.347903	 -1.046386	 0.304773
C	 0.455112	 1.231400	 -0.050772
H	 0.838542	 -0.913825	 -0.103701
H	 1.208210	 -0.175333	 1.419774
C	 -0.998893	 1.219485	 0.433193
H	 0.482531	 1.345121	 -1.130325
H	 0.957290	 2.103070	 0.354729
C	 -1.883438	 0.145884	 -0.207175
H	 -1.431207	 2.195402	 0.224832
H	 -1.019646	 1.105716	 1.516076
C	 -3.347647	 0.245583	 0.225435
H	 -1.822183	 0.231698	 -1.291012
H	 -1.510341	 -0.844814	 0.042401
C	 -4.239992	 -0.825570	 -0.404234
H	 -3.732888	 1.230466	 -0.033079
H	 -3.408585	 0.170602	 1.310038
C	 -3.550488	 -2.184472	 -0.521149
H	 -5.147155	 -0.931244	 0.186977
H	 -4.556489	 -0.495945	 -1.391634
H	 -4.207852	 -2.922181	 -0.970888
H	 -3.252583	 -2.558131	 0.454467
H	 -2.657058	 -2.119240	 -1.135806
C	 4.728119	 -1.109107	 -0.004993
H	 4.882018	 -1.033965	 -1.071845
H	 5.068212	 -2.067527	 0.355250
H	 5.265056	 -0.311663	 0.488280

	symmetry c1
}
set optking {
	frozen_dihedral = ("
		21 17 14 11
	")
}

ee = optimize('scf')
oeprop('DIPOLE', 'QUADRUPOLE', 'MULLIKEN_CHARGES')
f=open( 'psi4out.xyz', 'w' )
f.write( "29  " )
f.write( str(ee) + "\n" )
f.write( MOL.save_string_xyz() )
f.close()
--------------------------------------------------------------------------

    Molecular point group: c1
  Charge       = 0
  Multiplicity = 1
  Basis Set: 6-31G*
  Basis Set:
  @DF-RHF Final Energy:  -501.03769949135767
    Total Energy =                       -501.0376994913577846
    Molecular point group: c1
  Basis Set: 6-31G*
  Basis Set:
  Basis Set: 6-31G*
  Basis Set:
  @DF-RHF Final Energy:  -501.03836452181349
    Total Energy =                       -501.0383645218138327
  Basis Set: 6-31G*
  Basis Set:
  Basis Set: 6-31G*
  Basis Set:
  @DF-RHF Final Energy:  -501.03972903539557
    Total Energy =                       -501.0397290353955668
  Basis Set: 6-31G*
  Basis Set:
  Basis Set: 6-31G*
  Basis Set:
  @DF-RHF Final Energy:  -501.03983744177435
    Total Energy =                       -501.0398374417742389
  Basis Set: 6-31G*
  Basis Set:
  @DF-RHF Final Energy:  -501.03983449579505
    Total Energy =                       -501.0398344957955032
  @DF-RHF Final Energy:  -501.03977820215005
    Total Energy =                       -501.0397782021500461
  Basis Set: 6-31G*
  Basis Set:
  @DF-RHF Final Energy:  -501.03985100555838
    Total Energy =                       -501.0398510055583756
  Basis Set: 6-31G*
  Basis Set:
  Basis Set: 6-31G*
  Basis Set:
  @DF-RHF Final Energy:  -501.03984385271247
    Total Energy =                       -501.0398438527122380
  Basis Set: 6-31G*
  Basis Set:
  Basis Set: 6-31G*
  Basis Set:
  @DF-RHF Final Energy:  -501.03985222581662
    Total Energy =                       -501.0398522258160483
  Basis Set: 6-31G*
  Basis Set:
  Charge       = 0
  Multiplicity = 1
  Basis Set: 6-31G*
  Basis Set:

    Orbital Energies (a.u.)
    -----------------------

    Doubly Occupied:

       1A    -20.603363     2A    -20.545192     3A    -11.372006
       4A    -11.280651     5A    -11.234763     6A    -11.218991
       7A    -11.217499     8A    -11.216489     9A    -11.215483
      10A    -11.214796    11A    -11.209123    12A     -1.469063
      13A     -1.362506    14A     -1.097780    15A     -1.065586
      16A     -1.017706    17A     -0.975435    18A     -0.927942
      19A     -0.872703    20A     -0.804024    21A     -0.775151
      22A     -0.763621    23A     -0.700806    24A     -0.682255
      25A     -0.672100    26A     -0.645600    27A     -0.631291
      28A     -0.604075    29A     -0.594853    30A     -0.593491
      31A     -0.557221    32A     -0.552196    33A     -0.538827
      34A     -0.523891    35A     -0.520459    36A     -0.509487
      37A     -0.498221    38A     -0.477692    39A     -0.473093
      40A     -0.456706    41A     -0.455317    42A     -0.452151
      43A     -0.442495    44A     -0.435763

  @DF-RHF Final Energy:  -501.03985288370507

   => Energetics <=

    Nuclear Repulsion Energy =            618.3076863513932722
    One-Electron Energy =               -1907.7393507923015932
    Two-Electron Energy =                 788.3918115572031411
    DFT Exchange-Correlation Energy =       0.0000000000000000
    Empirical Dispersion Energy =           0.0000000000000000
    PCM Polarization Energy =               0.0000000000000000
    EFP Energy =                            0.0000000000000000
    Total Energy =                       -501.0398528837050662
    Molecular point group: c1
  Basis Set: 6-31G*
  Basis Set:

  -Total Gradient:
     Atom            X                  Y                   Z
    ------   -----------------  -----------------  -----------------
       1       -0.000009779549    -0.000023864281    -0.000040904708
       2        0.000028346378     0.000060957094     0.000115173560
       3       -0.000008162242    -0.000012618113    -0.000035718084
       4       -0.000006638394    -0.000016040167    -0.000032711905
       5        0.000002600010     0.000003222394     0.000000750145
       6       -0.000012206319    -0.000001307015     0.000000047406
       7        0.000007017169     0.000000100684    -0.000003691321
       8       -0.000009223642     0.000006958557    -0.000000813072
       9        0.000000165517    -0.000005674653     0.000002328013
      10        0.000005977911     0.000002568287    -0.000004623592
      11        0.000765690829    -0.002673958249     0.002952901068
      12        0.000004908905     0.000007955451     0.000006454768
      13        0.000000236907    -0.000002056633    -0.000005263572
      14       -0.000582207891     0.002914708476    -0.003631784576
      15       -0.000032496594    -0.000014539282    -0.000001359334
      16        0.000015497371     0.000008374675     0.000013576130
      17       -0.002488256938     0.003732903079    -0.001967758745
      18        0.000009760278     0.000021207781     0.000000127983
      19        0.000003439526    -0.000003827304    -0.000010221963
      20       -0.000013069055     0.000006889436    -0.000011376597
      21        0.002337769282    -0.004024489588     0.002654502184
      22       -0.000010502890    -0.000006209933     0.000011401363
      23       -0.000005980829    -0.000004752736    -0.000004219132
      24       -0.000001985930     0.000014545201     0.000002394258
      25       -0.000000357713     0.000009731643    -0.000007550325
      26       -0.000000664464    -0.000000428028    -0.000000518963
      27        0.000001322679    -0.000000259447    -0.000000456192
      28        0.000000145312    -0.000000357791    -0.000000786078
      29       -0.000001345628     0.000000260460     0.000000101283

  **** Optimization is complete! (in 10 steps) ****
    Final optimized geometry and variables:
    Molecular point group: c1

    Geometry (in Angstrom), charge = 0, multiplicity = 1:

    O            3.038705129032     1.118778205365    -0.568032675243
    C            2.525674967018     0.217241567659     0.012555050704
    C            1.070558302821     0.138355362375     0.406580302203
    O            3.186618804760    -0.866931442016     0.399012194278
    C            0.263934811482     1.359636360125    -0.029400452777
    H            0.676633870447    -0.781083279018    -0.013688302439
    H            1.034666292948     0.010789279497     1.485531732131
    C           -1.190256764194     1.344595184685     0.454250693270
    H            0.290837997625     1.439497538958    -1.111989178454
    H            0.754452051546     2.250186907897     0.348425313051
    C           -2.062657105220     0.244826028930    -0.158802112593
    H           -1.632443946783     2.310398052064     0.221628122802
    H           -1.210117846413     1.257924429945     1.539825792644
    C           -3.518711435209     0.332841148337     0.308026733538
    H           -2.017680864359     0.320285506257    -1.244940639920
    H           -1.661914595747    -0.730226537899     0.098084282008
    C           -4.493312414241    -0.665440098702    -0.342158670534
    H           -3.891368261814     1.341168438261     0.144888415351
    H           -3.533002617427     0.179824062983     1.386145057107
    C           -3.942449930759    -2.082138032361    -0.532384186670
    H           -5.366060760922    -0.749853835893     0.299950314240
    H           -4.831481355336    -0.283611742589    -1.301730714692
    H           -4.721385858625    -2.743742741120    -0.898836852467
    H           -3.578031043192    -2.493128810403     0.405495369076
    H           -3.127110162549    -2.112431271444    -1.247051363525
    C            4.567766195635    -0.921070543622     0.091771322648
    H            4.721433548296    -0.877106777680    -0.976857444389
    H            4.920152338976    -1.863267637577     0.481746519234
    H            5.093802655217    -0.101678774518     0.560193957616

  Mulliken Charges: (a.u.)
   Center  Symbol    Alpha    Beta     Spin     Total
       1     O     4.28595  4.28595  0.00000 -0.57191
       2     C     2.60480  2.60480  0.00000  0.79040
       3     C     3.20976  3.20976  0.00000 -0.41953
       4     O     4.30746  4.30746  0.00000 -0.61492
       5     C     3.15354  3.15354  0.00000 -0.30708
       6     H     0.39899  0.39899  0.00000  0.20201
       7     H     0.40125  0.40125  0.00000  0.19750
       8     C     3.15653  3.15653  0.00000 -0.31306
       9     H     0.41314  0.41314  0.00000  0.17373
      10     H     0.40878  0.40878  0.00000  0.18244
      11     C     3.15804  3.15804  0.00000 -0.31607
      12     H     0.41827  0.41827  0.00000  0.16346
      13     H     0.42407  0.42407  0.00000  0.15187
      14     C     3.15265  3.15265  0.00000 -0.30530
      15     H     0.42332  0.42332  0.00000  0.15336
      16     H     0.42010  0.42010  0.00000  0.15980
      17     C     3.15142  3.15142  0.00000 -0.30285
      18     H     0.42096  0.42096  0.00000  0.15808
      19     H     0.42434  0.42434  0.00000  0.15133
      20     C     3.24334  3.24334  0.00000 -0.48669
      21     H     0.42087  0.42087  0.00000  0.15826
      22     H     0.42171  0.42171  0.00000  0.15658
      23     H     0.41894  0.41894  0.00000  0.16212
      24     H     0.42271  0.42271  0.00000  0.15458
      25     H     0.41993  0.41993  0.00000  0.16013
      26     C     3.09241  3.09241  0.00000 -0.18482
      27     H     0.40908  0.40908  0.00000  0.18184
      28     H     0.40851  0.40851  0.00000  0.18299
      29     H     0.40913  0.40913  0.00000  0.18174

   Total alpha = 44.00000, Total beta = 44.00000, Total charge =  0.00000
