  ==> Input File <==

--------------------------------------------------------------------------
set {
	reference rhf
	basis cc-pvtz
}

set_num_threads( 4 )
memory 2 gb

molecule MOL {
0 1

H	 -1.934986	 0.172589	 -0.524657
N	 -1.173824	 -0.310545	 -0.096857
C	 -0.022588	 0.563366	 0.065815
H	 -1.495765	 -0.643633	 0.788027
C	 1.270420	 -0.230572	 -0.014245
H	 -0.045354	 1.293678	 -0.735129
H	 -0.043155	 1.123061	 1.001180
H	 1.336273	 -0.754933	 -0.959364
H	 2.130728	 0.422015	 0.082222
H	 1.323344	 -0.967006	 0.781773

	symmetry c1
}
set optking {
	frozen_dihedral = ("
		1 2 3 6
	")
}

ee = optimize('scf')
oeprop('DIPOLE', 'QUADRUPOLE', 'MULLIKEN_CHARGES')
f=open( 'psi4out.xyz', 'w' )
f.write( "10  " )
f.write( str(ee) + "\n" )
f.write( MOL.save_string_xyz() )
f.close()
--------------------------------------------------------------------------

    Molecular point group: c1
  Charge       = 0
  Multiplicity = 1
  Basis Set: CC-PVTZ
  Basis Set:
  @DF-RHF Final Energy:  -134.30318318613337
    Total Energy =                       -134.3031831861333103
    Molecular point group: c1
  Basis Set: CC-PVTZ
  Basis Set:
  Basis Set: CC-PVTZ
  Basis Set:
  @DF-RHF Final Energy:  -134.30338095710286
    Total Energy =                       -134.3033809571028883
  Basis Set: CC-PVTZ
  Basis Set:
  Basis Set: CC-PVTZ
  Basis Set:
  @DF-RHF Final Energy:  -134.30342768489470
    Total Energy =                       -134.3034276848947286
  Basis Set: CC-PVTZ
  Basis Set:
  Charge       = 0
  Multiplicity = 1
  Basis Set: CC-PVTZ
  Basis Set:

    Orbital Energies (a.u.)
    -----------------------

    Doubly Occupied:

       1A    -15.525392     2A    -11.241228     3A    -11.201106
       4A     -1.175650     5A     -0.987429     6A     -0.822338
       7A     -0.671379     8A     -0.626977     9A     -0.575663
      10A     -0.520826    11A     -0.512535    12A     -0.481079
      13A     -0.381725

  @DF-RHF Final Energy:  -134.30342944751379

   => Energetics <=

    Nuclear Repulsion Energy =             83.2846224691662655
    One-Electron Energy =                -345.7294494925072286
    Two-Electron Energy =                 128.1413975758271988
    DFT Exchange-Correlation Energy =       0.0000000000000000
    Empirical Dispersion Energy =           0.0000000000000000
    PCM Polarization Energy =               0.0000000000000000
    EFP Energy =                            0.0000000000000000
    Total Energy =                       -134.3034294475137642
    Molecular point group: c1
  Basis Set: CC-PVTZ
  Basis Set:

  -Total Gradient:
     Atom            X                  Y                   Z
    ------   -----------------  -----------------  -----------------
       1        0.000859450696    -0.000690267057    -0.002397200025
       2       -0.001476937406     0.001052388601     0.003328414063
       3        0.001963373509    -0.001831623221    -0.002339999522
       4        0.000012397544     0.000008463806     0.000003277803
       5       -0.000060534560    -0.000014817539     0.000071660647
       6       -0.001249786062     0.001465948266     0.001382941719
       7        0.000017399324    -0.000041923485    -0.000029292953
       8       -0.000031638615     0.000028052751     0.000002172147
       9       -0.000023027157     0.000021214491    -0.000006409228
      10       -0.000010697275     0.000002563387    -0.000015564650

  **** Optimization is complete! (in 4 steps) ****
    Final optimized geometry and variables:
    Molecular point group: c1

    Geometry (in Angstrom), charge = 0, multiplicity = 1:

    H           -1.947729638458     0.172485879305    -0.494966508330
    N           -1.178522648095    -0.307480964615    -0.083415707709
    C           -0.013729840153     0.554393499580     0.060735529365
    H           -1.474233039556    -0.690402755436     0.787784809068
    C            1.278713161945    -0.242248990404    -0.004569911661
    H           -0.037596666770     1.288905808995    -0.735938601606
    H           -0.036677233298     1.124462352865     0.988855941475
    H            1.353523464319    -0.766432393025    -0.949024758750
    H            2.140861871702     0.407486785348     0.104207454233
    H            1.314718013549    -0.980908650168     0.789334336781

  Mulliken Charges: (a.u.)
   Center  Symbol    Alpha    Beta     Spin     Total
       1     H     0.42558  0.42558  0.00000  0.14884
       2     N     3.69561  3.69561  0.00000 -0.39121
       3     C     3.02711  3.02711  0.00000 -0.05421
       4     H     0.42841  0.42841  0.00000  0.14318
       5     C     3.12815  3.12815  0.00000 -0.25630
       6     H     0.45751  0.45751  0.00000  0.08498
       7     H     0.46611  0.46611  0.00000  0.06777
       8     H     0.45273  0.45273  0.00000  0.09454
       9     H     0.45938  0.45938  0.00000  0.08124
      10     H     0.45941  0.45941  0.00000  0.08118

   Total alpha = 13.00000, Total beta = 13.00000, Total charge =  0.00000
