  ==> Input File <==

--------------------------------------------------------------------------
set {
	reference rhf
	basis cc-pvtz
}

set_num_threads( 4 )
memory 2 gb

molecule MOL {
0 1

H	 -2.698799	 -0.000846	 0.036018
C	 -1.694291	 -0.000483	 0.434279
O	 -0.828718	 -0.000608	 -0.655022
H	 -1.576855	 0.881100	 1.056504
H	 -1.576401	 -0.881658	 1.057001
C	 0.557892	 0.000078	 -0.420099
C	 1.273631	 -1.140231	 -1.135422
C	 1.199140	 1.353978	 -0.702953
H	 0.628515	 -0.182480	 0.644938
H	 0.770680	 -2.080111	 -0.943786
H	 2.292158	 -1.219328	 -0.773356
H	 1.319411	 -0.987123	 -2.207357
H	 0.644589	 2.143812	 -0.211344
H	 2.215011	 1.365535	 -0.325269
H	 1.242839	 1.573304	 -1.763390

	symmetry c1
}
set optking {
	frozen_dihedral = ("
		9 6 3 2
	")
}

ee = optimize('scf')
oeprop('DIPOLE', 'QUADRUPOLE', 'MULLIKEN_CHARGES')
f=open( 'psi4out.xyz', 'w' )
f.write( "15  " )
f.write( str(ee) + "\n" )
f.write( MOL.save_string_xyz() )
f.close()
--------------------------------------------------------------------------

    Molecular point group: c1
  Charge       = 0
  Multiplicity = 1
  Basis Set: CC-PVTZ
  Basis Set:
  @DF-RHF Final Energy:  -232.22513143682676
    Total Energy =                       -232.2251314368267003
    Molecular point group: c1
  Basis Set: CC-PVTZ
  Basis Set:
  Basis Set: CC-PVTZ
  Basis Set:
  @DF-RHF Final Energy:  -232.22826346396482
    Total Energy =                       -232.2282634639649359
  Basis Set: CC-PVTZ
  Basis Set:
  Basis Set: CC-PVTZ
  Basis Set:
  @DF-RHF Final Energy:  -232.22890430479970
    Total Energy =                       -232.2289043047994141
  Basis Set: CC-PVTZ
  Basis Set:
  Basis Set: CC-PVTZ
  Basis Set:
  @DF-RHF Final Energy:  -232.22893170635717
    Total Energy =                       -232.2289317063572867
  Basis Set: CC-PVTZ
  Basis Set:
  Basis Set: CC-PVTZ
  Basis Set:
  @DF-RHF Final Energy:  -232.22893466879415
    Total Energy =                       -232.2289346687941816
  Basis Set: CC-PVTZ
  Basis Set:
  Charge       = 0
  Multiplicity = 1
  Basis Set: CC-PVTZ
  Basis Set:

    Orbital Energies (a.u.)
    -----------------------

    Doubly Occupied:

       1A    -20.542215     2A    -11.272430     3A    -11.262176
       4A    -11.205676     5A    -11.205281     6A     -1.376726
       7A     -1.053645     8A     -0.937008     9A     -0.918672
      10A     -0.795983    11A     -0.670428    12A     -0.643884
      13A     -0.636861    14A     -0.580403    15A     -0.553887
      16A     -0.540679    17A     -0.537303    18A     -0.497788
      19A     -0.488167    20A     -0.458820    21A     -0.407249

  @DF-RHF Final Energy:  -232.22893481837312

   => Energetics <=

    Nuclear Repulsion Energy =            197.0799367912127593
    One-Electron Energy =                -705.4471826662107787
    Two-Electron Energy =                 276.1383110566248433
    DFT Exchange-Correlation Energy =       0.0000000000000000
    Empirical Dispersion Energy =           0.0000000000000000
    PCM Polarization Energy =               0.0000000000000000
    EFP Energy =                            0.0000000000000000
    Total Energy =                       -232.2289348183732045
    Molecular point group: c1
  Basis Set: CC-PVTZ
  Basis Set:

  -Total Gradient:
     Atom            X                  Y                   Z
    ------   -----------------  -----------------  -----------------
       1        0.000014042421     0.000000343407    -0.000013189684
       2       -0.000010420093    -0.000850001320     0.000028033948
       3        0.000033811058     0.001484344707     0.000059730713
       4        0.000000302411    -0.000005096913    -0.000008479224
       5        0.000000892182     0.000003092830    -0.000006461939
       6       -0.000000528507    -0.001647861716    -0.000223629865
       7        0.000017433726    -0.000004560447    -0.000004581420
       8        0.000013389836     0.000004931027     0.000001046876
       9       -0.000038889733     0.001018979024     0.000177040250
      10        0.000000487464    -0.000005608762     0.000003002938
      11       -0.000017826274     0.000006504718    -0.000002643164
      12        0.000002793686    -0.000000964616    -0.000007167511
      13       -0.000001933396     0.000004872851     0.000004270658
      14       -0.000015583245    -0.000006483869    -0.000004174801
      15        0.000002028463    -0.000002490923    -0.000002797777

  **** Optimization is complete! (in 6 steps) ****
    Final optimized geometry and variables:
    Molecular point group: c1

    Geometry (in Angstrom), charge = 0, multiplicity = 1:

    H           -2.771987366908    -0.013817152273     0.432381307900
    C           -1.774626436038    -0.035369966399     0.848075704701
    O           -0.875885446040    -0.041813524721    -0.210917308300
    H           -1.647891659430     0.838166471876     1.483871823504
    H           -1.675294821061    -0.925983132389     1.464390096498
    C            0.488881213927    -0.051134850650     0.131028311231
    C            1.166831550812    -1.182295656863    -0.622837795430
    C            1.098380851925     1.306412012391    -0.186883933266
    H            0.588048712360    -0.229948216259     1.199134501404
    H            0.721509722094    -2.134184868420    -0.360848950071
    H            2.225350666741    -1.222082178008    -0.391443333019
    H            1.053385430976    -1.039300536349    -1.691065329338
    H            0.588035743515     2.092173393946     0.357425057754
    H            2.148381907025     1.333208709031     0.082798062246
    H            1.009051386738     1.517544344302    -1.246038371417

  Mulliken Charges: (a.u.)
   Center  Symbol    Alpha    Beta     Spin     Total
       1     H     0.44943  0.44943  0.00000  0.10115
       2     C     3.03356  3.03356  0.00000 -0.06712
       3     O     4.18819  4.18819  0.00000 -0.37638
       4     H     0.47127  0.47127  0.00000  0.05745
       5     H     0.47000  0.47000  0.00000  0.06000
       6     C     2.92077  2.92077  0.00000  0.15847
       7     C     3.13836  3.13836  0.00000 -0.27673
       8     C     3.13908  3.13908  0.00000 -0.27816
       9     H     0.46846  0.46846  0.00000  0.06307
      10     H     0.45024  0.45024  0.00000  0.09951
      11     H     0.45800  0.45800  0.00000  0.08400
      12     H     0.45232  0.45232  0.00000  0.09535
      13     H     0.45129  0.45129  0.00000  0.09741
      14     H     0.45630  0.45630  0.00000  0.08741
      15     H     0.45273  0.45273  0.00000  0.09455

   Total alpha = 21.00000, Total beta = 21.00000, Total charge =  0.00000
