  ==> Input File <==

--------------------------------------------------------------------------
set {
	reference rhf
	basis 6-31G*
}

set_num_threads( 4 )
memory 2 gb

molecule MOL {
0 1

O	 1.589393	 1.743790	 0.490967
C	 0.939996	 1.446181	 1.441141
C	 -0.368203	 0.694160	 1.410421
O	 1.295092	 1.742260	 2.685079
C	 -0.823008	 0.326187	 0.001381
H	 -0.248488	 -0.190941	 2.029274
H	 -1.108253	 1.309361	 1.914974
C	 -2.149452	 -0.435131	 -0.000098
H	 -0.054037	 -0.271430	 -0.477916
H	 -0.915791	 1.230380	 -0.592029
C	 -3.368779	 0.488503	 -0.000883
H	 -2.193746	 -1.087250	 -0.871175
H	 -2.195311	 -1.087803	 0.870418
C	 -4.693822	 -0.272754	 -0.001129
H	 -3.325798	 1.139422	 -0.871284
H	 -3.326423	 1.139959	 0.869145
H	 -4.781274	 -0.907928	 -0.878124
H	 -5.538651	 0.408946	 -0.001420
H	 -4.781694	 -0.907783	 0.875984
C	 2.510153	 2.449014	 2.855607
H	 3.340132	 1.877578	 2.465577
H	 2.621562	 2.592138	 3.919082
H	 2.468423	 3.403855	 2.351579

	symmetry c1
}
set optking {
	frozen_dihedral = ("
		9 5 8 12
	")
}

ee = optimize('scf')
oeprop('DIPOLE', 'QUADRUPOLE', 'MULLIKEN_CHARGES')
f=open( 'psi4out.xyz', 'w' )
f.write( "23  " )
f.write( str(ee) + "\n" )
f.write( MOL.save_string_xyz() )
f.close()
--------------------------------------------------------------------------

    Molecular point group: c1
  Charge       = 0
  Multiplicity = 1
  Basis Set: 6-31G*
  Basis Set:
  @DF-RHF Final Energy:  -422.97335773776081
    Total Energy =                       -422.9733577377603524
    Molecular point group: c1
  Basis Set: 6-31G*
  Basis Set:
  Basis Set: 6-31G*
  Basis Set:
  @DF-RHF Final Energy:  -422.97355041664702
    Total Energy =                       -422.9735504166474129
  Basis Set: 6-31G*
  Basis Set:
  Basis Set: 6-31G*
  Basis Set:
  @DF-RHF Final Energy:  -422.97323796394500
    Total Energy =                       -422.9732379639449391
  Basis Set: 6-31G*
  Basis Set:
  Basis Set: 6-31G*
  Basis Set:
  @DF-RHF Final Energy:  -422.97361252783384
    Total Energy =                       -422.9736125278334384
  Basis Set: 6-31G*
  Basis Set:
  Basis Set: 6-31G*
  Basis Set:
  @DF-RHF Final Energy:  -422.97361285914690
    Total Energy =                       -422.9736128591471243
  Basis Set: 6-31G*
  Basis Set:
  Basis Set: 6-31G*
  Basis Set:
  @DF-RHF Final Energy:  -422.97361948459741
    Total Energy =                       -422.9736194845978616
  Basis Set: 6-31G*
  Basis Set:
  Charge       = 0
  Multiplicity = 1
  Basis Set: 6-31G*
  Basis Set:

    Orbital Energies (a.u.)
    -----------------------

    Doubly Occupied:

       1A    -20.603644     2A    -20.545486     3A    -11.372259
       4A    -11.280861     5A    -11.235582     6A    -11.219135
       7A    -11.218485     8A    -11.217611     9A    -11.210693
      10A     -1.469334    11A     -1.362791    12A     -1.092987
      13A     -1.042662    14A     -0.986903    15A     -0.932577
      16A     -0.848274    17A     -0.793697    18A     -0.766161
      19A     -0.701319    20A     -0.682288    21A     -0.672524
      22A     -0.630523    23A     -0.626743    24A     -0.598831
      25A     -0.575380    26A     -0.558033    27A     -0.555576
      28A     -0.528247    29A     -0.520718    30A     -0.503183
      31A     -0.493764    32A     -0.469149    33A     -0.464801
      34A     -0.458323    35A     -0.452375    36A     -0.436837

  @DF-RHF Final Energy:  -422.97361964213638

   => Energetics <=

    Nuclear Repulsion Energy =            456.3348590096958901
    One-Electron Energy =               -1480.3614437206358616
    Two-Electron Energy =                 601.0529650688031325
    DFT Exchange-Correlation Energy =       0.0000000000000000
    Empirical Dispersion Energy =           0.0000000000000000
    PCM Polarization Energy =               0.0000000000000000
    EFP Energy =                            0.0000000000000000
    Total Energy =                       -422.9736196421367822
    Molecular point group: c1
  Basis Set: 6-31G*
  Basis Set:

  -Total Gradient:
     Atom            X                  Y                   Z
    ------   -----------------  -----------------  -----------------
       1        0.000003703687    -0.000001026592    -0.000000367106
       2       -0.000010804343     0.000011608492     0.000004055757
       3        0.000007270517    -0.000013900512    -0.000002844025
       4        0.000009360317    -0.000005263668    -0.000001333206
       5        0.001006103720    -0.001987573939     0.003463512292
       6       -0.000003831608     0.000002337784    -0.000002174697
       7       -0.000003046091     0.000003871559    -0.000003379304
       8       -0.001527802178     0.002904841470    -0.002432581870
       9       -0.000604404763     0.001195600856    -0.002503102133
      10       -0.000005862274     0.000002056565     0.000002594445
      11        0.000003300128    -0.000004149180    -0.000007985694
      12        0.001121672818    -0.002117855296     0.001475310060
      13        0.000005349706     0.000005066514     0.000004825563
      14        0.000000240270     0.000003686186     0.000002185062
      15        0.000000728281     0.000001842083     0.000000075533
      16        0.000002677614    -0.000004648755    -0.000001124573
      17        0.000000405753     0.000001728003     0.000000732757
      18       -0.000004551792    -0.000001083194     0.000000879052
      19        0.000000489135    -0.000000611090    -0.000000554547
      20       -0.000002223042     0.000005840410     0.000001173677
      21       -0.000000537174    -0.000001374379    -0.000000448001
      22        0.000000550714    -0.000000667663    -0.000000050411
      23        0.000001210595    -0.000000325659     0.000000601366

  **** Optimization is complete! (in 7 steps) ****
    Final optimized geometry and variables:
    Molecular point group: c1

    Geometry (in Angstrom), charge = 0, multiplicity = 1:

    O            2.123357693939     0.817523828823    -0.514114720871
    C            1.477778297135     0.515159020762     0.437133984666
    C            0.174439437092    -0.245530290575     0.409118799267
    O            1.831834020400     0.815651227539     1.680381562292
    C           -0.275935843948    -0.621660384425    -0.999623143192
    H            0.302164368404    -1.129547095589     1.027743444799
    H           -0.566200358505     0.365657367308     0.916497625327
    C           -1.623975687344    -1.358096726956    -1.026546883831
    H            0.488214924639    -1.226731859918    -1.475060902168
    H           -0.340783720165     0.278462789902    -1.603475341568
    C           -2.843482215015    -0.433843135131    -1.010370202964
    H           -1.664168109497    -1.996000557675    -1.905947057068
    H           -1.681294236150    -2.039182411926    -0.178073539573
    C           -4.167250804739    -1.197236151853    -1.001124397730
    H           -2.807655501393     0.217252132176    -1.880774439875
    H           -2.801322068220     0.218409321819    -0.140751495071
    H           -4.256265797509    -1.836494623278    -1.874949870565
    H           -5.013547898009    -0.517378556404    -1.001232636543
    H           -4.250183543690    -1.828717722849    -0.121029608458
    C            3.042097244343     1.531161003310     1.848762133449
    H            3.875749402973     0.964839337675     1.459121326200
    H            3.153334751307     1.676828244214     2.911952979569
    H            2.993308960806     2.484845872220     1.343178485804

  Mulliken Charges: (a.u.)
   Center  Symbol    Alpha    Beta     Spin     Total
       1     O     4.28589  4.28589  0.00000 -0.57177
       2     C     2.60534  2.60534  0.00000  0.78932
       3     C     3.20836  3.20836  0.00000 -0.41672
       4     O     4.30738  4.30738  0.00000 -0.61476
       5     C     3.15578  3.15578  0.00000 -0.31157
       6     H     0.40045  0.40045  0.00000  0.19911
       7     H     0.39994  0.39994  0.00000  0.20013
       8     C     3.15700  3.15700  0.00000 -0.31401
       9     H     0.40956  0.40956  0.00000  0.18089
      10     H     0.41093  0.41093  0.00000  0.17814
      11     C     3.15265  3.15265  0.00000 -0.30530
      12     H     0.41787  0.41787  0.00000  0.16426
      13     H     0.42465  0.42465  0.00000  0.15071
      14     C     3.23961  3.23961  0.00000 -0.47921
      15     H     0.42042  0.42042  0.00000  0.15916
      16     H     0.42397  0.42397  0.00000  0.15207
      17     H     0.42089  0.42089  0.00000  0.15822
      18     H     0.41862  0.41862  0.00000  0.16277
      19     H     0.42168  0.42168  0.00000  0.15665
      20     C     3.09245  3.09245  0.00000 -0.18490
      21     H     0.40906  0.40906  0.00000  0.18189
      22     H     0.40846  0.40846  0.00000  0.18309
      23     H     0.40907  0.40907  0.00000  0.18187

   Total alpha = 36.00000, Total beta = 36.00000, Total charge = -0.00000
