  ==> Input File <==

--------------------------------------------------------------------------
set {
	reference rhf
	basis 6-31G*
}

set_num_threads( 4 )
memory 2 gb

molecule MOL {
0 1

O	 -0.682937	 1.318834	 -0.186099
C	 -0.860635	 0.152188	 -0.042321
C	 -2.173363	 -0.477127	 0.338347
O	 0.083258	 -0.765189	 -0.202595
H	 -2.477673	 -1.180929	 -0.427595
H	 -2.923125	 0.290956	 0.455536
H	 -2.058825	 -1.029004	 1.264191
C	 1.391937	 -0.334737	 -0.569838
C	 1.410870	 0.259766	 -1.965852
H	 2.075018	 -1.166539	 -0.488319
H	 1.650707	 0.408064	 0.170962
H	 2.401035	 0.646333	 -2.186915
H	 1.165043	 -0.489602	 -2.707732
H	 0.701350	 1.076564	 -2.042259

	symmetry c1
}
set optking {
	frozen_dihedral = ("
		10 8 4 2
	")
}

ee = optimize('scf')
oeprop('DIPOLE', 'QUADRUPOLE', 'MULLIKEN_CHARGES')
f=open( 'psi4out.xyz', 'w' )
f.write( "14  " )
f.write( str(ee) + "\n" )
f.write( MOL.save_string_xyz() )
f.close()
--------------------------------------------------------------------------

    Molecular point group: c1
  Charge       = 0
  Multiplicity = 1
  Basis Set: 6-31G*
  Basis Set:
  @DF-RHF Final Energy:  -305.87173097109542
    Total Energy =                       -305.8717309710953032
    Molecular point group: c1
  Basis Set: 6-31G*
  Basis Set:
  Basis Set: 6-31G*
  Basis Set:
  @DF-RHF Final Energy:  -305.87427368848387
    Total Energy =                       -305.8742736884838678
  Basis Set: 6-31G*
  Basis Set:
  Basis Set: 6-31G*
  Basis Set:
  @DF-RHF Final Energy:  -305.87465216135229
    Total Energy =                       -305.8746521613518325
  Basis Set: 6-31G*
  Basis Set:
  Basis Set: 6-31G*
  Basis Set:
  @DF-RHF Final Energy:  -305.87472127576530
    Total Energy =                       -305.8747212757655234
  Basis Set: 6-31G*
  Basis Set:
  Basis Set: 6-31G*
  Basis Set:
  @DF-RHF Final Energy:  -305.87480834590883
    Total Energy =                       -305.8748083459084910
  Basis Set: 6-31G*
  Basis Set:
  Basis Set: 6-31G*
  Basis Set:
  @DF-RHF Final Energy:  -305.87481010160474
    Total Energy =                       -305.8748101016049077
  Basis Set: 6-31G*
  Basis Set:
  Charge       = 0
  Multiplicity = 1
  Basis Set: 6-31G*
  Basis Set:

    Orbital Energies (a.u.)
    -----------------------

    Doubly Occupied:

       1A    -20.601952     2A    -20.544627     3A    -11.375815
       4A    -11.286638     5A    -11.233276     6A    -11.216819
       7A     -1.467586     8A     -1.362900     9A     -1.054615
      10A     -0.998382    11A     -0.884640    12A     -0.761217
      13A     -0.699414    14A     -0.681584    15A     -0.658727
      16A     -0.611482    17A     -0.587554    18A     -0.570296
      19A     -0.556260    20A     -0.529799    21A     -0.514379
      22A     -0.495334    23A     -0.451209    24A     -0.437323

  @DF-RHF Final Energy:  -305.87481045789889

   => Energetics <=

    Nuclear Repulsion Energy =            249.4925069489035252
    One-Electron Energy =                -911.5709754089089074
    Two-Electron Energy =                 356.2036580021068062
    DFT Exchange-Correlation Energy =       0.0000000000000000
    Empirical Dispersion Energy =           0.0000000000000000
    PCM Polarization Energy =               0.0000000000000000
    EFP Energy =                            0.0000000000000000
    Total Energy =                       -305.8748104578986045
    Molecular point group: c1
  Basis Set: 6-31G*
  Basis Set:

  -Total Gradient:
     Atom            X                  Y                   Z
    ------   -----------------  -----------------  -----------------
       1       -0.000001077206    -0.000011168007     0.000008582350
       2       -0.000664475429    -0.000207288241    -0.002578624640
       3       -0.000023451080     0.000001499047    -0.000065416443
       4        0.000882126936     0.000170455310     0.003220769621
       5        0.000009129043    -0.000010539896     0.000022148755
       6       -0.000003195513    -0.000000975676     0.000011541051
       7        0.000003387931     0.000014645597     0.000020866863
       8        0.000384780332     0.000723015897     0.002208533214
       9        0.000014787346     0.000024421015     0.000000039341
      10       -0.000590018138    -0.000716683452    -0.002833521307
      11       -0.000002126967     0.000004758983    -0.000011060250
      12        0.000002653953    -0.000001220627    -0.000009997260
      13       -0.000000585928     0.000001084280     0.000015183203
      14       -0.000011935280     0.000007995769    -0.000009044501

  **** Optimization is complete! (in 7 steps) ****
    Final optimized geometry and variables:
    Molecular point group: c1

    Geometry (in Angstrom), charge = 0, multiplicity = 1:

    O           -0.578165077913     1.295506117267     0.351933394318
    C           -0.735479372108     0.119145941193     0.421313443740
    C           -2.041309958239    -0.555613478652     0.744031766815
    O            0.231208087716    -0.768784032268     0.236875873878
    H           -2.323997830592    -1.213708013480    -0.069470822736
    H           -2.806016736587     0.190540758416     0.900073044662
    H           -1.928180921965    -1.163930956944     1.633912701210
    C            1.525587319913    -0.304823712418    -0.141041058251
    C            1.569060208247     0.202558418675    -1.572736699870
    H            2.152288152774    -1.179709574020    -0.048053721058
    H            1.851063857181     0.451599298835     0.558405827774
    H            2.595770799157     0.433377121903    -1.840489816197
    H            1.206258874500    -0.560057329997    -2.254024784301
    H            0.974589913381     1.097026500953    -1.695090415562

  Mulliken Charges: (a.u.)
   Center  Symbol    Alpha    Beta     Spin     Total
       1     O     4.28453  4.28453  0.00000 -0.56906
       2     C     2.61934  2.61934  0.00000  0.76132
       3     C     3.28151  3.28151  0.00000 -0.56303
       4     O     4.30795  4.30795  0.00000 -0.61590
       5     H     0.40078  0.40078  0.00000  0.19843
       6     H     0.39712  0.39712  0.00000  0.20576
       7     H     0.39998  0.39998  0.00000  0.20003
       8     C     3.00278  3.00278  0.00000 -0.00555
       9     C     3.25999  3.25999  0.00000 -0.51998
      10     H     0.40953  0.40953  0.00000  0.18093
      11     H     0.40653  0.40653  0.00000  0.18694
      12     H     0.41768  0.41768  0.00000  0.16464
      13     H     0.41553  0.41553  0.00000  0.16895
      14     H     0.39674  0.39674  0.00000  0.20652

   Total alpha = 24.00000, Total beta = 24.00000, Total charge =  0.00000
