  ==> Input File <==

--------------------------------------------------------------------------
set {
	reference rhf
	basis 6-31G*
}

set_num_threads( 1 )
memory 2 gb

molecule MOL {
0 1

O	 0.986664	 0.274161	 -0.931987
C	 1.705091	 0.115954	 0.001797
C	 1.595121	 0.831865	 1.325899
O	 2.721346	 -0.737485	 -0.000216
C	 0.439081	 1.825794	 1.383518
H	 1.501126	 0.073352	 2.098258
H	 2.546640	 1.323552	 1.509135
C	 0.350659	 2.535490	 2.735395
H	 -0.490905	 1.304852	 1.178741
H	 0.556199	 2.556975	 0.589814
C	 -0.804221	 3.535686	 2.811022
H	 0.236915	 1.796750	 3.527431
H	 1.287019	 3.054002	 2.936037
C	 -0.891316	 4.245362	 4.161587
H	 -1.740635	 3.018778	 2.613346
H	 -0.691535	 4.274805	 2.020994
H	 -1.039072	 3.534405	 4.969623
H	 -1.718955	 4.947479	 4.183894
H	 0.018628	 4.800080	 4.372773
C	 4.024888	 -0.184556	 -0.001949
H	 4.179030	 0.422472	 -0.882452
H	 4.701782	 -1.024608	 -0.003642
H	 4.181981	 0.421185	 0.878906

	symmetry c1
}
set optking {
	frozen_dihedral = ("
		15 11 8 12,
		9 5 8 12,
		1 2 3 6,
		9 5 3 6
	")
}

ee = energy('scf')
oeprop('DIPOLE', 'QUADRUPOLE', 'MULLIKEN_CHARGES')
f=open( 'psi4out.xyz', 'w' )
f.write( "23  " )
f.write( str(ee) + "\n" )
f.write( MOL.save_string_xyz() )
f.close()
--------------------------------------------------------------------------

    Molecular point group: c1

    Geometry (in Angstrom), charge = 0, multiplicity = 1:

       Center              X                  Y                   Z               Mass
    ------------   -----------------  -----------------  -----------------  -----------------
           O         -0.166108722343    -1.095554113189    -2.195054311132    15.994914619560
           C          0.552318277657    -1.253761113189    -1.261270311132    12.000000000000
           C          0.442348277657    -0.537850113189     0.062831688868    12.000000000000
           O          1.568573277657    -2.107200113189    -1.263283311132    15.994914619560
           C         -0.713691722343     0.456078886811     0.120450688868    12.000000000000
           H          0.348353277657    -1.296363113189     0.835190688868     1.007825032070
           H          1.393867277657    -0.046163113189     0.246067688868     1.007825032070
           C         -0.802113722343     1.165774886811     1.472327688868    12.000000000000
           H         -1.643677722343    -0.064863113189    -0.084326311132     1.007825032070
           H         -0.596573722343     1.187259886811    -0.673253311132     1.007825032070
           C         -1.956993722343     2.165970886811     1.547954688868    12.000000000000
           H         -0.915857722343     0.427034886811     2.264363688868     1.007825032070
           H          0.134246277657     1.684286886811     1.672969688868     1.007825032070
           C         -2.044088722343     2.875646886811     2.898519688868    12.000000000000
           H         -2.893407722343     1.649062886811     1.350278688868     1.007825032070
           H         -1.844307722343     2.905089886811     0.757926688868     1.007825032070
           H         -2.191844722343     2.164689886811     3.706555688868     1.007825032070
           H         -2.871727722343     3.577763886811     2.920826688868     1.007825032070
           H         -1.134144722343     3.430364886811     3.109705688868     1.007825032070
           C          2.872115277657    -1.554271113189    -1.265016311132    12.000000000000
           H          3.026257277657    -0.947243113189    -2.145519311132     1.007825032070
           H          3.549009277657    -2.394323113189    -1.266709311132     1.007825032070
           H          3.029208277657    -0.948530113189    -0.384161311132     1.007825032070

  Charge       = 0
  Multiplicity = 1
  Basis Set: 6-31G*
  Basis Set:

    Orbital Energies (a.u.)
    -----------------------

    Doubly Occupied:

       1A    -20.590161     2A    -20.554251     3A    -11.373903
       4A    -11.296988     5A    -11.237938     6A    -11.221168
       7A    -11.219932     8A    -11.218080     9A    -11.211196
      10A     -1.464365    11A     -1.368739    12A     -1.094496
      13A     -1.041300    14A     -0.986791    15A     -0.948388
      16A     -0.852555    17A     -0.797636    18A     -0.768065
      19A     -0.696068    20A     -0.682264    21A     -0.679230
      22A     -0.651932    23A     -0.622671    24A     -0.604792
      25A     -0.580263    26A     -0.567482    27A     -0.558972
      28A     -0.541204    29A     -0.510410    30A     -0.497031
      31A     -0.483579    32A     -0.479783    33A     -0.470292
      34A     -0.467505    35A     -0.451809    36A     -0.429740

  @DF-RHF Final Energy:  -422.95200446946370

   => Energetics <=

    Nuclear Repulsion Energy =            455.4557023171766446
    One-Electron Energy =               -1478.3733355045415010
    Two-Electron Energy =                 599.9656287179025185
    DFT Exchange-Correlation Energy =       0.0000000000000000
    Empirical Dispersion Energy =           0.0000000000000000
    PCM Polarization Energy =               0.0000000000000000
    EFP Energy =                            0.0000000000000000
    Total Energy =                       -422.9520044694622811

  Mulliken Charges: (a.u.)
   Center  Symbol    Alpha    Beta     Spin     Total
       1     O     4.25841  4.25841  0.00000 -0.51682
       2     C     2.61132  2.61132  0.00000  0.77736
       3     C     3.21990  3.21990  0.00000 -0.43980
       4     O     4.30730  4.30730  0.00000 -0.61459
       5     C     3.15179  3.15179  0.00000 -0.30358
       6     H     0.39857  0.39857  0.00000  0.20286
       7     H     0.40811  0.40811  0.00000  0.18379
       8     C     3.15298  3.15298  0.00000 -0.30596
       9     H     0.40994  0.40994  0.00000  0.18012
      10     H     0.41268  0.41268  0.00000  0.17464
      11     C     3.15165  3.15165  0.00000 -0.30330
      12     H     0.42388  0.42388  0.00000  0.15223
      13     H     0.42563  0.42563  0.00000  0.14874
      14     C     3.23960  3.23960  0.00000 -0.47920
      15     H     0.42069  0.42069  0.00000  0.15861
      16     H     0.42142  0.42142  0.00000  0.15716
      17     H     0.42167  0.42167  0.00000  0.15665
      18     H     0.41812  0.41812  0.00000  0.16375
      19     H     0.42223  0.42223  0.00000  0.15554
      20     C     3.09556  3.09556  0.00000 -0.19111
      21     H     0.40986  0.40986  0.00000  0.18028
      22     H     0.39929  0.39929  0.00000  0.20142
      23     H     0.41939  0.41939  0.00000  0.16122

   Total alpha = 36.00000, Total beta = 36.00000, Total charge = -0.00000
