  ==> Input File <==

--------------------------------------------------------------------------
set {
	reference rhf
	basis 6-31G*
}

set_num_threads( 1 )
memory 2 gb

molecule MOL {
0 1

H	 -3.420663	 1.227371	 -1.044276
O	 -3.452007	 0.283848	 -0.965577
C	 -3.181085	 -0.079926	 0.364119
C	 -1.765924	 0.277073	 0.805136
H	 -3.327791	 -1.152017	 0.410903
H	 -3.905698	 0.375695	 1.036898
C	 -0.677594	 -0.417312	 -0.014550
H	 -1.637766	 1.358238	 0.744969
H	 -1.659588	 0.017670	 1.857098
C	 0.738335	 -0.034840	 0.421385
H	 -0.814977	 -0.178223	 -1.064632
H	 -0.802730	 -1.495410	 0.071702
C	 1.822265	 -0.738362	 -0.399735
H	 0.853533	 1.043532	 0.342250
H	 0.871597	 -0.279636	 1.474438
C	 2.323758	 0.053742	 -1.612679
H	 1.449967	 -1.705971	 -0.732636
H	 2.669724	 -0.947632	 0.249754
C	 1.278474	 0.267262	 -2.709125
H	 3.173783	 -0.472687	 -2.040018
H	 2.701278	 1.018901	 -1.280793
H	 0.873674	 -0.681256	 -3.052040
H	 1.716611	 0.767860	 -3.567190
H	 0.448710	 0.876647	 -2.366626

	symmetry c1
}
set optking {
	frozen_dihedral = ("
		20 16 13 17,
		13 10 7 11,
		11 7 4 3,
		1 2 3 5,
		7 4 3 2
	")
}

ee = energy('scf')
oeprop('DIPOLE', 'QUADRUPOLE', 'MULLIKEN_CHARGES')
f=open( 'psi4out.xyz', 'w' )
f.write( "24  " )
f.write( str(ee) + "\n" )
f.write( MOL.save_string_xyz() )
f.close()
--------------------------------------------------------------------------

    Molecular point group: c1

    Geometry (in Angstrom), charge = 0, multiplicity = 1:

       Center              X                  Y                   Z               Mass
    ------------   -----------------  -----------------  -----------------  -----------------
           H         -2.993756033195     1.259724783937    -0.508451328736     1.007825032070
           O         -3.025100033195     0.316201783937    -0.429752328736    15.994914619560
           C         -2.754178033195    -0.047572216063     0.899943671264    12.000000000000
           C         -1.339017033195     0.309426783937     1.340960671264    12.000000000000
           H         -2.900884033195    -1.119663216063     0.946727671264     1.007825032070
           H         -3.478791033195     0.408048783937     1.572722671264     1.007825032070
           C         -0.250687033195    -0.384958216063     0.521274671264    12.000000000000
           H         -1.210859033195     1.390591783937     1.280793671264     1.007825032070
           H         -1.232681033195     0.050023783937     2.392922671264     1.007825032070
           C          1.165241966805    -0.002486216063     0.957209671264    12.000000000000
           H         -0.388070033195    -0.145869216063    -0.528807328736     1.007825032070
           H         -0.375823033195    -1.463056216063     0.607526671264     1.007825032070
           C          2.249171966805    -0.706008216063     0.136089671264    12.000000000000
           H          1.280439966805     1.075885783937     0.878074671264     1.007825032070
           H          1.298503966805    -0.247282216063     2.010262671264     1.007825032070
           C          2.750664966805     0.086095783937    -1.076854328736    12.000000000000
           H          1.876873966805    -1.673617216063    -0.196811328736     1.007825032070
           H          3.096630966805    -0.915278216063     0.785578671264     1.007825032070
           C          1.705380966805     0.299615783937    -2.173300328736    12.000000000000
           H          3.600689966805    -0.440333216063    -1.504193328736     1.007825032070
           H          3.128184966805     1.051254783937    -0.744968328736     1.007825032070
           H          1.300580966805    -0.648902216063    -2.516215328736     1.007825032070
           H          2.143517966805     0.800213783937    -3.031365328736     1.007825032070
           H          0.875616966805     0.909000783937    -1.830801328736     1.007825032070

  Charge       = 0
  Multiplicity = 1
  Basis Set: 6-31G*
  Basis Set:

    Orbital Energies (a.u.)
    -----------------------

    Doubly Occupied:

       1A    -20.553545     2A    -11.267388     3A    -11.216591
       4A    -11.213479     5A    -11.211699     6A    -11.210552
       7A    -11.209368     8A    -11.205883     9A     -1.360078
      10A     -1.089561    11A     -1.045882    12A     -0.984132
      13A     -0.917991    14A     -0.848942    15A     -0.800481
      16A     -0.775213    17A     -0.679325    18A     -0.654539
      19A     -0.624180    20A     -0.615513    21A     -0.598003
      22A     -0.585063    23A     -0.558541    24A     -0.532570
      25A     -0.527613    26A     -0.508517    27A     -0.493049
      28A     -0.478415    29A     -0.466913    30A     -0.460859
      31A     -0.454545    32A     -0.441337    33A     -0.417814

  @DF-RHF Final Energy:  -349.24217747786867

   => Energetics <=

    Nuclear Repulsion Energy =            395.4144946030776850
    One-Electron Energy =               -1257.2980890953572271
    Two-Electron Energy =                 512.6414170144123545
    DFT Exchange-Correlation Energy =       0.0000000000000000
    Empirical Dispersion Energy =           0.0000000000000000
    PCM Polarization Energy =               0.0000000000000000
    EFP Energy =                            0.0000000000000000
    Total Energy =                       -349.2421774778672443

  Mulliken Charges: (a.u.)
   Center  Symbol    Alpha    Beta     Spin     Total
       1     H     0.28347  0.28347  0.00000  0.43307
       2     O     4.36822  4.36822  0.00000 -0.73643
       3     C     2.99608  2.99608  0.00000  0.00784
       4     C     3.16895  3.16895  0.00000 -0.33791
       5     H     0.41642  0.41642  0.00000  0.16715
       6     H     0.42833  0.42833  0.00000  0.14334
       7     C     3.15671  3.15671  0.00000 -0.31342
       8     H     0.42885  0.42885  0.00000  0.14229
       9     H     0.42254  0.42254  0.00000  0.15492
      10     C     3.15552  3.15552  0.00000 -0.31104
      11     H     0.40709  0.40709  0.00000  0.18582
      12     H     0.42351  0.42351  0.00000  0.15298
      13     C     3.15571  3.15571  0.00000 -0.31142
      14     H     0.42377  0.42377  0.00000  0.15245
      15     H     0.42215  0.42215  0.00000  0.15571
      16     C     3.15129  3.15129  0.00000 -0.30258
      17     H     0.42207  0.42207  0.00000  0.15586
      18     H     0.42071  0.42071  0.00000  0.15858
      19     C     3.24209  3.24209  0.00000 -0.48417
      20     H     0.42181  0.42181  0.00000  0.15639
      21     H     0.42395  0.42395  0.00000  0.15209
      22     H     0.42020  0.42020  0.00000  0.15960
      23     H     0.41977  0.41977  0.00000  0.16047
      24     H     0.42079  0.42079  0.00000  0.15842

   Total alpha = 33.00000, Total beta = 33.00000, Total charge = -0.00000
