                              Psi4 1.0.54 Driver

  ==> Input File <==

--------------------------------------------------------------------------
set {
	reference rhf
	basis cc-pvtz
}

set_num_threads( 4 )
memory 2 gb

molecule MOL {
0 1

H	 -2.644180	 -0.653737	 1.272255
C	 -2.092774	 -0.380414	 0.391915
O	 -0.808934	 -0.154049	 0.752536
F	 -2.163230	 -1.351640	 -0.507133
F	 -2.627232	 0.691260	 -0.169301
C	 0.085006	 0.250800	 -0.215074
C	 1.484339	 0.161951	 0.389285
Cl	 -0.246971	 1.911922	 -0.740433
H	 0.058194	 -0.374347	 -1.090356
F	 2.386184	 0.521330	 -0.488522
F	 1.724462	 -1.082281	 0.729200
F	 1.612960	 0.908493	 1.451539

	symmetry c1
}
set optking {
	frozen_dihedral = ("
		9 6 3 2
	")
}

ee,wfn = optimize('scf', return_wfn=True)
oeprop( wfn, 'DIPOLE', 'QUADRUPOLE', 'MULLIKEN_CHARGES')
f=open( 'psi4out.xyz', 'w' )
f.write( "12  " )
f.write( str(ee) + "\n" )
f.write( MOL.save_string_xyz() )
f.close()
--------------------------------------------------------------------------

    Molecular point group: c1
  Charge       = 0
  Multiplicity = 1
  Basis Set: CC-PVTZ
  Basis Set:
  @DF-RHF Final Energy: -1146.61476000304333
    Total Energy =                      -1146.6147600030428748
    Molecular point group: c1
  Basis Set: CC-PVTZ
  Basis Set:
  Basis Set: CC-PVTZ
  Basis Set:
  @DF-RHF Final Energy: -1146.61724833580138
    Total Energy =                      -1146.6172483358018326
  Basis Set: CC-PVTZ
  Basis Set:
  Basis Set: CC-PVTZ
  Basis Set:
  @DF-RHF Final Energy: -1146.61799563659088
    Total Energy =                      -1146.6179956365901944
  Basis Set: CC-PVTZ
  Basis Set:
  Basis Set: CC-PVTZ
  Basis Set:
  @DF-RHF Final Energy: -1146.61814935888788
    Total Energy =                      -1146.6181493588876492
  Basis Set: CC-PVTZ
  Basis Set:
  @DF-RHF Final Energy: -1146.61824675153889
    Total Energy =                      -1146.6182467515388907
  Basis Set: CC-PVTZ
  Basis Set:
  @DF-RHF Final Energy: -1146.61834793239859
    Total Energy =                      -1146.6183479323990468
  Basis Set: CC-PVTZ
  Basis Set:
  Basis Set: CC-PVTZ
  Basis Set:
  @DF-RHF Final Energy: -1146.61839096637596
    Total Energy =                      -1146.6183909663757277
  Basis Set: CC-PVTZ
  Basis Set:
  Basis Set: CC-PVTZ
  Basis Set:
  @DF-RHF Final Energy: -1146.61839949432760
    Total Energy =                      -1146.6183994943271500
  Basis Set: CC-PVTZ
  Basis Set:
  Charge       = 0
  Multiplicity = 1
  Basis Set: CC-PVTZ
  Basis Set:

    Orbital Energies (a.u.)
    -----------------------

    Doubly Occupied:

       1A   -104.856411     2A    -26.354622     3A    -26.353680
       4A    -26.352871     5A    -26.345730     6A    -26.337811
       7A    -20.640898     8A    -11.520235     9A    -11.483449
      10A    -11.400550    11A    -10.581985    12A     -8.048783
      13A     -8.046789    14A     -8.046717    15A     -1.767710
      16A     -1.723510    17A     -1.662605    18A     -1.660990
      19A     -1.644311    20A     -1.485695    21A     -1.177673
      22A     -1.057275    23A     -0.989309    24A     -0.922892
      25A     -0.862806    26A     -0.857406    27A     -0.852375
      28A     -0.822685    29A     -0.819482    30A     -0.795930
      31A     -0.735741    32A     -0.732170    33A     -0.714147
      34A     -0.702640    35A     -0.685833    36A     -0.680833
      37A     -0.665783    38A     -0.663883    39A     -0.646690
      40A     -0.643001    41A     -0.598192    42A     -0.574184
      43A     -0.526449    44A     -0.477010    45A     -0.469678

  @DF-RHF Final Energy: -1146.61840024740013

   => Energetics <=

    Nuclear Repulsion Energy =            737.6637729329486319
    One-Electron Energy =               -3058.5854981388547458
    Two-Electron Energy =                1174.3033249585059821
    DFT Exchange-Correlation Energy =       0.0000000000000000
    Empirical Dispersion Energy =           0.0000000000000000
    PCM Polarization Energy =               0.0000000000000000
    EFP Energy =                            0.0000000000000000
    Total Energy =                      -1146.6184002474001318
    Molecular point group: c1
  Basis Set: CC-PVTZ
  Basis Set:

  -Total Gradient:
     Atom            X                  Y                   Z
    ------   -----------------  -----------------  -----------------
       1       -0.000036385804    -0.000017157680    -0.000052855422
       2       -0.000557036742     0.002263407102     0.000697080825
       3        0.001378749991    -0.003855253729    -0.000552082427
       4        0.000011126374     0.000103632800     0.000030043119
       5        0.000017085108    -0.000114528804    -0.000102735229
       6       -0.002523885321     0.003282451715    -0.001169879084
       7       -0.000071473110    -0.000021455095    -0.000020799983
       8       -0.000005515610     0.000037094195    -0.000004488893
       9        0.001754809334    -0.001699227852     0.001149163795
      10        0.000040939304     0.000023889438    -0.000043889722
      11       -0.000007311153     0.000018264675     0.000036663437
      12       -0.000001102377    -0.000021116726     0.000033779549

  **** Optimization is complete! (in 9 steps) ****
    Final optimized geometry and variables:
    Molecular point group: c1

    Geometry (in Angstrom), charge = 0, multiplicity = 1:

    H           -2.554570445867    -1.202458848089     0.998245241910
    C           -2.070632366814    -0.630456786359     0.227698970122
    O           -0.777911153417    -0.454117583111     0.595120481847
    F           -2.146257899988    -1.274787955132    -0.928468902157
    F           -2.694874133629     0.519423840034     0.070129934656
    C            0.173774166016    -0.058240715109    -0.316402080601
    C            1.521184501437    -0.296757949929     0.363674152547
    CL           0.039755841926     1.642164090966    -0.804565836381
    H            0.152879427236    -0.659786698103    -1.208302111297
    F            2.500223106098     0.010374391119    -0.449063475227
    F            1.632183110874    -1.569643177853     0.663756852279
    F            1.655172463195     0.395590617930     1.460971699022

  Mulliken Charges: (a.u.)
   Center  Symbol    Alpha    Beta     Spin     Total
       1     H     0.45278  0.45278  0.00000  0.09445
       2     C     2.73936  2.73936  0.00000  0.52128
       3     O     4.15469  4.15469  0.00000 -0.30938
       4     F     4.61986  4.61986  0.00000 -0.23971
       5     F     4.60921  4.60921  0.00000 -0.21842
       6     C     2.94804  2.94804  0.00000  0.10391
       7     C     2.66815  2.66815  0.00000  0.66369
       8    CL     8.57265  8.57265  0.00000 -0.14530
       9     H     0.42735  0.42735  0.00000  0.14530
      10     F     4.60222  4.60222  0.00000 -0.20444
      11     F     4.60535  4.60535  0.00000 -0.21070
      12     F     4.60034  4.60034  0.00000 -0.20068

   Total alpha = 45.00000, Total beta = 45.00000, Total charge =  0.00000

*** Psi4 exiting successfully. Buy a developer a beer!
