                              Psi4 1.0.54 Driver

  ==> Input File <==

--------------------------------------------------------------------------
set {
	reference rhf
	basis cc-pvtz
}

set_num_threads( 4 )
memory 2 gb

molecule MOL {
0 1

H	 -0.871556	 -3.767256	 0.264364
O	 -1.114918	 -2.859815	 0.159270
C	 -0.007155	 -2.123753	 0.162071
C	 -0.310616	 -0.658853	 0.000791
O	 1.066623	 -2.603693	 0.283018
C	 0.926581	 0.227233	 0.000178
H	 -0.992391	 -0.384355	 0.799265
H	 -0.875078	 -0.549374	 -0.919597
C	 2.220156	 -0.582071	 -0.000088
H	 0.899945	 0.878221	 -0.866390
H	 0.900542	 0.878581	 0.866486
C	 3.466689	 0.296012	 -0.000457
H	 2.239073	 -1.234095	 -0.869382
H	 2.239505	 -1.233985	 0.869270
H	 3.493549	 0.935857	 -0.875887
H	 4.368821	 -0.304526	 -0.001199
H	 3.494559	 0.935166	 0.875458

	symmetry c1
}
set optking {
	frozen_dihedral = ("
		7 4 6 10
	")
}

ee,wfn = optimize('scf', return_wfn=True)
oeprop( wfn, 'DIPOLE', 'QUADRUPOLE', 'MULLIKEN_CHARGES')
f=open( 'psi4out.xyz', 'w' )
f.write( "17  " )
f.write( str(ee) + "\n" )
f.write( MOL.save_string_xyz() )
f.close()
--------------------------------------------------------------------------

    Molecular point group: c1
  Charge       = 0
  Multiplicity = 1
  Basis Set: CC-PVTZ
  Basis Set:
  @DF-RHF Final Energy:  -345.01124249594733
    Total Energy =                       -345.0112424959471014
    Molecular point group: c1
  Basis Set: CC-PVTZ
  Basis Set:
  Basis Set: CC-PVTZ
  Basis Set:
  @DF-RHF Final Energy:  -345.03085620890062
    Total Energy =                       -345.0308562089006728
  Basis Set: CC-PVTZ
  Basis Set:
  Basis Set: CC-PVTZ
  Basis Set:
  @DF-RHF Final Energy:  -345.03433482593573
    Total Energy =                       -345.0343348259360710
  Basis Set: CC-PVTZ
  Basis Set:
  Basis Set: CC-PVTZ
  Basis Set:
  @DF-RHF Final Energy:  -345.02966094756874
    Total Energy =                       -345.0296609475690275
  Basis Set: CC-PVTZ
  Basis Set:
  @DF-RHF Final Energy:  -345.03593621472618
    Total Energy =                       -345.0359362147263482
  @DF-RHF Final Energy:  -345.03623043536663
    Total Energy =                       -345.0362304353667469
  @DF-RHF Final Energy:  -345.03627165650386
    Total Energy =                       -345.0362716565039136
  @DF-RHF Final Energy:  -345.03637441575376
    Total Energy =                       -345.0363744157536985
  @DF-RHF Final Energy:  -345.03638353931836
    Total Energy =                       -345.0363835393181375
  @DF-RHF Final Energy:  -345.03673018199817
    Total Energy =                       -345.0367301819982231
  @DF-RHF Final Energy:  -345.03610774619904
    Total Energy =                       -345.0361077461990362
  @DF-RHF Final Energy:  -345.03200300107653
    Total Energy =                       -345.0320030010763617
  @DF-RHF Final Energy:  -345.03702249186273
    Total Energy =                       -345.0370224918627855
  @DF-RHF Final Energy:  -345.03727097181758
    Total Energy =                       -345.0372709718175201
  @DF-RHF Final Energy:  -345.03793508500479
    Total Energy =                       -345.0379350850049036
  @DF-RHF Final Energy:  -345.03806974221408
    Total Energy =                       -345.0380697422137928
  @DF-RHF Final Energy:  -345.03889060649993
    Total Energy =                       -345.0388906064999901
  @DF-RHF Final Energy:  -345.03907009346216
    Total Energy =                       -345.0390700934619872
  @DF-RHF Final Energy:  -345.03916252716749
    Total Energy =                       -345.0391625271677185
  @DF-RHF Final Energy:  -345.03920930731169
    Total Energy =                       -345.0392093073118076
  @DF-RHF Final Energy:  -345.03929312802472
    Total Energy =                       -345.0392931280247240
  @DF-RHF Final Energy:  -345.03920471215764
    Total Energy =                       -345.0392047121574706
  Basis Set: CC-PVTZ
  Basis Set:
  @DF-RHF Final Energy:  -345.03937999151395
    Total Energy =                       -345.0393799915140676
  Basis Set: CC-PVTZ
  Basis Set:
  Basis Set: CC-PVTZ
  Basis Set:
  @DF-RHF Final Energy:  -345.03938780544092
    Total Energy =                       -345.0393878054412653
  Basis Set: CC-PVTZ
  Basis Set:
  Basis Set: CC-PVTZ
  Basis Set:
  @DF-RHF Final Energy:  -345.03939643300259
    Total Energy =                       -345.0393964330025938
  Basis Set: CC-PVTZ
  Basis Set:
  Charge       = 0
  Multiplicity = 1
  Basis Set: CC-PVTZ
  Basis Set:

    Orbital Energies (a.u.)
    -----------------------

    Doubly Occupied:

       1A    -20.605075     2A    -20.537946     3A    -11.372740
       4A    -11.237754     5A    -11.232201     6A    -11.220045
       7A    -11.212052     8A     -1.477263     9A     -1.367515
      10A     -1.090896    11A     -1.017653    12A     -0.911890
      13A     -0.838964    14A     -0.791607    15A     -0.705792
      16A     -0.679123    17A     -0.649197    18A     -0.646854
      19A     -0.590436    20A     -0.588717    21A     -0.575203
      22A     -0.545075    23A     -0.516893    24A     -0.489304
      25A     -0.487336    26A     -0.471203    27A     -0.467831
      28A     -0.439920

  @DF-RHF Final Energy:  -345.03939668334658

   => Energetics <=

    Nuclear Repulsion Energy =            314.1409157654783257
    One-Electron Energy =               -1092.8276541858635937
    Two-Electron Energy =                 433.6473417370385732
    DFT Exchange-Correlation Energy =       0.0000000000000000
    Empirical Dispersion Energy =           0.0000000000000000
    PCM Polarization Energy =               0.0000000000000000
    EFP Energy =                            0.0000000000000000
    Total Energy =                       -345.0393966833466948
    Molecular point group: c1
  Basis Set: CC-PVTZ
  Basis Set:

  -Total Gradient:
     Atom            X                  Y                   Z
    ------   -----------------  -----------------  -----------------
       1       -0.000001318750    -0.000011506440     0.000006891846
       2        0.000012195917     0.000021813302    -0.000060439882
       3       -0.000034295506     0.000010220061     0.000060268623
       4       -0.001034833745     0.001430421896    -0.001507053036
       5        0.000012635983     0.000010780929     0.000004853744
       6       -0.001056796315     0.000948973547     0.001706285162
       7        0.001020717894    -0.001381649900     0.000993859875
       8       -0.000007942072     0.000008583859     0.000001299697
       9       -0.000007969870    -0.000020001661     0.000039161466
      10        0.001088469144    -0.001039124509    -0.001237196764
      11        0.000005042830     0.000002419638     0.000001776390
      12        0.000001526171     0.000002999315    -0.000007844507
      13        0.000002756835     0.000011410279     0.000005900453
      14        0.000004084242     0.000006666289    -0.000006457689
      15       -0.000001368572     0.000002725277    -0.000000889520
      16       -0.000001700473    -0.000001084368    -0.000001321125
      17       -0.000001203713    -0.000003647522     0.000000905270

  **** Optimization is complete! (in 26 steps) ****
    Final optimized geometry and variables:
    Molecular point group: c1

    Geometry (in Angstrom), charge = 0, multiplicity = 1:

    H           -0.357944523788    -2.401108814687    -1.203894460382
    O           -0.627064189481    -1.496678139937    -1.267196523916
    C           -0.876332349211    -1.047745242023    -0.040590436932
    C           -1.296299760585     0.398813149764    -0.018618759340
    O           -0.770317953379    -1.740113287587     0.913169439765
    C           -0.123750154708     1.402646803666     0.175989752354
    H           -1.988230230145     0.484726387039     0.805847382523
    H           -1.822697879447     0.611577498404    -0.937476870845
    C            1.292007557345     0.832781803218     0.075837494585
    H           -0.223836390908     2.181276999251    -0.570893347717
    H           -0.236079273775     1.879546391191     1.141677743393
    C            2.353777786966     1.910201079267     0.269072910414
    H            1.430367522029     0.363450172674    -0.892493560633
    H            1.429265906228     0.057738373870     0.821794364567
    H            2.266503463738     2.687733740053    -0.482505102248
    H            3.350254790155     1.490844342841     0.196663043362
    H            2.262753981814     2.379864536672     1.242672366168

  Mulliken Charges: (a.u.)
   Center  Symbol    Alpha    Beta     Spin     Total
       1     H     0.38032  0.38032  0.00000  0.23935
       2     O     4.16771  4.16771  0.00000 -0.33541
       3     C     2.79170  2.79170  0.00000  0.41660
       4     C     3.09599  3.09599  0.00000 -0.19197
       5     O     4.20263  4.20263  0.00000 -0.40525
       6     C     3.09337  3.09337  0.00000 -0.18673
       7     H     0.43592  0.43592  0.00000  0.12817
       8     H     0.43999  0.43999  0.00000  0.12003
       9     C     3.09867  3.09867  0.00000 -0.19735
      10     H     0.44919  0.44919  0.00000  0.10162
      11     H     0.44738  0.44738  0.00000  0.10524
      12     C     3.15168  3.15168  0.00000 -0.30336
      13     H     0.44654  0.44654  0.00000  0.10692
      14     H     0.44277  0.44277  0.00000  0.11446
      15     H     0.45533  0.45533  0.00000  0.08934
      16     H     0.44662  0.44662  0.00000  0.10676
      17     H     0.45420  0.45420  0.00000  0.09159

   Total alpha = 28.00000, Total beta = 28.00000, Total charge = -0.00000

*** Psi4 exiting successfully. Buy a developer a beer!
