  ==> Input File <==

--------------------------------------------------------------------------
set {
	reference rhf
	basis 6-31G*
}

set_num_threads( 1 )
memory 2 gb

molecule MOL {
0 1

H	 1.136379	 0.211822	 1.465562
C	 1.135357	 0.094285	 0.374742
C	 0.065331	 0.871482	 -0.349150
O	 1.941633	 -0.601957	 -0.151457
C	 -1.164872	 1.134065	 0.531266
H	 -0.200114	 0.330313	 -1.250032
H	 0.503667	 1.823180	 -0.646293
C	 -1.934944	 -0.137798	 0.888723
H	 -1.822736	 1.820356	 0.007596
H	 -0.855946	 1.644814	 1.440849
H	 -2.282920	 -0.645374	 -0.005596
H	 -2.801440	 0.094277	 1.499168
H	 -1.318954	 -0.838967	 1.443978

	symmetry c1
}
set optking {
	frozen_dihedral = ("
		6 3 5 9
	")
}

ee = energy('scf')
oeprop('DIPOLE', 'QUADRUPOLE', 'MULLIKEN_CHARGES')
f=open( 'psi4out.xyz', 'w' )
f.write( "13  " )
f.write( str(ee) + "\n" )
f.write( MOL.save_string_xyz() )
f.close()
--------------------------------------------------------------------------

    Molecular point group: c1

    Geometry (in Angstrom), charge = 0, multiplicity = 1:

       Center              X                  Y                   Z               Mass
    ------------   -----------------  -----------------  -----------------  -----------------
           H          1.128540058252    -0.043409180935     1.203124250569     1.007825032070
           C          1.127518058252    -0.160946180935     0.112304250569    12.000000000000
           C          0.057492058252     0.616250819065    -0.611587749431    12.000000000000
           O          1.933794058252    -0.857188180935    -0.413894749431    15.994914619560
           C         -1.172710941748     0.878833819065     0.268828250569    12.000000000000
           H         -0.207952941748     0.075081819065    -1.512469749431     1.007825032070
           H          0.495828058252     1.567948819065    -0.908730749431     1.007825032070
           C         -1.942782941748    -0.393029180935     0.626285250569    12.000000000000
           H         -1.830574941748     1.565124819065    -0.254841749431     1.007825032070
           H         -0.863784941748     1.389582819065     1.178411250569     1.007825032070
           H         -2.290758941748    -0.900605180935    -0.268033749431     1.007825032070
           H         -2.809278941748    -0.160954180935     1.236730250569     1.007825032070
           H         -1.326792941748    -1.094198180935     1.181540250569     1.007825032070

  Charge       = 0
  Multiplicity = 1
  Basis Set: 6-31G*
  Basis Set:

    Orbital Energies (a.u.)
    -----------------------

    Doubly Occupied:

       1A    -20.562413     2A    -11.327475     3A    -11.237762
       4A    -11.236382     5A    -11.224009     6A     -1.402646
       7A     -1.088217     8A     -0.973223     9A     -0.848383
      10A     -0.791596    11A     -0.659739    12A     -0.648105
      13A     -0.634879    14A     -0.593313    15A     -0.567433
      16A     -0.528632    17A     -0.508198    18A     -0.493718
      19A     -0.482363    20A     -0.410509

  @DF-RHF Final Energy:  -230.98389167108670

   => Energetics <=

    Nuclear Repulsion Energy =            173.0783868290763223
    One-Electron Energy =                -655.6867360209485014
    Two-Electron Energy =                 251.6244575207854268
    DFT Exchange-Correlation Energy =       0.0000000000000000
    Empirical Dispersion Energy =           0.0000000000000000
    PCM Polarization Energy =               0.0000000000000000
    EFP Energy =                            0.0000000000000000
    Total Energy =                       -230.9838916710867807

  Mulliken Charges: (a.u.)
   Center  Symbol    Alpha    Beta     Spin     Total
       1     H     0.43125  0.43125  0.00000  0.13749
       2     C     2.83338  2.83338  0.00000  0.33325
       3     C     3.20703  3.20703  0.00000 -0.41406
       4     O     4.23931  4.23931  0.00000 -0.47861
       5     C     3.16733  3.16733  0.00000 -0.33465
       6     H     0.39879  0.39879  0.00000  0.20242
       7     H     0.40059  0.40059  0.00000  0.19883
       8     C     3.24317  3.24317  0.00000 -0.48634
       9     H     0.41196  0.41196  0.00000  0.17607
      10     H     0.41858  0.41858  0.00000  0.16285
      11     H     0.41605  0.41605  0.00000  0.16790
      12     H     0.41405  0.41405  0.00000  0.17189
      13     H     0.41852  0.41852  0.00000  0.16296

   Total alpha = 20.00000, Total beta = 20.00000, Total charge = -0.00000
