                              Psi4 1.0.54 Driver

  ==> Input File <==

--------------------------------------------------------------------------
set {
	reference rhf
	basis cc-pvtz
}

set_num_threads( 4 )
memory 2 gb

molecule MOL {
0 1

H	 -2.844229	 0.971706	 -1.235355
O	 -3.458596	 0.315260	 -0.960865
C	 -3.176635	 -0.080824	 0.355601
C	 -1.763371	 0.265266	 0.799691
H	 -3.321825	 -1.153438	 0.379502
H	 -3.895468	 0.357385	 1.043382
C	 -0.673390	 -0.426948	 -0.013392
H	 -1.631049	 1.344913	 0.747560
H	 -1.664587	 -0.001624	 1.849167
C	 0.737842	 -0.043159	 0.423759
H	 -0.806103	 -0.190518	 -1.063345
H	 -0.797221	 -1.503753	 0.074146
C	 1.824000	 -0.743224	 -0.390623
H	 0.850588	 1.033777	 0.343840
H	 0.868587	 -0.286314	 1.476203
C	 3.255957	 -0.453067	 0.062319
H	 1.718250	 -0.470599	 -1.438164
H	 1.658105	 -1.815850	 -0.339904
C	 3.707029	 0.992337	 -0.133857
H	 3.928201	 -1.104096	 -0.488158
H	 3.362667	 -0.724561	 1.109374
H	 3.605811	 1.294044	 -1.171549
H	 4.748333	 1.111029	 0.143343
H	 3.129882	 1.683078	 0.468956

	symmetry c1
}
set optking {
	frozen_dihedral = ("
		1 2 3 5
	")
}

ee,wfn = optimize('scf', return_wfn=True)
oeprop( wfn, 'DIPOLE', 'QUADRUPOLE', 'MULLIKEN_CHARGES')
f=open( 'psi4out.xyz', 'w' )
f.write( "24  " )
f.write( str(ee) + "\n" )
f.write( MOL.save_string_xyz() )
f.close()
--------------------------------------------------------------------------

    Molecular point group: c1
  Charge       = 0
  Multiplicity = 1
  Basis Set: CC-PVTZ
  Basis Set:
  @DF-RHF Final Energy:  -349.37809353630809
    Total Energy =                       -349.3780935363079720
    Molecular point group: c1
  Basis Set: CC-PVTZ
  Basis Set:
  Basis Set: CC-PVTZ
  Basis Set:
  @DF-RHF Final Energy:  -349.37818160204847
    Total Energy =                       -349.3781816020488122
  Basis Set: CC-PVTZ
  Basis Set:
  Basis Set: CC-PVTZ
  Basis Set:
  @DF-RHF Final Energy:  -349.37830700839959
    Total Energy =                       -349.3783070083992470
  Basis Set: CC-PVTZ
  Basis Set:
  Basis Set: CC-PVTZ
  Basis Set:
  @DF-RHF Final Energy:  -349.37830947119431
    Total Energy =                       -349.3783094711943704
  Basis Set: CC-PVTZ
  Basis Set:
  Charge       = 0
  Multiplicity = 1
  Basis Set: CC-PVTZ
  Basis Set:

    Orbital Energies (a.u.)
    -----------------------

    Doubly Occupied:

       1A    -20.543286     2A    -11.264636     3A    -11.221070
       4A    -11.217004     5A    -11.215133     6A    -11.214942
       7A    -11.213467     8A    -11.207918     9A     -1.361551
      10A     -1.094608    11A     -1.052977    12A     -0.989671
      13A     -0.919672    14A     -0.855859    15A     -0.805864
      16A     -0.780796    17A     -0.664009    18A     -0.659546
      19A     -0.638684    20A     -0.625927    21A     -0.606301
      22A     -0.589245    23A     -0.560798    24A     -0.541701
      25A     -0.522700    26A     -0.514450    27A     -0.498458
      28A     -0.477122    29A     -0.475095    30A     -0.464219
      31A     -0.456628    32A     -0.449551    33A     -0.425973

  @DF-RHF Final Energy:  -349.37830976873693

   => Energetics <=

    Nuclear Repulsion Energy =            385.0943753772313585
    One-Electron Energy =               -1236.6876553402437366
    Two-Electron Energy =                 502.2149701942757929
    DFT Exchange-Correlation Energy =       0.0000000000000000
    Empirical Dispersion Energy =           0.0000000000000000
    PCM Polarization Energy =               0.0000000000000000
    EFP Energy =                            0.0000000000000000
    Total Energy =                       -349.3783097687365853
    Molecular point group: c1
  Basis Set: CC-PVTZ
  Basis Set:

  -Total Gradient:
     Atom            X                  Y                   Z
    ------   -----------------  -----------------  -----------------
       1        0.001247040577    -0.001433949725    -0.000782167761
       2       -0.001150830555     0.001766413431     0.000773350262
       3       -0.001769012699    -0.000138113475     0.000479704654
       4       -0.000040792927     0.000009892575    -0.000013969454
       5        0.001669378449    -0.000171168511    -0.000448897257
       6        0.000053156397    -0.000024822443    -0.000020268073
       7       -0.000010741661    -0.000001406531    -0.000005261710
       8        0.000002605713     0.000001677752     0.000007663909
       9        0.000004300100    -0.000004066247     0.000000857528
      10       -0.000005969238     0.000001007795     0.000004508514
      11       -0.000003153065    -0.000002083284     0.000005474330
      12        0.000001611712    -0.000001324100     0.000005101475
      13        0.000002770540    -0.000001371790    -0.000001929989
      14        0.000003531579     0.000004667926     0.000003736100
      15       -0.000001171751    -0.000003616258    -0.000004329531
      16        0.000004443825    -0.000002655885    -0.000011329970
      17        0.000000783363    -0.000005058432     0.000001435228
      18        0.000000309224     0.000004254433     0.000004416419
      19       -0.000004369576    -0.000000074262     0.000001074056
      20        0.000002054064     0.000003377203    -0.000000405756
      21       -0.000000124360    -0.000001022102    -0.000003863660
      22        0.000000974058    -0.000002219888     0.000003916448
      23       -0.000000561482     0.000000747545     0.000001885948
      24       -0.000006232291     0.000000914273    -0.000000701712

  **** Optimization is complete! (in 5 steps) ****
    Final optimized geometry and variables:
    Molecular point group: c1

    Geometry (in Angstrom), charge = 0, multiplicity = 1:

    H           -2.908832470279     1.002449164830    -1.227650820859
    O           -3.500141571454     0.331069410891    -0.943293408912
    C           -3.180171308383    -0.086726368486     0.359641318929
    C           -1.764235875386     0.269897302740     0.785836755458
    H           -3.301746451214    -1.163721891023     0.386724704960
    H           -3.889184669206     0.346069175767     1.058289298623
    C           -0.671414775491    -0.426046974127    -0.023124068761
    H           -1.638415810654     1.350242953552     0.727233031600
    H           -1.656176994523     0.011654832024     1.835496805272
    C            0.738377056547    -0.041345431540     0.418382204918
    H           -0.790709300027    -0.198330184956    -1.078232928959
    H           -0.797730139167    -1.501783364477     0.066838398140
    C            1.828052819083    -0.744399027729    -0.388756223826
    H            0.852009217837     1.035304189484     0.336925831036
    H            0.862696786792    -0.282154358307     1.471883204422
    C            3.257736683036    -0.452855651680     0.070485016682
    H            1.727929322544    -0.475061483495    -1.437790586224
    H            1.661545886715    -1.816736751956    -0.335411385825
    C            3.709158710777     0.992423176055    -0.125718011584
    H            3.932486797076    -1.104515043523    -0.475976397494
    H            3.359588822017    -0.723018218720     1.118298269821
    H            3.611644647126     1.293085685534    -1.164065978766
    H            4.749427360992     1.111381371686     0.154867143819
    H            3.130212940936     1.683892109397     0.474543800108

  Mulliken Charges: (a.u.)
   Center  Symbol    Alpha    Beta     Spin     Total
       1     H     0.39252  0.39252  0.00000  0.21495
       2     O     4.20822  4.20822  0.00000 -0.41644
       3     C     2.95687  2.95687  0.00000  0.08627
       4     C     3.11540  3.11540  0.00000 -0.23081
       5     H     0.46901  0.46901  0.00000  0.06199
       6     H     0.46358  0.46358  0.00000  0.07284
       7     C     3.08851  3.08851  0.00000 -0.17701
       8     H     0.45455  0.45455  0.00000  0.09090
       9     H     0.45000  0.45000  0.00000  0.09999
      10     C     3.09163  3.09163  0.00000 -0.18327
      11     H     0.45198  0.45198  0.00000  0.09603
      12     H     0.45170  0.45170  0.00000  0.09660
      13     C     3.09513  3.09513  0.00000 -0.19027
      14     H     0.45299  0.45299  0.00000  0.09402
      15     H     0.45446  0.45446  0.00000  0.09107
      16     C     3.09036  3.09036  0.00000 -0.18071
      17     H     0.45365  0.45365  0.00000  0.09270
      18     H     0.44897  0.44897  0.00000  0.10205
      19     C     3.15267  3.15267  0.00000 -0.30535
      20     H     0.44808  0.44808  0.00000  0.10384
      21     H     0.45470  0.45470  0.00000  0.09061
      22     H     0.45484  0.45484  0.00000  0.09031
      23     H     0.44604  0.44604  0.00000  0.10792
      24     H     0.45411  0.45411  0.00000  0.09177

   Total alpha = 33.00000, Total beta = 33.00000, Total charge = -0.00000

*** Psi4 exiting successfully. Buy a developer a beer!
