                              Psi4 1.0.54 Driver

  ==> Input File <==

--------------------------------------------------------------------------
set {
	reference rhf
	basis cc-pvtz
}

set_num_threads( 4 )
memory 2 gb

molecule MOL {
0 1

O	 1.826502	 1.331157	 0.200998
C	 1.642789	 0.226049	 0.583130
C	 0.320530	 -0.497169	 0.568042
O	 2.601096	 -0.535282	 1.085565
C	 -0.824290	 0.329213	 -0.000115
H	 0.462249	 -1.412917	 0.003444
H	 0.113216	 -0.807868	 1.586830
C	 -2.146151	 -0.432825	 -0.000068
H	 -0.576403	 0.636500	 -1.009768
H	 -0.925671	 1.242392	 0.575312
C	 -3.366283	 0.483552	 0.000557
H	 -2.189286	 -1.084450	 -0.869996
H	 -2.188867	 -1.085083	 0.869399
C	 -4.687436	 -0.278003	 0.000108
H	 -3.325150	 1.134819	 -0.867957
H	 -3.325087	 1.133730	 0.869885
H	 -4.773783	 -0.912098	 -0.876078
H	 -5.531922	 0.401392	 0.000363
H	 -4.773901	 -0.912898	 0.875703
C	 3.898871	 0.019364	 1.159546
H	 4.256883	 0.284464	 0.175797
H	 4.525129	 -0.745071	 1.589996
H	 3.902144	 0.899852	 1.784802

	symmetry c1
}
set optking {
	frozen_dihedral = ("
		9 5 8 12
	")
}

ee,wfn = optimize('scf', return_wfn=True)
oeprop( wfn, 'DIPOLE', 'QUADRUPOLE', 'MULLIKEN_CHARGES')
f=open( 'psi4out.xyz', 'w' )
f.write( "23  " )
f.write( str(ee) + "\n" )
f.write( MOL.save_string_xyz() )
f.close()
--------------------------------------------------------------------------

    Molecular point group: c1
  Charge       = 0
  Multiplicity = 1
  Basis Set: CC-PVTZ
  Basis Set:
  @DF-RHF Final Energy:  -423.12913579714217
    Total Energy =                       -423.1291357971421121
    Molecular point group: c1
  Basis Set: CC-PVTZ
  Basis Set:
  Basis Set: CC-PVTZ
  Basis Set:
  @DF-RHF Final Energy:  -423.12931113491328
    Total Energy =                       -423.1293111349126548
  Basis Set: CC-PVTZ
  Basis Set:
  Basis Set: CC-PVTZ
  Basis Set:
  @DF-RHF Final Energy:  -423.12911948980582
    Total Energy =                       -423.1291194898059302
  Basis Set: CC-PVTZ
  Basis Set:
  Basis Set: CC-PVTZ
  Basis Set:
  @DF-RHF Final Energy:  -423.12939992539481
    Total Energy =                       -423.1293999253942957
  Basis Set: CC-PVTZ
  Basis Set:
  Charge       = 0
  Multiplicity = 1
  Basis Set: CC-PVTZ
  Basis Set:

    Orbital Energies (a.u.)
    -----------------------

    Doubly Occupied:

       1A    -20.596203     2A    -20.534051     3A    -11.364345
       4A    -11.278419     5A    -11.233634     6A    -11.217279
       7A    -11.215817     8A    -11.214508     9A    -11.207665
      10A     -1.472045    11A     -1.365648    12A     -1.093904
      13A     -1.044623    14A     -0.987738    15A     -0.932390
      16A     -0.844248    17A     -0.795284    18A     -0.769152
      19A     -0.699724    20A     -0.686511    21A     -0.675398
      22A     -0.651078    23A     -0.611726    24A     -0.600791
      25A     -0.572982    26A     -0.560236    27A     -0.557048
      28A     -0.526276    29A     -0.522995    30A     -0.506072
      31A     -0.486801    32A     -0.470214    33A     -0.466755
      34A     -0.462257    35A     -0.458334    36A     -0.437895

  @DF-RHF Final Energy:  -423.12940092080089

   => Energetics <=

    Nuclear Repulsion Energy =            452.9142260115490899
    One-Electron Energy =               -1473.8471604720841697
    Two-Electron Energy =                 597.8035335397340759
    DFT Exchange-Correlation Energy =       0.0000000000000000
    Empirical Dispersion Energy =           0.0000000000000000
    PCM Polarization Energy =               0.0000000000000000
    EFP Energy =                            0.0000000000000000
    Total Energy =                       -423.1294009208010038
    Molecular point group: c1
  Basis Set: CC-PVTZ
  Basis Set:

  -Total Gradient:
     Atom            X                  Y                   Z
    ------   -----------------  -----------------  -----------------
       1       -0.000038806617     0.000033312190    -0.000042171416
       2        0.000027836803     0.000019471002     0.000098413895
       3       -0.000020983573     0.000010058915    -0.000023946030
       4       -0.000014995459    -0.000066627648    -0.000008245118
       5       -0.002778160463     0.004600068649     0.000063865121
       6       -0.000004985344     0.000006147332     0.000011786244
       7        0.000022612163    -0.000005508803     0.000005751339
       8        0.002480617528    -0.004083318011     0.002403756937
       9        0.001937873415    -0.003258045478    -0.000517521753
      10       -0.000025130080    -0.000013177783    -0.000006002417
      11        0.000035589308    -0.000002627145     0.000099141649
      12       -0.001609733174     0.002767414290    -0.002055130592
      13        0.000000926693     0.000014078093    -0.000001492607
      14       -0.000054778045    -0.000032033904    -0.000042142551
      15        0.000001884003    -0.000021876715     0.000041853911
      16       -0.000002523514    -0.000001626842    -0.000024731960
      17       -0.000005245292    -0.000001198723     0.000033203472
      18        0.000005354962    -0.000007874748    -0.000013253975
      19        0.000006585882     0.000027654112    -0.000026180516
      20        0.000035891993     0.000038948423    -0.000003111409
      21        0.000002839455    -0.000004136487     0.000013990221
      22       -0.000009289524    -0.000006010188    -0.000000476589
      23        0.000006618886    -0.000013090529    -0.000007355855

  **** Optimization is complete! (in 5 steps) ****
    Final optimized geometry and variables:
    Molecular point group: c1

    Geometry (in Angstrom), charge = 0, multiplicity = 1:

    O            1.869312259901     1.256854435520    -0.228637356435
    C            1.690452113445     0.157859188681     0.173230914070
    C            0.363786665875    -0.556599451690     0.206983242423
    O            2.658745349231    -0.602907365012     0.657272358014
    C           -0.794953796538     0.272117004673    -0.333757714936
    H            0.481338381301    -1.478690531686    -0.353339695311
    H            0.187304971119    -0.856609886325     1.234555083518
    C           -2.109929208968    -0.510755577785    -0.339150402791
    H           -0.546677835770     0.576755449394    -1.343223674663
    H           -0.893078063411     1.175747423761     0.255485841865
    C           -3.338822873188     0.394834154323    -0.397664310274
    H           -2.133112959175    -1.164712630400    -1.206943692015
    H           -2.176635935618    -1.144206711257     0.541252526771
    C           -4.650503844923    -0.378447777607    -0.478978356419
    H           -3.255238477913     1.055218397772    -1.256465624261
    H           -3.351889522096     1.036931567757     0.478432611511
    H           -4.684310197595    -1.000878719319    -1.366967963990
    H           -5.500629331148     0.292986369278    -0.514023195965
    H           -4.776759364744    -1.026678291281     0.381994248255
    C            3.961299838437    -0.055427492910     0.686344664382
    H            4.292158435309     0.194981458056    -0.310669425139
    H            4.595363915224    -0.818274354330     1.108144642549
    H            3.988106858719     0.832832382373     1.299922354572

  Mulliken Charges: (a.u.)
   Center  Symbol    Alpha    Beta     Spin     Total
       1     O     4.19699  4.19699  0.00000 -0.39398
       2     C     2.80740  2.80740  0.00000  0.38519
       3     C     3.10116  3.10116  0.00000 -0.20231
       4     O     4.14663  4.14663  0.00000 -0.29325
       5     C     3.08442  3.08442  0.00000 -0.16885
       6     H     0.43954  0.43954  0.00000  0.12091
       7     H     0.44041  0.44041  0.00000  0.11918
       8     C     3.08990  3.08990  0.00000 -0.17979
       9     H     0.44528  0.44528  0.00000  0.10944
      10     H     0.44666  0.44666  0.00000  0.10668
      11     C     3.08414  3.08414  0.00000 -0.16828
      12     H     0.45409  0.45409  0.00000  0.09182
      13     H     0.45613  0.45613  0.00000  0.08775
      14     C     3.15033  3.15033  0.00000 -0.30067
      15     H     0.45254  0.45254  0.00000  0.09493
      16     H     0.45409  0.45409  0.00000  0.09182
      17     H     0.45517  0.45517  0.00000  0.08967
      18     H     0.44781  0.44781  0.00000  0.10438
      19     H     0.45549  0.45549  0.00000  0.08902
      20     C     3.03778  3.03778  0.00000 -0.07556
      21     H     0.45434  0.45434  0.00000  0.09132
      22     H     0.44533  0.44533  0.00000  0.10935
      23     H     0.45438  0.45438  0.00000  0.09125

   Total alpha = 36.00000, Total beta = 36.00000, Total charge =  0.00000

*** Psi4 exiting successfully. Buy a developer a beer!
