                              Psi4 1.0.54 Driver

  ==> Input File <==

--------------------------------------------------------------------------
set {
	reference rhf
	basis cc-pvtz
}

set_num_threads( 4 )
memory 2 gb

molecule MOL {
0 1

O	 0.816747	 0.790249	 -0.930176
C	 1.121787	 0.124983	 0.000110
C	 0.395091	 0.079582	 1.319699
O	 2.167739	 -0.685178	 -0.000678
C	 -0.820392	 0.993149	 1.382316
H	 0.119154	 -0.954533	 1.498432
H	 1.115510	 0.330458	 2.091398
C	 -1.532015	 0.922168	 2.730227
H	 -1.509588	 0.727155	 0.588719
H	 -0.512307	 2.013378	 1.182915
C	 -2.753176	 1.832301	 2.803145
H	 -1.835342	 -0.102978	 2.925951
H	 -0.836456	 1.189530	 3.521399
H	 -3.483342	 1.567577	 2.045938
H	 -3.237870	 1.761370	 3.769952
H	 -2.477227	 2.869455	 2.645841
C	 3.449556	 -0.089977	 -0.000570
H	 3.585694	 0.522473	 -0.879546
H	 4.155805	 -0.904274	 -0.001389
H	 3.586173	 0.521118	 0.879272

	symmetry c1
}
set optking {
	frozen_dihedral = ("
		1 2 4 17
	")
}

ee,wfn = optimize('scf', return_wfn=True)
oeprop( wfn, 'DIPOLE', 'QUADRUPOLE', 'MULLIKEN_CHARGES')
f=open( 'psi4out.xyz', 'w' )
f.write( "20  " )
f.write( str(ee) + "\n" )
f.write( MOL.save_string_xyz() )
f.close()
--------------------------------------------------------------------------

    Molecular point group: c1
  Charge       = 0
  Multiplicity = 1
  Basis Set: CC-PVTZ
  Basis Set:
  @DF-RHF Final Energy:  -384.06607344678974
    Total Energy =                       -384.0660734467891189
    Molecular point group: c1
  Basis Set: CC-PVTZ
  Basis Set:
  Basis Set: CC-PVTZ
  Basis Set:
  @DF-RHF Final Energy:  -383.97133913712361
    Total Energy =                       -383.9713391371234366
  Basis Set: CC-PVTZ
  Basis Set:
  Basis Set: CC-PVTZ
  Basis Set:
  @DF-RHF Final Energy:  -384.05139717696295
    Total Energy =                       -384.0513971769628370
  Basis Set: CC-PVTZ
  Basis Set:
  Basis Set: CC-PVTZ
  Basis Set:
  @DF-RHF Final Energy:  -384.06520789298753
    Total Energy =                       -384.0652078929873596
  Basis Set: CC-PVTZ
  Basis Set:
  @DF-RHF Final Energy:  -384.06408305403329
    Total Energy =                       -384.0640830540334036
  Basis Set: CC-PVTZ
  Basis Set:
  @DF-RHF Final Energy:  -384.06705523212850
    Total Energy =                       -384.0670552321284958
  Basis Set: CC-PVTZ
  Basis Set:
  Basis Set: CC-PVTZ
  Basis Set:
  @DF-RHF Final Energy:  -384.06720516010495
    Total Energy =                       -384.0672051601044359
  Basis Set: CC-PVTZ
  Basis Set:
  Basis Set: CC-PVTZ
  Basis Set:
  @DF-RHF Final Energy:  -384.06721039467965
    Total Energy =                       -384.0672103946797051
  Basis Set: CC-PVTZ
  Basis Set:
  Charge       = 0
  Multiplicity = 1
  Basis Set: CC-PVTZ
  Basis Set:

    Orbital Energies (a.u.)
    -----------------------

    Doubly Occupied:

       1A    -20.579663     2A    -20.544293     3A    -11.367511
       4A    -11.286113     5A    -11.237008     6A    -11.220355
       7A    -11.219395     8A    -11.210200     9A     -1.462760
      10A     -1.368730    11A     -1.091153    12A     -1.021760
      13A     -0.969524    14A     -0.893832    15A     -0.807180
      16A     -0.766841    17A     -0.698113    18A     -0.681133
      19A     -0.676077    20A     -0.644352    21A     -0.613487
      22A     -0.592751    23A     -0.586862    24A     -0.548386
      25A     -0.537383    26A     -0.513790    27A     -0.503019
      28A     -0.487616    29A     -0.478757    30A     -0.472289
      31A     -0.454979    32A     -0.436406

  @DF-RHF Final Energy:  -384.06721095234752

   => Energetics <=

    Nuclear Repulsion Energy =            381.3930987552021179
    One-Electron Energy =               -1278.9771791675070745
    Two-Electron Energy =                 513.5168694599576611
    DFT Exchange-Correlation Energy =       0.0000000000000000
    Empirical Dispersion Energy =           0.0000000000000000
    PCM Polarization Energy =               0.0000000000000000
    EFP Energy =                            0.0000000000000000
    Total Energy =                       -384.0672109523472955
    Molecular point group: c1
  Basis Set: CC-PVTZ
  Basis Set:

  -Total Gradient:
     Atom            X                  Y                   Z
    ------   -----------------  -----------------  -----------------
       1       -0.002744920328    -0.004807317138    -0.004061725974
       2        0.003982722726     0.006232113562     0.008406357955
       3        0.000000750810     0.000039577735    -0.000023470371
       4       -0.000974622686     0.000066712080    -0.009592369745
       5       -0.000003166816    -0.000024508742     0.000006861567
       6       -0.000003708697    -0.000005114756     0.000007852073
       7        0.000005446954     0.000004340579     0.000003940286
       8       -0.000002745605     0.000022622341     0.000001366957
       9       -0.000002784060     0.000001844067    -0.000005000118
      10        0.000006629493     0.000001512184     0.000001818007
      11       -0.000008345213    -0.000009770834    -0.000002325147
      12       -0.000000499707    -0.000009276725    -0.000002468765
      13        0.000002963171    -0.000001359442     0.000003246290
      14        0.000001788141     0.000001924153    -0.000000810893
      15       -0.000003284843    -0.000002382230     0.000005511123
      16        0.000002494457     0.000005597156    -0.000000034552
      17       -0.000218649113    -0.001502307783     0.005245426788
      18       -0.000011122990    -0.000024108578     0.000008301473
      19       -0.000031927698     0.000014073906     0.000005004518
      20        0.000002982006    -0.000004171528    -0.000007481476

  **** Optimization is complete! (in 9 steps) ****
    Final optimized geometry and variables:
    Molecular point group: c1

    Geometry (in Angstrom), charge = 0, multiplicity = 1:

    O            0.538419926581     0.932090073854    -1.544709920842
    C            0.896322002072     0.102586105508    -0.789541540676
    C            0.060333217788    -0.487946076471     0.314144701283
    O            2.101988127593    -0.489423325581    -0.894073282966
    C           -1.345666088176     0.085046528801     0.410497915252
    H            0.042182415991    -1.560983446548     0.151605368220
    H            0.608525936432    -0.345181193058     1.241761929106
    C           -2.157106855939    -0.545640489348     1.538471496417
    H           -1.855309594315    -0.061456108741    -0.535226536288
    H           -1.286213532683     1.158003663390     0.556297495474
    C           -3.568544514013     0.022005195248     1.641164171851
    H           -2.211767507956    -1.620477596110     1.387387363077
    H           -1.640348957565    -0.397486369459     2.483180643451
    H           -4.122913623028    -0.141706293033     0.723381020596
    H           -4.120510496811    -0.443742925973     2.449256738680
    H           -3.547371735586     1.090530453994     1.826720945143
    C            3.229666903922     0.304689226533    -0.596461419562
    H            3.257388428954     1.185152789319    -1.223309959817
    H            4.098084507110    -0.304386130609    -0.787699591321
    H            3.224207442120     0.599024651109     0.447230941503

  Mulliken Charges: (a.u.)
   Center  Symbol    Alpha    Beta     Spin     Total
       1     O     4.17445  4.17445  0.00000 -0.34890
       2     C     2.79098  2.79098  0.00000  0.41804
       3     C     3.11078  3.11078  0.00000 -0.22156
       4     O     4.16855  4.16855  0.00000 -0.33709
       5     C     3.08271  3.08271  0.00000 -0.16543
       6     H     0.43688  0.43688  0.00000  0.12623
       7     H     0.44467  0.44467  0.00000  0.11067
       8     C     3.08613  3.08613  0.00000 -0.17227
       9     H     0.44529  0.44529  0.00000  0.10942
      10     H     0.44734  0.44734  0.00000  0.10532
      11     C     3.14934  3.14934  0.00000 -0.29867
      12     H     0.45456  0.45456  0.00000  0.09088
      13     H     0.45560  0.45560  0.00000  0.08880
      14     H     0.45340  0.45340  0.00000  0.09321
      15     H     0.44815  0.44815  0.00000  0.10370
      16     H     0.45400  0.45400  0.00000  0.09200
      17     C     3.03554  3.03554  0.00000 -0.07108
      18     H     0.44983  0.44983  0.00000  0.10034
      19     H     0.44461  0.44461  0.00000  0.11078
      20     H     0.46719  0.46719  0.00000  0.06563

   Total alpha = 32.00000, Total beta = 32.00000, Total charge = -0.00000

*** Psi4 exiting successfully. Buy a developer a beer!
