  ==> Input File <==

--------------------------------------------------------------------------
set {
	reference rhf
	basis 6-31G*
}

set_num_threads( 1 )
memory 2 gb

molecule MOL {
0 1

H	 2.756780	 1.720538	 2.731288
N	 1.919257	 1.171049	 2.718536
C	 1.260655	 1.264208	 1.423510
H	 1.325467	 1.531750	 3.441127
C	 0.040174	 0.351064	 1.375044
H	 1.973892	 0.949797	 0.667668
H	 0.961237	 2.283407	 1.166646
C	 -0.679275	 0.379305	 0.025956
H	 0.359136	 -0.660462	 1.609380
H	 -0.655450	 0.644858	 2.160619
C	 -1.903357	 -0.536963	 -0.023547
H	 0.016218	 0.088645	 -0.759954
H	 -0.986819	 1.398800	 -0.201847
C	 -3.225172	 0.228290	 0.028445
H	 -1.867824	 -1.134999	 -0.931459
H	 -1.860449	 -1.239604	 0.805977
H	 -3.313397	 0.915643	 -0.808262
H	 -4.073500	 -0.448134	 -0.008893
H	 -3.306061	 0.809945	 0.942516

	symmetry c1
}
set optking {
	frozen_dihedral = ("
		6 3 5 9,
		12 8 5 9,
		1 2 3 6
	")
}

ee = energy('scf')
oeprop('DIPOLE', 'QUADRUPOLE', 'MULLIKEN_CHARGES')
f=open( 'psi4out.xyz', 'w' )
f.write( "19  " )
f.write( str(ee) + "\n" )
f.write( MOL.save_string_xyz() )
f.close()
--------------------------------------------------------------------------

    Molecular point group: c1

    Geometry (in Angstrom), charge = 0, multiplicity = 1:

       Center              X                  Y                   Z               Mass
    ------------   -----------------  -----------------  -----------------  -----------------
           H          3.169464737084     1.220645924487     1.779329100525     1.007825032070
           N          2.331941737084     0.671156924487     1.766577100525    14.003074004780
           C          1.673339737084     0.764315924487     0.471551100525    12.000000000000
           H          1.738151737084     1.031857924487     2.489168100525     1.007825032070
           C          0.452858737084    -0.148828075513     0.423085100525    12.000000000000
           H          2.386576737084     0.449904924487    -0.284290899475     1.007825032070
           H          1.373921737084     1.783514924487     0.214687100525     1.007825032070
           C         -0.266590262916    -0.120587075513    -0.926002899475    12.000000000000
           H          0.771820737084    -1.160354075513     0.657421100525     1.007825032070
           H         -0.242765262916     0.144965924487     1.208660100525     1.007825032070
           C         -1.490672262916    -1.036855075513    -0.975505899475    12.000000000000
           H          0.428902737084    -0.411247075513    -1.711912899475     1.007825032070
           H         -0.574134262916     0.898907924487    -1.153805899475     1.007825032070
           C         -2.812487262916    -0.271602075513    -0.923513899475    12.000000000000
           H         -1.455139262916    -1.634891075513    -1.883417899475     1.007825032070
           H         -1.447764262916    -1.739496075513    -0.145981899475     1.007825032070
           H         -2.900712262916     0.415750924487    -1.760220899475     1.007825032070
           H         -3.660815262916    -0.948026075513    -0.960851899475     1.007825032070
           H         -2.893376262916     0.310052924487    -0.009442899475     1.007825032070

  Charge       = 0
  Multiplicity = 1
  Basis Set: 6-31G*
  Basis Set:

    Orbital Energies (a.u.)
    -----------------------

    Doubly Occupied:

       1A    -15.532382     2A    -11.239320     3A    -11.212432
       4A    -11.211248     5A    -11.209765     6A    -11.207840
       7A     -1.176488     8A     -1.073377     9A     -0.996810
      10A     -0.901162    11A     -0.816936    12A     -0.785743
      13A     -0.663143    14A     -0.638020    15A     -0.612210
      16A     -0.599539    17A     -0.561838    18A     -0.557715
      19A     -0.518967    20A     -0.498332    21A     -0.490763
      22A     -0.465541    23A     -0.451831    24A     -0.448343
      25A     -0.380783

  @DF-RHF Final Energy:  -251.34645441047559

   => Energetics <=

    Nuclear Repulsion Energy =            247.4293051794056169
    One-Electron Energy =                -829.0505192922882998
    Two-Electron Energy =                 330.2747597024071524
    DFT Exchange-Correlation Energy =       0.0000000000000000
    Empirical Dispersion Energy =           0.0000000000000000
    PCM Polarization Energy =               0.0000000000000000
    EFP Energy =                            0.0000000000000000
    Total Energy =                       -251.3464544104754737

  Mulliken Charges: (a.u.)
   Center  Symbol    Alpha    Beta     Spin     Total
       1     H     0.33253  0.33253  0.00000  0.33494
       2     N     3.92189  3.92189  0.00000 -0.84379
       3     C     3.06061  3.06061  0.00000 -0.12122
       4     H     0.33544  0.33544  0.00000  0.32912
       5     C     3.15343  3.15343  0.00000 -0.30686
       6     H     0.42082  0.42082  0.00000  0.15837
       7     H     0.43477  0.43477  0.00000  0.13045
       8     C     3.15859  3.15859  0.00000 -0.31719
       9     H     0.41247  0.41247  0.00000  0.17505
      10     H     0.42762  0.42762  0.00000  0.14475
      11     C     3.15403  3.15403  0.00000 -0.30805
      12     H     0.42106  0.42106  0.00000  0.15787
      13     H     0.42228  0.42228  0.00000  0.15545
      14     C     3.24012  3.24012  0.00000 -0.48024
      15     H     0.42041  0.42041  0.00000  0.15918
      16     H     0.41941  0.41941  0.00000  0.16117
      17     H     0.42172  0.42172  0.00000  0.15656
      18     H     0.42025  0.42025  0.00000  0.15950
      19     H     0.42254  0.42254  0.00000  0.15493

   Total alpha = 25.00000, Total beta = 25.00000, Total charge = -0.00000
