  ==> Input File <==

--------------------------------------------------------------------------
set {
	reference rhf
	basis cc-pvtz
}

set_num_threads( 4 )
memory 2 gb

molecule MOL {
0 1

O	 0.074770	 1.259872	 0.000487
C	 0.029490	 0.077183	 0.000078
C	 -1.232113	 -0.748027	 0.000015
O	 1.106773	 -0.690081	 -0.000204
C	 -2.501422	 0.088592	 -0.000052
H	 -1.188777	 -1.400384	 -0.865133
H	 -1.188857	 -1.400312	 0.865225
H	 -2.548170	 0.725504	 -0.873205
H	 -3.371613	 -0.556398	 -0.000040
H	 -2.548215	 0.725571	 0.873047
C	 1.884330	 -0.716454	 -1.180183
H	 1.300004	 -1.076894	 -2.013779
H	 2.703723	 -1.388111	 -0.981949
H	 2.258334	 0.269706	 -1.412246

	symmetry c1
}
set optking {
	frozen_dihedral = ("
		11 4 2 3
	")
}

ee = optimize('scf')
oeprop('DIPOLE', 'QUADRUPOLE', 'MULLIKEN_CHARGES')
f=open( 'psi4out.xyz', 'w' )
f.write( "14  " )
f.write( str(ee) + "\n" )
f.write( MOL.save_string_xyz() )
f.close()
--------------------------------------------------------------------------

    Molecular point group: c1
  Charge       = 0
  Multiplicity = 1
  Basis Set: CC-PVTZ
  Basis Set:
  @DF-RHF Final Energy:  -305.97049948958704
    Total Energy =                       -305.9704994895870982
    Molecular point group: c1
  Basis Set: CC-PVTZ
  Basis Set:
  Basis Set: CC-PVTZ
  Basis Set:
  @DF-RHF Final Energy:  -305.97048684236091
    Total Energy =                       -305.9704868423608559
  Basis Set: CC-PVTZ
  Basis Set:
  Basis Set: CC-PVTZ
  Basis Set:
  @DF-RHF Final Energy:  -305.97078758605653
    Total Energy =                       -305.9707875860564172
  Basis Set: CC-PVTZ
  Basis Set:
  Basis Set: CC-PVTZ
  Basis Set:
  @DF-RHF Final Energy:  -305.97138884839808
    Total Energy =                       -305.9713888483983055
  Basis Set: CC-PVTZ
  Basis Set:
  Basis Set: CC-PVTZ
  Basis Set:
  @DF-RHF Final Energy:  -305.97140083344107
    Total Energy =                       -305.9714008334407254
  Basis Set: CC-PVTZ
  Basis Set:
  Charge       = 0
  Multiplicity = 1
  Basis Set: CC-PVTZ
  Basis Set:

    Orbital Energies (a.u.)
    -----------------------

    Doubly Occupied:

       1A    -20.579982     2A    -20.545335     3A    -11.368419
       4A    -11.286688     5A    -11.240953     6A    -11.217376
       7A     -1.463899     8A     -1.369534     9A     -1.064678
      10A     -0.976483    11A     -0.889562    12A     -0.767491
      13A     -0.702694    14A     -0.680246    15A     -0.674464
      16A     -0.620496    17A     -0.616514    18A     -0.556651
      19A     -0.543695    20A     -0.524700    21A     -0.511329
      22A     -0.497399    23A     -0.458644    24A     -0.440345

  @DF-RHF Final Energy:  -305.97140162943072

   => Energetics <=

    Nuclear Repulsion Energy =            247.1050629923862800
    One-Electron Energy =                -906.9577790677719804
    Two-Electron Energy =                 353.8813144459548994
    DFT Exchange-Correlation Energy =       0.0000000000000000
    Empirical Dispersion Energy =           0.0000000000000000
    PCM Polarization Energy =               0.0000000000000000
    EFP Energy =                            0.0000000000000000
    Total Energy =                       -305.9714016294308294
    Molecular point group: c1
  Basis Set: CC-PVTZ
  Basis Set:

  -Total Gradient:
     Atom            X                  Y                   Z
    ------   -----------------  -----------------  -----------------
       1       -0.000005959118     0.000058080267     0.000107100401
       2       -0.001411104003    -0.001911815804     0.006118608185
       3        0.000175005496    -0.000146595853    -0.005017635166
       4        0.004230008326     0.006356834751     0.000663233200
       5        0.000013534440     0.000016375504     0.000004294417
       6       -0.000011497206    -0.000021979799     0.000006505050
       7        0.000003516688     0.000000599376     0.000003031504
       8       -0.000003998041    -0.000001956322     0.000003341806
       9        0.000002918700    -0.000001742773    -0.000002918712
      10        0.000003610328     0.000000156396    -0.000003141749
      11       -0.003032926959    -0.004339301656    -0.001907905378
      12        0.000035381239     0.000008103794    -0.000007411808
      13        0.000003829631    -0.000001216805     0.000021887715
      14       -0.000002319524    -0.000015541074     0.000011010537

  **** Optimization is complete! (in 6 steps) ****
    Final optimized geometry and variables:
    Molecular point group: c1

    Geometry (in Angstrom), charge = 0, multiplicity = 1:

    O            0.156695373852     1.371155763540     0.135075475363
    C            0.104567257201     0.196750930579     0.200963536517
    C           -1.162635769457    -0.616147962060     0.202172823322
    O            1.211166813249    -0.569840025592     0.236814771493
    C           -2.431899305415     0.218253173560     0.252440864863
    H           -1.128761337253    -1.230438880572    -0.693191450925
    H           -1.106838116309    -1.310525726420     1.033198858841
    H           -2.489672594739     0.890770000698    -0.592703741569
    H           -3.303119549198    -0.425157016456     0.239263499002
    H           -2.465411381479     0.818620085215     1.152058187393
    C            1.993427509367    -0.603854181747    -0.937159730743
    H            1.435230386999    -1.046851177512    -1.754514843787
    H            2.851613783383    -1.218772246992    -0.720134082556
    H            2.317042335386     0.389866449335    -1.213389858340

  Mulliken Charges: (a.u.)
   Center  Symbol    Alpha    Beta     Spin     Total
       1     O     4.17430  4.17430  0.00000 -0.34859
       2     C     2.79216  2.79216  0.00000  0.41567
       3     C     3.09968  3.09968  0.00000 -0.19935
       4     O     4.16887  4.16887  0.00000 -0.33773
       5     C     3.13914  3.13914  0.00000 -0.27827
       6     H     0.44613  0.44613  0.00000  0.10773
       7     H     0.43866  0.43866  0.00000  0.12268
       8     H     0.44781  0.44781  0.00000  0.10437
       9     H     0.45046  0.45046  0.00000  0.09909
      10     H     0.44772  0.44772  0.00000  0.10456
      11     C     3.03420  3.03420  0.00000 -0.06840
      12     H     0.46733  0.46733  0.00000  0.06535
      13     H     0.44425  0.44425  0.00000  0.11151
      14     H     0.44931  0.44931  0.00000  0.10139

   Total alpha = 24.00000, Total beta = 24.00000, Total charge = -0.00000
