  ==> Input File <==

--------------------------------------------------------------------------
set {
	reference rhf
	basis cc-pvtz
}

set_num_threads( 4 )
memory 2 gb

molecule MOL {
0 1

O	 1.215499	 1.305749	 0.034893
C	 1.120003	 0.127693	 0.099125
C	 -0.172673	 -0.647192	 0.096378
O	 2.164384	 -0.680081	 0.183663
C	 -1.413045	 0.229353	 0.001137
H	 -0.123613	 -1.349847	 -0.729061
H	 -0.186486	 -1.251189	 0.997743
C	 -2.702562	 -0.586401	 0.000228
H	 -1.358298	 0.830751	 -0.899343
H	 -1.421644	 0.929034	 0.829338
C	 -3.953810	 0.284959	 -0.000782
H	 -2.717793	 -1.238567	 -0.869075
H	 -2.719108	 -1.238472	 0.869576
H	 -3.983727	 0.924403	 -0.876454
H	 -4.852989	 -0.320147	 -0.001515
H	 -3.985140	 0.924399	 0.874841
C	 3.445992	 -0.084563	 0.196276
H	 3.614949	 0.476040	 -0.711141
H	 4.150896	 -0.896815	 0.268565
H	 3.550928	 0.576650	 1.043630

	symmetry c1
}
set optking {
	frozen_dihedral = ("
		9 5 8 12
	")
}

ee = optimize('scf')
oeprop('DIPOLE', 'QUADRUPOLE', 'MULLIKEN_CHARGES')
f=open( 'psi4out.xyz', 'w' )
f.write( "20  " )
f.write( str(ee) + "\n" )
f.write( MOL.save_string_xyz() )
f.close()
--------------------------------------------------------------------------

    Molecular point group: c1
  Charge       = 0
  Multiplicity = 1
  Basis Set: CC-PVTZ
  Basis Set:
  @DF-RHF Final Energy:  -384.08321937294801
    Total Energy =                       -384.0832193729477240
    Molecular point group: c1
  Basis Set: CC-PVTZ
  Basis Set:
  Basis Set: CC-PVTZ
  Basis Set:
  @DF-RHF Final Energy:  -384.08322682605240
    Total Energy =                       -384.0832268260523961
  Basis Set: CC-PVTZ
  Basis Set:
  Basis Set: CC-PVTZ
  Basis Set:
  @DF-RHF Final Energy:  -384.08320868825416
    Total Energy =                       -384.0832086882544445
  Basis Set: CC-PVTZ
  Basis Set:
  Basis Set: CC-PVTZ
  Basis Set:
  @DF-RHF Final Energy:  -384.08322928147345
    Total Energy =                       -384.0832292814731090
  Basis Set: CC-PVTZ
  Basis Set:
  Charge       = 0
  Multiplicity = 1
  Basis Set: CC-PVTZ
  Basis Set:

    Orbital Energies (a.u.)
    -----------------------

    Doubly Occupied:

       1A    -20.596409     2A    -20.534232     3A    -11.364690
       4A    -11.278560     5A    -11.233910     6A    -11.218464
       7A    -11.217341     8A    -11.208711     9A     -1.472314
      10A     -1.365894    11A     -1.089998    12A     -1.025497
      13A     -0.969944    14A     -0.886348    15A     -0.804530
      16A     -0.769544    17A     -0.699088    18A     -0.686908
      19A     -0.675872    20A     -0.647289    21A     -0.598966
      22A     -0.592672    23A     -0.580121    24A     -0.540700
      25A     -0.538237    26A     -0.524137    27A     -0.501382
      28A     -0.478587    29A     -0.474958    30A     -0.471977
      31A     -0.459395    32A     -0.440148

  @DF-RHF Final Energy:  -384.08322959684449

   => Energetics <=

    Nuclear Repulsion Energy =            381.7274646036377135
    One-Electron Energy =               -1279.7277383396767618
    Two-Electron Energy =                 513.9170441391947861
    DFT Exchange-Correlation Energy =       0.0000000000000000
    Empirical Dispersion Energy =           0.0000000000000000
    PCM Polarization Energy =               0.0000000000000000
    EFP Energy =                            0.0000000000000000
    Total Energy =                       -384.0832295968442622
    Molecular point group: c1
  Basis Set: CC-PVTZ
  Basis Set:

  -Total Gradient:
     Atom            X                  Y                   Z
    ------   -----------------  -----------------  -----------------
       1       -0.000001116313    -0.000000285149     0.000004737848
       2        0.000006062876    -0.000001634606    -0.000007763235
       3       -0.000010896650     0.000007937369     0.000002474737
       4       -0.000004267757    -0.000000813749     0.000000673268
       5       -0.000535791772     0.000831112603     0.000345250697
       6        0.000000633038    -0.000000802346     0.000001546269
       7        0.000004591615    -0.000002794123     0.000002037020
       8        0.000515098416    -0.000808354390     0.000416631657
       9        0.000364128836    -0.000571646208    -0.000365954617
      10        0.000000521668     0.000000138470     0.000004010958
      11        0.000009321367    -0.000008197064     0.000004547580
      12       -0.000341570903     0.000550029488    -0.000412107757
      13       -0.000002844034    -0.000001564624     0.000003797005
      14       -0.000000474578    -0.000000414164     0.000000000519
      15       -0.000001430693     0.000002007901    -0.000000555384
      16       -0.000003852799     0.000004016670     0.000000096240
      17        0.000003241492     0.000001913995     0.000000401672
      18       -0.000000619095    -0.000000513747     0.000000225296
      19       -0.000000560141    -0.000000078223    -0.000000041494
      20       -0.000000174574    -0.000000058102    -0.000000008278

  **** Optimization is complete! (in 5 steps) ****
    Final optimized geometry and variables:
    Molecular point group: c1

    Geometry (in Angstrom), charge = 0, multiplicity = 1:

    O            1.217042082277     1.303808242874    -0.043252594577
    C            1.121424342835     0.125836974665     0.022299220138
    C           -0.171528197193    -0.648612685217     0.025642062027
    O            2.165861539108    -0.682250419656     0.103390858958
    C           -1.412310057089     0.228459188911    -0.064401714173
    H           -0.126525417549    -1.351521906070    -0.799885870451
    H           -0.181324830210    -1.252441081511     0.927122062666
    C           -2.700745421335    -0.589227978698    -0.073309020797
    H           -1.355144384331     0.831449380414    -0.963559764257
    H           -1.421224475051     0.923326995574     0.767691602389
    C           -3.952492896715     0.281867867574    -0.087952075025
    H           -2.709346147179    -1.238838679890    -0.944522104698
    H           -2.725728947727    -1.240364569106     0.796355161070
    H           -3.970215636353     0.925293903934    -0.961088350186
    H           -4.851350213733    -0.323516323016    -0.104455257248
    H           -3.996675749219     0.917358543514     0.789957014293
    C            3.447694277211    -0.087241870861     0.110421989365
    H            3.613340144153     0.472435651365    -0.798180883464
    H            4.152590509578    -0.899677837228     0.180734497243
    H            3.556216720431     0.574756813841     0.956718070649

  Mulliken Charges: (a.u.)
   Center  Symbol    Alpha    Beta     Spin     Total
       1     O     4.19685  4.19685  0.00000 -0.39370
       2     C     2.80658  2.80658  0.00000  0.38684
       3     C     3.10032  3.10032  0.00000 -0.20064
       4     O     4.14655  4.14655  0.00000 -0.29310
       5     C     3.08113  3.08113  0.00000 -0.16226
       6     H     0.44029  0.44029  0.00000  0.11942
       7     H     0.44027  0.44027  0.00000  0.11947
       8     C     3.08697  3.08697  0.00000 -0.17393
       9     H     0.44652  0.44652  0.00000  0.10696
      10     H     0.44702  0.44702  0.00000  0.10597
      11     C     3.14921  3.14921  0.00000 -0.29843
      12     H     0.45484  0.45484  0.00000  0.09032
      13     H     0.45551  0.45551  0.00000  0.08897
      14     H     0.45379  0.45379  0.00000  0.09241
      15     H     0.44842  0.44842  0.00000  0.10316
      16     H     0.45399  0.45399  0.00000  0.09202
      17     C     3.03770  3.03770  0.00000 -0.07540
      18     H     0.45435  0.45435  0.00000  0.09130
      19     H     0.44535  0.44535  0.00000  0.10931
      20     H     0.45435  0.45435  0.00000  0.09130

   Total alpha = 32.00000, Total beta = 32.00000, Total charge =  0.00000
