  ==> Input File <==

--------------------------------------------------------------------------
set {
	reference rhf
	basis 6-31G*
}

set_num_threads( 4 )
memory 2 gb

molecule MOL {
0 1

H	 -1.748661	 -2.220942	 -0.005015
C	 -1.343207	 -1.225221	 -0.013879
N	 -0.055091	 -1.100174	 -0.261126
C	 -2.150779	 -0.125890	 0.222726
C	 0.449969	 0.122615	 -0.277109
H	 -3.200618	 -0.238980	 0.422496
N	 -1.660212	 1.097703	 0.209594
C	 -0.371804	 1.219904	 -0.038265
C	 1.928147	 0.267347	 -0.541394
H	 0.029131	 2.217482	 -0.051283
C	 2.219984	 0.863995	 -1.922284
H	 2.349882	 0.908708	 0.225195
H	 2.408996	 -0.701415	 -0.449420
H	 3.289142	 0.979745	 -2.068921
H	 1.755433	 1.838036	 -2.021857
H	 1.839567	 0.224837	 -2.712898

	symmetry c1
}
set optking {
	frozen_dihedral = ("
		12 9 5 3
	")
}

ee = optimize('scf')
oeprop('DIPOLE', 'QUADRUPOLE', 'MULLIKEN_CHARGES')
f=open( 'psi4out.xyz', 'w' )
f.write( "16  " )
f.write( str(ee) + "\n" )
f.write( MOL.save_string_xyz() )
f.close()
--------------------------------------------------------------------------

    Molecular point group: c1
  Charge       = 0
  Multiplicity = 1
  Basis Set: 6-31G*
  Basis Set:
  @DF-RHF Final Energy:  -340.75720421261718
    Total Energy =                       -340.7572042126170686
    Molecular point group: c1
  Basis Set: 6-31G*
  Basis Set:
  Basis Set: 6-31G*
  Basis Set:
  @DF-RHF Final Energy:  -340.75750156229844
    Total Energy =                       -340.7575015622987848
  Basis Set: 6-31G*
  Basis Set:
  Basis Set: 6-31G*
  Basis Set:
  @DF-RHF Final Energy:  -340.75755473541250
    Total Energy =                       -340.7575547354122136
  Basis Set: 6-31G*
  Basis Set:
  Basis Set: 6-31G*
  Basis Set:
  @DF-RHF Final Energy:  -340.75756585578546
    Total Energy =                       -340.7575658557853444
  Basis Set: 6-31G*
  Basis Set:
  Basis Set: 6-31G*
  Basis Set:
  @DF-RHF Final Energy:  -340.75757014032149
    Total Energy =                       -340.7575701403214907
  Basis Set: 6-31G*
  Basis Set:
  Charge       = 0
  Multiplicity = 1
  Basis Set: 6-31G*
  Basis Set:

    Orbital Energies (a.u.)
    -----------------------

    Doubly Occupied:

       1A    -15.586808     2A    -15.582226     3A    -11.281660
       4A    -11.274938     5A    -11.273002     6A    -11.271278
       7A    -11.232565     8A    -11.222374     9A     -1.313105
      10A     -1.221688    11A     -1.085147    12A     -1.014890
      13A     -0.903645    14A     -0.895120    15A     -0.829762
      16A     -0.714758    17A     -0.710714    18A     -0.657711
      19A     -0.611701    20A     -0.605621    21A     -0.582183
      22A     -0.562396    23A     -0.522605    24A     -0.509397
      25A     -0.503473    26A     -0.482272    27A     -0.429574
      28A     -0.394958    29A     -0.344832

  @DF-RHF Final Energy:  -340.75757032311623

   => Energetics <=

    Nuclear Repulsion Energy =            349.5259137972715848
    One-Electron Energy =               -1153.3261635853054941
    Two-Electron Energy =                 463.0426794649174553
    DFT Exchange-Correlation Energy =       0.0000000000000000
    Empirical Dispersion Energy =           0.0000000000000000
    PCM Polarization Energy =               0.0000000000000000
    EFP Energy =                            0.0000000000000000
    Total Energy =                       -340.7575703231163970
    Molecular point group: c1
  Basis Set: 6-31G*
  Basis Set:

  -Total Gradient:
     Atom            X                  Y                   Z
    ------   -----------------  -----------------  -----------------
       1       -0.000029958613     0.000015225660    -0.000099859630
       2       -0.000121085464    -0.000013382272     0.000297922237
       3        0.000264508276    -0.000010065163     0.000929877729
       4        0.000008286590    -0.000150533822    -0.000009443689
       5       -0.000238320882    -0.000118187767    -0.001471336970
       6       -0.000003794873     0.000002088642    -0.000036962798
       7        0.000125647590     0.000057377650    -0.000020600645
       8       -0.000085043194     0.000065663054     0.000032521737
       9       -0.000185246300     0.001077977326    -0.000274360366
      10        0.000015138842    -0.000021898876     0.000023243157
      11       -0.000021352612    -0.000000225896     0.000028697553
      12        0.000198597260    -0.000876573345     0.000634474614
      13        0.000052362756    -0.000008642355     0.000005708508
      14        0.000015286757    -0.000011463682    -0.000036166537
      15        0.000007179739    -0.000027635966     0.000023123269
      16       -0.000002205871     0.000020276812    -0.000026838170

  **** Optimization is complete! (in 6 steps) ****
    Final optimized geometry and variables:
    Molecular point group: c1

    Geometry (in Angstrom), charge = 0, multiplicity = 1:

    H           -1.666881926198    -2.376757529045     0.337633208577
    C           -1.265612240144    -1.379482688484     0.332805379700
    N            0.029600493638    -1.251851761555     0.098282070322
    C           -2.074823729733    -0.286014927622     0.563704722130
    C            0.530762436416    -0.031911214689     0.088328035906
    H           -3.126336365421    -0.399398097832     0.753475713744
    N           -1.583799528594     0.942240622424     0.564084739746
    C           -0.297541919175     1.066055511868     0.330306500889
    C            2.006189644019     0.134685175125    -0.185755168715
    H            0.105759784929     2.063375968279     0.336811369682
    C            2.297493338118     0.708834636713    -1.577051531833
    H            2.446131841667     0.772690451722     0.576090446406
    H            2.467279391926    -0.840143532961    -0.088472697598
    H            3.367432446090     0.792737545217    -1.737185045192
    H            1.864440368974     1.696425126761    -1.700220772695
    H            1.890626337064     0.066685598423    -2.351053208609

  Mulliken Charges: (a.u.)
   Center  Symbol    Alpha    Beta     Spin     Total
       1     H     0.39380  0.39380  0.00000  0.21239
       2     C     2.99130  2.99130  0.00000  0.01740
       3     N     3.75541  3.75541  0.00000 -0.51082
       4     C     2.99833  2.99833  0.00000  0.00334
       5     C     2.87434  2.87434  0.00000  0.25131
       6     H     0.39421  0.39421  0.00000  0.21159
       7     N     3.72993  3.72993  0.00000 -0.45985
       8     C     2.99247  2.99247  0.00000  0.01506
       9     C     3.17551  3.17551  0.00000 -0.35101
      10     H     0.39528  0.39528  0.00000  0.20943
      11     C     3.24293  3.24293  0.00000 -0.48587
      12     H     0.41220  0.41220  0.00000  0.17559
      13     H     0.39880  0.39880  0.00000  0.20240
      14     H     0.41503  0.41503  0.00000  0.16995
      15     H     0.41878  0.41878  0.00000  0.16244
      16     H     0.41167  0.41167  0.00000  0.17665

   Total alpha = 29.00000, Total beta = 29.00000, Total charge = -0.00000
