  ==> Input File <==

--------------------------------------------------------------------------
set {
	reference rhf
	basis 6-31G*
}

set_num_threads( 1 )
memory 2 gb

molecule MOL {
0 1

H	 -2.010978	 2.265007	 -2.228037
C	 -1.034584	 2.597045	 -1.853834
C	 -0.868277	 2.526890	 -0.357161
O	 -0.201970	 2.976288	 -2.611910
C	 -1.220012	 1.144545	 0.209990
H	 0.148512	 2.811257	 -0.112242
H	 -1.536306	 3.271460	 0.074124
C	 -0.252658	 0.041456	 -0.226725
H	 -1.227597	 1.209349	 1.293976
H	 -2.234663	 0.880781	 -0.084406
C	 1.180775	 0.282413	 0.250794
H	 -0.266029	 -0.034465	 -1.312038
H	 -0.597733	 -0.921000	 0.146291
C	 2.148627	 -0.814315	 -0.201312
H	 1.516199	 1.249228	 -0.115937
H	 1.192670	 0.346017	 1.338083
C	 3.580890	 -0.659131	 0.322722
H	 2.166869	 -0.852443	 -1.289387
H	 1.762857	 -1.776509	 0.128956
C	 4.324889	 0.564933	 -0.213704
H	 4.142010	 -1.551473	 0.056605
H	 3.564836	 -0.624694	 1.410140
H	 4.342616	 0.565491	 -1.300421
H	 3.866655	 1.493402	 0.110242
H	 5.353900	 0.572371	 0.132816

	symmetry c1
}
set optking {
	frozen_dihedral = ("
		6 3 5 8,
		6 3 2 4,
		12 8 11 14,
		8 11 14 18,
		20 17 14 18
	")
}

ee = energy('scf')
oeprop('DIPOLE', 'QUADRUPOLE', 'MULLIKEN_CHARGES')
f=open( 'psi4out.xyz', 'w' )
f.write( "25  " )
f.write( str(ee) + "\n" )
f.write( MOL.save_string_xyz() )
f.close()
--------------------------------------------------------------------------

    Molecular point group: c1

    Geometry (in Angstrom), charge = 0, multiplicity = 1:

       Center              X                  Y                   Z               Mass
    ------------   -----------------  -----------------  -----------------  -----------------
           H         -2.880685805071     1.291038504341    -1.694373914830     1.007825032070
           C         -1.904291805071     1.623076504341    -1.320170914830    12.000000000000
           C         -1.737984805071     1.552921504341     0.176502085170    12.000000000000
           O         -1.071677805071     2.002319504341    -2.078246914830    15.994914619560
           C         -2.089719805071     0.170576504341     0.743653085170    12.000000000000
           H         -0.721195805071     1.837288504341     0.421421085170     1.007825032070
           H         -2.406013805071     2.297491504341     0.607787085170     1.007825032070
           C         -1.122365805071    -0.932512495659     0.306938085170    12.000000000000
           H         -2.097304805071     0.235380504341     1.827639085170     1.007825032070
           H         -3.104370805071    -0.093187495659     0.449257085170     1.007825032070
           C          0.311067194929    -0.691555495659     0.784457085170    12.000000000000
           H         -1.135736805071    -1.008433495659    -0.778374914830     1.007825032070
           H         -1.467440805071    -1.894968495659     0.679954085170     1.007825032070
           C          1.278919194929    -1.788283495659     0.332351085170    12.000000000000
           H          0.646491194929     0.275259504341     0.417726085170     1.007825032070
           H          0.322962194929    -0.627951495659     1.871746085170     1.007825032070
           C          2.711182194929    -1.633099495659     0.856385085170    12.000000000000
           H          1.297161194929    -1.826411495659    -0.755723914830     1.007825032070
           H          0.893149194929    -2.750477495659     0.662619085170     1.007825032070
           C          3.455181194929    -0.409035495659     0.319959085170    12.000000000000
           H          3.272302194929    -2.525441495659     0.590268085170     1.007825032070
           H          2.695128194929    -1.598662495659     1.943803085170     1.007825032070
           H          3.472908194929    -0.408477495659    -0.766757914830     1.007825032070
           H          2.996947194929     0.519433504341     0.643905085170     1.007825032070
           H          4.484192194929    -0.401597495659     0.666479085170     1.007825032070

  Charge       = 0
  Multiplicity = 1
  Basis Set: 6-31G*
  Basis Set:

    Orbital Energies (a.u.)
    -----------------------

    Doubly Occupied:

       1A    -20.562736     2A    -11.326598     3A    -11.235082
       4A    -11.234067     5A    -11.223653     6A    -11.216889
       7A    -11.215283     8A    -11.214556     9A    -11.206498
      10A     -1.402722    11A     -1.105007    12A     -1.066651
      13A     -1.008782    14A     -0.942521    15A     -0.877326
      16A     -0.821216    17A     -0.787234    18A     -0.773343
      19A     -0.665515    20A     -0.656925    21A     -0.641706
      22A     -0.613823    23A     -0.610108    24A     -0.594761
      25A     -0.566763    26A     -0.546870    27A     -0.541515
      28A     -0.518615    29A     -0.515969    30A     -0.498413
      31A     -0.480547    32A     -0.476515    33A     -0.461743
      34A     -0.453144    35A     -0.442291    36A     -0.409626

  @DF-RHF Final Energy:  -387.11968908269085

   => Energetics <=

    Nuclear Repulsion Energy =            453.1341848249632562
    One-Electron Energy =               -1422.6775054983818336
    Two-Electron Energy =                 582.4236315907244261
    DFT Exchange-Correlation Energy =       0.0000000000000000
    Empirical Dispersion Energy =           0.0000000000000000
    PCM Polarization Energy =               0.0000000000000000
    EFP Energy =                            0.0000000000000000
    Total Energy =                       -387.1196890826940944

  Mulliken Charges: (a.u.)
   Center  Symbol    Alpha    Beta     Spin     Total
       1     H     0.43225  0.43225  0.00000  0.13550
       2     C     2.83037  2.83037  0.00000  0.33927
       3     C     3.21269  3.21269  0.00000 -0.42538
       4     O     4.23838  4.23838  0.00000 -0.47675
       5     C     3.16707  3.16707  0.00000 -0.33414
       6     H     0.39746  0.39746  0.00000  0.20507
       7     H     0.40591  0.40591  0.00000  0.18817
       8     C     3.15701  3.15701  0.00000 -0.31401
       9     H     0.41299  0.41299  0.00000  0.17403
      10     H     0.41742  0.41742  0.00000  0.16516
      11     C     3.15806  3.15806  0.00000 -0.31612
      12     H     0.41914  0.41914  0.00000  0.16172
      13     H     0.41759  0.41759  0.00000  0.16482
      14     C     3.15225  3.15225  0.00000 -0.30450
      15     H     0.41449  0.41449  0.00000  0.17102
      16     H     0.42443  0.42443  0.00000  0.15114
      17     C     3.15271  3.15271  0.00000 -0.30542
      18     H     0.42121  0.42121  0.00000  0.15758
      19     H     0.42316  0.42316  0.00000  0.15369
      20     C     3.24117  3.24117  0.00000 -0.48234
      21     H     0.42072  0.42072  0.00000  0.15855
      22     H     0.42408  0.42408  0.00000  0.15184
      23     H     0.41985  0.41985  0.00000  0.16031
      24     H     0.42011  0.42011  0.00000  0.15978
      25     H     0.41949  0.41949  0.00000  0.16102

   Total alpha = 36.00000, Total beta = 36.00000, Total charge = -0.00000
