  ==> Input File <==

--------------------------------------------------------------------------
set {
	reference rhf
	basis 6-31G*
}

set_num_threads( 4 )
memory 2 gb

molecule MOL {
0 1

H	 -1.109105	 -1.103417	 0.513931
N	 -1.172117	 -0.314371	 -0.100254
C	 -0.024542	 0.565565	 0.069209
H	 -1.201811	 -0.675954	 -1.034841
C	 1.271298	 -0.229563	 -0.014192
H	 -0.049409	 1.297310	 -0.731596
H	 -0.046881	 1.125219	 1.006750
H	 1.332152	 -0.753033	 -0.961461
H	 2.134169	 0.422483	 0.080702
H	 1.326077	 -0.968298	 0.781395

	symmetry c1
}
set optking {
	frozen_dihedral = ("
		1 2 3 6
	")
}

ee = optimize('scf')
oeprop('DIPOLE', 'QUADRUPOLE', 'MULLIKEN_CHARGES')
f=open( 'psi4out.xyz', 'w' )
f.write( "10  " )
f.write( str(ee) + "\n" )
f.write( MOL.save_string_xyz() )
f.close()
--------------------------------------------------------------------------

    Molecular point group: c1
  Charge       = 0
  Multiplicity = 1
  Basis Set: 6-31G*
  Basis Set:
  @DF-RHF Final Energy:  -134.24510674432287
    Total Energy =                       -134.2451067443228965
    Molecular point group: c1
  Basis Set: 6-31G*
  Basis Set:
  Basis Set: 6-31G*
  Basis Set:
  @DF-RHF Final Energy:  -134.24693802149795
    Total Energy =                       -134.2469380214979822
  Basis Set: 6-31G*
  Basis Set:
  Basis Set: 6-31G*
  Basis Set:
  @DF-RHF Final Energy:  -134.24720023870714
    Total Energy =                       -134.2472002387071655
  Basis Set: 6-31G*
  Basis Set:
  Charge       = 0
  Multiplicity = 1
  Basis Set: 6-31G*
  Basis Set:

    Orbital Energies (a.u.)
    -----------------------

    Doubly Occupied:

       1A    -15.533826     2A    -11.243005     3A    -11.211658
       4A     -1.177725     5A     -0.988159     6A     -0.832423
       7A     -0.673778     8A     -0.598704     9A     -0.575567
      10A     -0.559951    11A     -0.507162    12A     -0.484586
      13A     -0.381986

  @DF-RHF Final Energy:  -134.24720188257825

   => Energetics <=

    Nuclear Repulsion Energy =             83.1958011919140006
    One-Electron Energy =                -345.3489475533122572
    Two-Electron Energy =                 127.9059444788200040
    DFT Exchange-Correlation Energy =       0.0000000000000000
    Empirical Dispersion Energy =           0.0000000000000000
    PCM Polarization Energy =               0.0000000000000000
    EFP Energy =                            0.0000000000000000
    Total Energy =                       -134.2472018825782811
    Molecular point group: c1
  Basis Set: 6-31G*
  Basis Set:

  -Total Gradient:
     Atom            X                  Y                   Z
    ------   -----------------  -----------------  -----------------
       1        0.000897324955    -0.000934667266    -0.001394974716
       2       -0.000764567920     0.001098513434     0.001489304114
       3       -0.000884510352     0.000984043924     0.000946655321
       4        0.000044946826     0.000060148298     0.000033536055
       5        0.000033332121    -0.000077823815    -0.000043576840
       6        0.000789225057    -0.001136078162    -0.001043198349
       7       -0.000074675059    -0.000023342437     0.000004241789
       8        0.000011120473    -0.000007837131     0.000009004400
       9       -0.000029198068     0.000024299468     0.000000619159
      10       -0.000022998033     0.000012743687    -0.000001610932

  **** Optimization is complete! (in 4 steps) ****
    Final optimized geometry and variables:
    Molecular point group: c1

    Geometry (in Angstrom), charge = 0, multiplicity = 1:

    H           -1.179021421352    -1.064773651142     0.543486366379
    N           -1.232102632710    -0.265623684259    -0.060083024720
    C           -0.037637470428     0.555816828517     0.074304262754
    H           -1.301687663926    -0.624583456480    -0.993457863919
    C            1.287892030944    -0.204329051106     0.010104581580
    H           -0.061554582878     1.297827302171    -0.716952112456
    H           -0.102956096982     1.095961494280     1.013178458683
    H            1.392738974245    -0.726606235741    -0.937318672709
    H            2.132896875266     0.470384311249     0.115354232651
    H            1.352282597959    -0.942646005711     0.805482533135

  Mulliken Charges: (a.u.)
   Center  Symbol    Alpha    Beta     Spin     Total
       1     H     0.33588  0.33588  0.00000  0.32825
       2     N     3.91479  3.91479  0.00000 -0.82958
       3     C     3.06440  3.06440  0.00000 -0.12879
       4     H     0.33557  0.33557  0.00000  0.32886
       5     C     3.24479  3.24479  0.00000 -0.48958
       6     H     0.41900  0.41900  0.00000  0.16201
       7     H     0.41726  0.41726  0.00000  0.16547
       8     H     0.42398  0.42398  0.00000  0.15205
       9     H     0.42041  0.42041  0.00000  0.15918
      10     H     0.42393  0.42393  0.00000  0.15213

   Total alpha = 13.00000, Total beta = 13.00000, Total charge = -0.00000
