  ==> Input File <==

--------------------------------------------------------------------------
set {
	reference rhf
	basis 6-31G*
}

set_num_threads( 1 )
memory 2 gb

molecule MOL {
0 1

H	 2.655490	 0.019172	 0.945143
O	 1.807304	 -0.410982	 0.993451
C	 1.050492	 0.053836	 0.000068
C	 -0.318135	 -0.576402	 0.000164
O	 1.447057	 0.866821	 -0.769860
C	 -1.454360	 0.441875	 -0.000474
H	 -0.374042	 -1.230163	 -0.866135
H	 -0.374274	 -1.229227	 0.867154
C	 -2.826123	 -0.230780	 0.000056
H	 -1.357605	 1.085198	 -0.868380
H	 -1.357504	 1.086451	 0.866496
H	 -2.959731	 -0.858053	 -0.876869
H	 -3.619374	 0.509403	 -0.000080
H	 -2.959371	 -0.857318	 0.877556

	symmetry c1
}
set optking {
	frozen_dihedral = ("
		7 4 6 10,
		1 2 3 5
	")
}

ee = energy('scf')
oeprop('DIPOLE', 'QUADRUPOLE', 'MULLIKEN_CHARGES')
f=open( 'psi4out.xyz', 'w' )
f.write( "14  " )
f.write( str(ee) + "\n" )
f.write( MOL.save_string_xyz() )
f.close()
--------------------------------------------------------------------------

    Molecular point group: c1

    Geometry (in Angstrom), charge = 0, multiplicity = 1:

       Center              X                  Y                   Z               Mass
    ------------   -----------------  -----------------  -----------------  -----------------
           H          2.666297852402    -0.004306949960     0.893737652799     1.007825032070
           O          1.818111852402    -0.434460949960     0.942045652799    15.994914619560
           C          1.061299852402     0.030357050040    -0.051337347201    12.000000000000
           C         -0.307327147598    -0.599880949960    -0.051241347201    12.000000000000
           O          1.457864852402     0.843342050040    -0.821265347201    15.994914619560
           C         -1.443552147598     0.418396050040    -0.051879347201    12.000000000000
           H         -0.363234147598    -1.253641949960    -0.917540347201     1.007825032070
           H         -0.363466147598    -1.252705949960     0.815748652799     1.007825032070
           C         -2.815315147598    -0.254258949960    -0.051349347201    12.000000000000
           H         -1.346797147598     1.061719050040    -0.919785347201     1.007825032070
           H         -1.346696147598     1.062972050040     0.815090652799     1.007825032070
           H         -2.948923147598    -0.881531949960    -0.928274347201     1.007825032070
           H         -3.608566147598     0.485924050040    -0.051485347201     1.007825032070
           H         -2.948563147598    -0.880796949960     0.826150652799     1.007825032070

  Charge       = 0
  Multiplicity = 1
  Basis Set: 6-31G*
  Basis Set:

    Orbital Energies (a.u.)
    -----------------------

    Doubly Occupied:

       1A    -20.614307     2A    -20.550156     3A    -11.381239
       4A    -11.239641     5A    -11.232047     6A    -11.219868
       7A     -1.474971     8A     -1.365440     9A     -1.085477
      10A     -0.980271    11A     -0.856960    12A     -0.799421
      13A     -0.702382    14A     -0.686503    15A     -0.653249
      16A     -0.625107    17A     -0.594614    18A     -0.571988
      19A     -0.547626    20A     -0.512896    21A     -0.496900
      22A     -0.485780    23A     -0.473181    24A     -0.441143

  @DF-RHF Final Energy:  -305.87877310906305

   => Energetics <=

    Nuclear Repulsion Energy =            239.8032606135014362
    One-Electron Energy =                -892.1816035391874493
    Two-Electron Energy =                 346.4995698166230227
    DFT Exchange-Correlation Energy =       0.0000000000000000
    Empirical Dispersion Energy =           0.0000000000000000
    PCM Polarization Energy =               0.0000000000000000
    EFP Energy =                            0.0000000000000000
    Total Energy =                       -305.8787731090629336

  Mulliken Charges: (a.u.)
   Center  Symbol    Alpha    Beta     Spin     Total
       1     H     0.26861  0.26861  0.00000  0.46279
       2     O     4.34845  4.34845  0.00000 -0.69691
       3     C     2.62505  2.62505  0.00000  0.74989
       4     C     3.20852  3.20852  0.00000 -0.41704
       5     O     4.27904  4.27904  0.00000 -0.55809
       6     C     3.15953  3.15953  0.00000 -0.31907
       7     H     0.39889  0.39889  0.00000  0.20222
       8     H     0.39903  0.39903  0.00000  0.20194
       9     C     3.24229  3.24229  0.00000 -0.48459
      10     H     0.40383  0.40383  0.00000  0.19233
      11     H     0.41437  0.41437  0.00000  0.17126
      12     H     0.41877  0.41877  0.00000  0.16247
      13     H     0.41427  0.41427  0.00000  0.17147
      14     H     0.41933  0.41933  0.00000  0.16133

   Total alpha = 24.00000, Total beta = 24.00000, Total charge = -0.00000
