  ==> Input File <==

--------------------------------------------------------------------------
set {
	reference rhf
	basis 6-31G*
}

set_num_threads( 4 )
memory 2 gb

molecule MOL {
0 1

H	 -2.934558	 -1.655969	 1.175873
C	 -3.124531	 -1.107354	 0.244984
C	 -2.747325	 0.351860	 0.276931
O	 -3.595238	 -1.666037	 -0.692064
C	 -1.304021	 0.576517	 0.748798
H	 -2.913958	 0.769940	 -0.709046
H	 -3.430698	 0.843804	 0.968051
C	 -0.252658	 0.041456	 -0.226725
H	 -1.151784	 1.641804	 0.894646
H	 -1.167268	 0.114870	 1.725495
C	 1.180775	 0.282413	 0.250794
H	 -0.395976	 0.511527	 -1.197468
H	 -0.403692	 -1.024876	 -0.383771
C	 2.148627	 -0.814315	 -0.201312
H	 1.516199	 1.249228	 -0.115937
H	 1.192670	 0.346017	 1.338083
C	 3.580890	 -0.659131	 0.322722
H	 2.166869	 -0.852443	 -1.289387
H	 1.762857	 -1.776509	 0.128956
C	 4.324889	 0.564933	 -0.213704
H	 4.142010	 -1.551473	 0.056605
H	 3.564836	 -0.624694	 1.410140
H	 4.342616	 0.565491	 -1.300421
H	 3.866655	 1.493402	 0.110242
H	 5.353900	 0.572371	 0.132816

	symmetry c1
}
set optking {
	frozen_dihedral = ("
		12 8 11 14
	")
}

ee = optimize('scf')
oeprop('DIPOLE', 'QUADRUPOLE', 'MULLIKEN_CHARGES')
f=open( 'psi4out.xyz', 'w' )
f.write( "25  " )
f.write( str(ee) + "\n" )
f.write( MOL.save_string_xyz() )
f.close()
--------------------------------------------------------------------------

    Molecular point group: c1
  Charge       = 0
  Multiplicity = 1
  Basis Set: 6-31G*
  Basis Set:
  @DF-RHF Final Energy:  -387.11892306036822
    Total Energy =                       -387.1189230603672513
    Molecular point group: c1
  Basis Set: 6-31G*
  Basis Set:
  Basis Set: 6-31G*
  Basis Set:
  @DF-RHF Final Energy:  -387.11890410196543
    Total Energy =                       -387.1189041019657679
  Basis Set: 6-31G*
  Basis Set:
  Basis Set: 6-31G*
  Basis Set:
  @DF-RHF Final Energy:  -387.11655356169928
    Total Energy =                       -387.1165535616997886
  Basis Set: 6-31G*
  Basis Set:
  Basis Set: 6-31G*
  Basis Set:
  @DF-RHF Final Energy:  -387.11914211969724
    Total Energy =                       -387.1191421196971305
  Basis Set: 6-31G*
  Basis Set:
  @DF-RHF Final Energy:  -387.11916515811100
    Total Energy =                       -387.1191651581102633
  @DF-RHF Final Energy:  -387.11923521874115
    Total Energy =                       -387.1192352187421193
  @DF-RHF Final Energy:  -387.11925073848533
    Total Energy =                       -387.1192507384852206
  @DF-RHF Final Energy:  -387.11923383932560
    Total Energy =                       -387.1192338393256023
  Basis Set: 6-31G*
  Basis Set:
  @DF-RHF Final Energy:  -387.11925290789026
    Total Energy =                       -387.1192529078900861
  Basis Set: 6-31G*
  Basis Set:
  Basis Set: 6-31G*
  Basis Set:
  @DF-RHF Final Energy:  -387.11925114640866
    Total Energy =                       -387.1192511464087147
  Basis Set: 6-31G*
  Basis Set:
  Basis Set: 6-31G*
  Basis Set:
  @DF-RHF Final Energy:  -387.11925297917486
    Total Energy =                       -387.1192529791755987
  Basis Set: 6-31G*
  Basis Set:
  Charge       = 0
  Multiplicity = 1
  Basis Set: 6-31G*
  Basis Set:

    Orbital Energies (a.u.)
    -----------------------

    Doubly Occupied:

       1A    -20.561973     2A    -11.326119     3A    -11.235295
       4A    -11.234468     5A    -11.223871     6A    -11.219774
       7A    -11.218108     8A    -11.217313     9A    -11.210627
      10A     -1.401896    11A     -1.103194    12A     -1.069595
      13A     -1.012499    14A     -0.942586    15A     -0.875020
      16A     -0.820783    17A     -0.787675    18A     -0.782360
      19A     -0.664388    20A     -0.660561    21A     -0.631786
      22A     -0.625771    23A     -0.601772    24A     -0.591333
      25A     -0.580313    26A     -0.549694    27A     -0.535907
      28A     -0.524706    29A     -0.507283    30A     -0.495861
      31A     -0.491860    32A     -0.479275    33A     -0.461756
      34A     -0.459304    35A     -0.440934    36A     -0.409434

  @DF-RHF Final Energy:  -387.11925343466652

   => Energetics <=

    Nuclear Repulsion Energy =            439.2810170243549805
    One-Electron Energy =               -1394.8903482949331192
    Two-Electron Energy =                 568.4900778359116202
    DFT Exchange-Correlation Energy =       0.0000000000000000
    Empirical Dispersion Energy =           0.0000000000000000
    PCM Polarization Energy =               0.0000000000000000
    EFP Energy =                            0.0000000000000000
    Total Energy =                       -387.1192534346665752
    Molecular point group: c1
  Basis Set: 6-31G*
  Basis Set:

  -Total Gradient:
     Atom            X                  Y                   Z
    ------   -----------------  -----------------  -----------------
       1        0.000005459528     0.000003380304     0.000000536443
       2       -0.000011630252    -0.000002904216     0.000004478001
       3        0.000006464938    -0.000005974615     0.000002158117
       4        0.000001867246     0.000005960628    -0.000003030038
       5       -0.000003614919    -0.000002988101     0.000007044242
       6       -0.000001311599     0.000001104616     0.000000176415
       7       -0.000005010489    -0.000005485867    -0.000002246715
       8        0.001344469069    -0.004857679210    -0.001397338738
       9        0.000002200162    -0.000001571195    -0.000003441334
      10       -0.000001961645     0.000003730473     0.000003237784
      11        0.000480724723     0.002992099233    -0.002989610919
      12       -0.001261242300     0.003443655221     0.001903646560
      13        0.000009135758     0.000006873750     0.000000465241
      14       -0.000562716483    -0.001583379893     0.002472529201
      15       -0.000007894028    -0.000009016713    -0.000010459888
      16       -0.000000818242     0.000008966422     0.000007245291
      17        0.000000771796     0.000007469260     0.000004371814
      18        0.000000934368    -0.000005643192    -0.000004663350
      19       -0.000003008337     0.000007667437     0.000000262473
      20        0.000001791144    -0.000010244740    -0.000001370546
      21        0.000008593798     0.000005578772     0.000001972028
      22       -0.000002250834     0.000001988496     0.000001187362
      23       -0.000007100774     0.000001343230     0.000002184016
      24        0.000002388060    -0.000001808811     0.000003826500
      25        0.000003759321    -0.000003121283    -0.000003159958

  **** Optimization is complete! (in 12 steps) ****
    Final optimized geometry and variables:
    Molecular point group: c1

    Geometry (in Angstrom), charge = 0, multiplicity = 1:

    H           -3.059285050137    -1.372084545897     1.066359583699
    C           -3.199163397544    -0.795502228209     0.143417714497
    C           -2.771208539686     0.647856381640     0.222863127950
    O           -3.663841673988    -1.313842678820    -0.819537511167
    C           -1.332091046539     0.806623698209     0.732509778289
    H           -2.899661985154     1.096677806634    -0.755353595465
    H           -3.452278813461     1.146576178224     0.911294797234
    C           -0.276177843021     0.251919753227    -0.230106594472
    H           -1.142204459349     1.862203958823     0.905821750880
    H           -1.235690739236     0.319390468473     1.701246241798
    C            1.159311471065     0.505515856355     0.258841396807
    H           -0.422768572794     0.732610946311    -1.194206572991
    H           -0.438443433141    -0.812696068087    -0.379189082357
    C            2.150117959161    -0.568492947816    -0.199899704979
    H            1.479321689926     1.490274231275    -0.067333832244
    H            1.169494665448     0.530191682996     1.347693639381
    C            3.589599824191    -0.359289795299     0.283242163088
    H            2.142726931850    -0.631977564820    -1.287241523847
    H            1.799075286641    -1.532481441132     0.161449509496
    C            4.291951113069     0.858839367481    -0.319483312050
    H            4.166020296965    -1.248416285163     0.040203010502
    H            3.597100253339    -0.281199645156     1.368723460371
    H            4.291504982159     0.811292193296    -1.405098361722
    H            3.815421351322     1.789219001336    -0.028858590983
    H            5.325985687808     0.907960362401     0.007581236276

  Mulliken Charges: (a.u.)
   Center  Symbol    Alpha    Beta     Spin     Total
       1     H     0.43268  0.43268  0.00000  0.13464
       2     C     2.83080  2.83080  0.00000  0.33839
       3     C     3.20860  3.20860  0.00000 -0.41719
       4     O     4.23772  4.23772  0.00000 -0.47543
       5     C     3.16789  3.16789  0.00000 -0.33579
       6     H     0.39986  0.39986  0.00000  0.20027
       7     H     0.40672  0.40672  0.00000  0.18656
       8     C     3.15579  3.15579  0.00000 -0.31157
       9     H     0.41274  0.41274  0.00000  0.17451
      10     H     0.41959  0.41959  0.00000  0.16082
      11     C     3.15559  3.15559  0.00000 -0.31117
      12     H     0.41662  0.41662  0.00000  0.16676
      13     H     0.41708  0.41708  0.00000  0.16583
      14     C     3.15411  3.15411  0.00000 -0.30821
      15     H     0.41791  0.41791  0.00000  0.16419
      16     H     0.42373  0.42373  0.00000  0.15254
      17     C     3.15329  3.15329  0.00000 -0.30659
      18     H     0.42229  0.42229  0.00000  0.15542
      19     H     0.42137  0.42137  0.00000  0.15726
      20     C     3.24111  3.24111  0.00000 -0.48222
      21     H     0.41992  0.41992  0.00000  0.16017
      22     H     0.42358  0.42358  0.00000  0.15285
      23     H     0.42147  0.42147  0.00000  0.15706
      24     H     0.42085  0.42085  0.00000  0.15829
      25     H     0.41869  0.41869  0.00000  0.16262

   Total alpha = 36.00000, Total beta = 36.00000, Total charge =  0.00000
