                              Psi4 1.0.54 Driver

  ==> Input File <==

--------------------------------------------------------------------------
set {
	reference rhf
	basis cc-pvtz
}

set_num_threads( 4 )
memory 2 gb

molecule MOL {
0 1

H	 -1.807058	 -1.065708	 0.499860
O	 -1.432053	 -0.565244	 -0.200812
C	 -0.727158	 0.534527	 0.310686
C	 0.680222	 0.664433	 -0.252229
H	 -1.306802	 1.408001	 0.044211
H	 -0.690821	 0.490158	 1.397609
C	 1.605391	 -0.489360	 0.123098
H	 0.615089	 0.745647	 -1.332226
H	 1.101414	 1.597893	 0.110950
H	 1.247627	 -1.432485	 -0.275204
H	 2.601435	 -0.332816	 -0.273062
H	 1.691776	 -0.589902	 1.200774

	symmetry c1
}
set optking {
	frozen_dihedral = ("
		1 2 3 4
	")
}

ee,wfn = optimize('scf', return_wfn=True)
oeprop( wfn, 'DIPOLE', 'QUADRUPOLE', 'MULLIKEN_CHARGES')
f=open( 'psi4out.xyz', 'w' )
f.write( "12  " )
f.write( str(ee) + "\n" )
f.write( MOL.save_string_xyz() )
f.close()
--------------------------------------------------------------------------

    Molecular point group: c1
  Charge       = 0
  Multiplicity = 1
  Basis Set: CC-PVTZ
  Basis Set:
  @DF-RHF Final Energy:  -193.18909160614709
    Total Energy =                       -193.1890916061470875
    Molecular point group: c1
  Basis Set: CC-PVTZ
  Basis Set:
  Basis Set: CC-PVTZ
  Basis Set:
  @DF-RHF Final Energy:  -193.18978732051914
    Total Energy =                       -193.1897873205192013
  Basis Set: CC-PVTZ
  Basis Set:
  Basis Set: CC-PVTZ
  Basis Set:
  @DF-RHF Final Energy:  -193.18991917949560
    Total Energy =                       -193.1899191794955755
  Basis Set: CC-PVTZ
  Basis Set:
  Basis Set: CC-PVTZ
  Basis Set:
  @DF-RHF Final Energy:  -193.18992664047229
    Total Energy =                       -193.1899266404723221
  Basis Set: CC-PVTZ
  Basis Set:
  Basis Set: CC-PVTZ
  Basis Set:
  @DF-RHF Final Energy:  -193.18992876783625
    Total Energy =                       -193.1899287678363066
  Basis Set: CC-PVTZ
  Basis Set:
  Charge       = 0
  Multiplicity = 1
  Basis Set: CC-PVTZ
  Basis Set:

    Orbital Energies (a.u.)
    -----------------------

    Doubly Occupied:

       1A    -20.545630     2A    -11.266634     3A    -11.212944
       4A    -11.204681     5A     -1.363207     6A     -1.048784
       7A     -0.922055     8A     -0.801064     9A     -0.708589
      10A     -0.639718    11A     -0.593725    12A     -0.584731
      13A     -0.525039    14A     -0.510975    15A     -0.487229
      16A     -0.467554    17A     -0.432796

  @DF-RHF Final Energy:  -193.18992888978460

   => Energetics <=

    Nuclear Repulsion Energy =            133.2388493479348881
    One-Electron Energy =                -526.2268405796089610
    Two-Electron Energy =                 199.7980623418894766
    DFT Exchange-Correlation Energy =       0.0000000000000000
    Empirical Dispersion Energy =           0.0000000000000000
    PCM Polarization Energy =               0.0000000000000000
    EFP Energy =                            0.0000000000000000
    Total Energy =                       -193.1899288897845963
    Molecular point group: c1
  Basis Set: CC-PVTZ
  Basis Set:

  -Total Gradient:
     Atom            X                  Y                   Z
    ------   -----------------  -----------------  -----------------
       1        0.000684187731    -0.000438773766     0.000006375347
       2       -0.000786266783     0.000418757408     0.000118990851
       3       -0.000082487862     0.000315306295    -0.000486911695
       4        0.000181607416    -0.000276156785     0.000374742495
       5        0.000011857436    -0.000015384157    -0.000002910505
       6        0.000000735530     0.000004740832    -0.000004836606
       7       -0.000005848926    -0.000001218841    -0.000002066636
       8        0.000000463611    -0.000001194273     0.000000028343
       9       -0.000003951288    -0.000004330692     0.000000406796
      10        0.000002999286    -0.000002873142     0.000002737070
      11       -0.000002502858    -0.000001953366    -0.000000062400
      12       -0.000000793292     0.000003080488    -0.000006493059

  **** Optimization is complete! (in 6 steps) ****
    Final optimized geometry and variables:
    Molecular point group: c1

    Geometry (in Angstrom), charge = 0, multiplicity = 1:

    H           -1.746700800667    -1.087881849574     0.528272315292
    O           -1.399872557647    -0.558532347342    -0.163224923392
    C           -0.698964967478     0.544746794128     0.357567442990
    C            0.672430449106     0.654792690325    -0.284410296752
    H           -1.269408234634     1.447034623153     0.162513919576
    H           -0.593584288738     0.454620197590     1.435551543917
    C            1.594434006716    -0.513732239373     0.044115083582
    H            0.541307716659     0.728776888332    -1.359186635679
    H            1.124916826507     1.587257717436     0.041882138608
    H            1.163002228880    -1.450140085610    -0.285162788857
    H            2.555778324030    -0.398693123560    -0.442741383926
    H            1.772970979335    -0.582450075715     1.113028524897

  Mulliken Charges: (a.u.)
   Center  Symbol    Alpha    Beta     Spin     Total
       1     H     0.39066  0.39066  0.00000  0.21867
       2     O     4.20714  4.20714  0.00000 -0.41428
       3     C     2.97449  2.97449  0.00000  0.05102
       4     C     3.07633  3.07633  0.00000 -0.15267
       5     H     0.45927  0.45927  0.00000  0.08146
       6     H     0.47276  0.47276  0.00000  0.05449
       7     C     3.15463  3.15463  0.00000 -0.30926
       8     H     0.45259  0.45259  0.00000  0.09483
       9     H     0.45618  0.45618  0.00000  0.08763
      10     H     0.44779  0.44779  0.00000  0.10441
      11     H     0.44893  0.44893  0.00000  0.10215
      12     H     0.45922  0.45922  0.00000  0.08155

   Total alpha = 17.00000, Total beta = 17.00000, Total charge = -0.00000

*** Psi4 exiting successfully. Buy a developer a beer!
