  ==> Input File <==

--------------------------------------------------------------------------
set {
	reference rhf
	basis 6-31G*
}

set_num_threads( 1 )
memory 2 gb

molecule MOL {
0 1

H	 -0.736572	 3.355054	 3.178404
O	 -0.051881	 2.766150	 2.895040
C	 -0.523529	 1.965407	 1.841973
C	 0.598241	 1.035953	 1.413610
H	 -1.388213	 1.384488	 2.160033
H	 -0.837095	 2.583286	 1.001591
C	 0.198102	 0.111031	 0.262842
H	 0.904671	 0.449913	 2.275808
H	 1.453792	 1.641661	 1.127907
C	 1.331804	 -0.827780	 -0.158768
H	 -0.672983	 -0.469291	 0.557138
H	 -0.106965	 0.709003	 -0.594993
C	 2.723619	 -0.410569	 0.329459
H	 1.342964	 -0.912588	 -1.244120
H	 1.116806	 -1.824343	 0.220779
C	 3.243875	 0.895854	 -0.272975
H	 3.424222	 -1.207124	 0.091250
H	 2.714788	 -0.329854	 1.414619
H	 3.251977	 0.848779	 -1.358681
H	 2.637085	 1.747371	 0.016682
H	 4.259473	 1.094070	 0.055697

	symmetry c1
}
set optking {
	frozen_dihedral = ("
		2 3 4 8,
		8 4 7 10,
		16 13 10 14,
		1 2 3 5
	")
}

ee = energy('scf')
oeprop('DIPOLE', 'QUADRUPOLE', 'MULLIKEN_CHARGES')
f=open( 'psi4out.xyz', 'w' )
f.write( "21  " )
f.write( str(ee) + "\n" )
f.write( MOL.save_string_xyz() )
f.close()
--------------------------------------------------------------------------

    Molecular point group: c1

    Geometry (in Angstrom), charge = 0, multiplicity = 1:

       Center              X                  Y                   Z               Mass
    ------------   -----------------  -----------------  -----------------  -----------------
           H         -1.789761351005     2.506663223130     2.235532570400     1.007825032070
           O         -1.105070351005     1.917759223130     1.952168570400    15.994914619560
           C         -1.576718351005     1.117016223130     0.899101570400    12.000000000000
           C         -0.454948351005     0.187562223130     0.470738570400    12.000000000000
           H         -2.441402351005     0.536097223130     1.217161570400     1.007825032070
           H         -1.890284351005     1.734895223130     0.058719570400     1.007825032070
           C         -0.855087351005    -0.737359776870    -0.680029429600    12.000000000000
           H         -0.148518351005    -0.398477776870     1.332936570400     1.007825032070
           H          0.400602648995     0.793270223130     0.185035570400     1.007825032070
           C          0.278614648995    -1.676170776870    -1.101639429600    12.000000000000
           H         -1.726172351005    -1.317681776870    -0.385733429600     1.007825032070
           H         -1.160154351005    -0.139387776870    -1.537864429600     1.007825032070
           C          1.670429648995    -1.258959776870    -0.613412429600    12.000000000000
           H          0.289774648995    -1.760978776870    -2.186991429600     1.007825032070
           H          0.063616648995    -2.672733776870    -0.722092429600     1.007825032070
           C          2.190685648995     0.047463223130    -1.215846429600    12.000000000000
           H          2.371032648995    -2.055514776870    -0.851621429600     1.007825032070
           H          1.661598648995    -1.178244776870     0.471747570400     1.007825032070
           H          2.198787648995     0.000388223130    -2.301552429600     1.007825032070
           H          1.583895648995     0.898980223130    -0.926189429600     1.007825032070
           H          3.206283648995     0.245679223130    -0.887174429600     1.007825032070

  Charge       = 0
  Multiplicity = 1
  Basis Set: 6-31G*
  Basis Set:

    Orbital Energies (a.u.)
    -----------------------

    Doubly Occupied:

       1A    -20.551154     2A    -11.265391     3A    -11.214486
       4A    -11.212540     5A    -11.211955     6A    -11.206614
       7A    -11.204587     8A     -1.357840     9A     -1.090828
      10A     -1.023568    11A     -0.958507    12A     -0.874738
      13A     -0.820198    14A     -0.762692    15A     -0.688143
      16A     -0.662806    17A     -0.632741    18A     -0.616354
      19A     -0.574105    20A     -0.560847    21A     -0.540075
      22A     -0.534341    23A     -0.500302    24A     -0.493582
      25A     -0.478985    26A     -0.449302    27A     -0.445250
      28A     -0.443830    29A     -0.430909

  @DF-RHF Final Energy:  -310.19444382627609

   => Energetics <=

    Nuclear Repulsion Energy =            325.6145887978089490
    One-Electron Energy =               -1066.0045439206892297
    Two-Electron Energy =                 430.1955112966039110
    DFT Exchange-Correlation Energy =       0.0000000000000000
    Empirical Dispersion Energy =           0.0000000000000000
    PCM Polarization Energy =               0.0000000000000000
    EFP Energy =                            0.0000000000000000
    Total Energy =                       -310.1944438262764265

  Mulliken Charges: (a.u.)
   Center  Symbol    Alpha    Beta     Spin     Total
       1     H     0.28126  0.28126  0.00000  0.43747
       2     O     4.37221  4.37221  0.00000 -0.74443
       3     C     2.98724  2.98724  0.00000  0.02552
       4     C     3.16880  3.16880  0.00000 -0.33760
       5     H     0.43349  0.43349  0.00000  0.13302
       6     H     0.43379  0.43379  0.00000  0.13241
       7     C     3.16289  3.16289  0.00000 -0.32578
       8     H     0.41374  0.41374  0.00000  0.17251
       9     H     0.41157  0.41157  0.00000  0.17686
      10     C     3.15336  3.15336  0.00000 -0.30672
      11     H     0.41976  0.41976  0.00000  0.16048
      12     H     0.42199  0.42199  0.00000  0.15602
      13     C     3.16230  3.16230  0.00000 -0.32460
      14     H     0.42142  0.42142  0.00000  0.15716
      15     H     0.42022  0.42022  0.00000  0.15955
      16     C     3.24146  3.24146  0.00000 -0.48292
      17     H     0.41879  0.41879  0.00000  0.16243
      18     H     0.41724  0.41724  0.00000  0.16553
      19     H     0.42277  0.42277  0.00000  0.15445
      20     H     0.41723  0.41723  0.00000  0.16554
      21     H     0.41846  0.41846  0.00000  0.16308

   Total alpha = 29.00000, Total beta = 29.00000, Total charge =  0.00000
