  ==> Input File <==

--------------------------------------------------------------------------
set {
	reference rhf
	basis 6-31G*
}

set_num_threads( 4 )
memory 2 gb

molecule MOL {
0 1

O	 1.214711	 1.306902	 -0.000018
C	 1.122059	 0.121804	 -0.000188
C	 -0.170150	 -0.657997	 -0.000612
O	 2.172624	 -0.688929	 0.000216
C	 -1.412532	 0.227344	 -0.000452
H	 -0.153702	 -1.313099	 -0.867402
H	 -0.153924	 -1.313811	 0.865644
C	 -2.572146	 -0.398251	 0.776266
H	 -1.716445	 0.418594	 -1.024935
H	 -1.163446	 1.194290	 0.425546
C	 -3.820631	 0.482800	 0.782592
H	 -2.817125	 -1.367164	 0.345835
H	 -2.261420	 -0.590176	 1.801295
H	 -4.176460	 0.664763	 -0.227323
H	 -4.627384	 0.016377	 1.339256
H	 -3.616948	 1.447044	 1.239085
C	 3.452279	 -0.082609	 0.000533
H	 3.583069	 0.529321	 -0.880332
H	 4.163299	 -0.894027	 0.001117
H	 3.582335	 0.529955	 0.881077

	symmetry c1
}
set optking {
	frozen_dihedral = ("
		9 5 3 6
	")
}

ee = optimize('scf')
oeprop('DIPOLE', 'QUADRUPOLE', 'MULLIKEN_CHARGES')
f=open( 'psi4out.xyz', 'w' )
f.write( "20  " )
f.write( str(ee) + "\n" )
f.write( MOL.save_string_xyz() )
f.close()
--------------------------------------------------------------------------

    Molecular point group: c1
  Charge       = 0
  Multiplicity = 1
  Basis Set: 6-31G*
  Basis Set:
  @DF-RHF Final Energy:  -383.93866514849793
    Total Energy =                       -383.9386651484979893
    Molecular point group: c1
  Basis Set: 6-31G*
  Basis Set:
  Basis Set: 6-31G*
  Basis Set:
  @DF-RHF Final Energy:  -383.93891240834176
    Total Energy =                       -383.9389124083417073
  Basis Set: 6-31G*
  Basis Set:
  Basis Set: 6-31G*
  Basis Set:
  @DF-RHF Final Energy:  -383.93897204058487
    Total Energy =                       -383.9389720405849857
  Basis Set: 6-31G*
  Basis Set:
  Basis Set: 6-31G*
  Basis Set:
  @DF-RHF Final Energy:  -383.93886996079556
    Total Energy =                       -383.9388699607956141
  Basis Set: 6-31G*
  Basis Set:
  Basis Set: 6-31G*
  Basis Set:
  @DF-RHF Final Energy:  -383.93898444667855
    Total Energy =                       -383.9389844466783188
  Basis Set: 6-31G*
  Basis Set:
  Charge       = 0
  Multiplicity = 1
  Basis Set: 6-31G*
  Basis Set:

    Orbital Energies (a.u.)
    -----------------------

    Doubly Occupied:

       1A    -20.603715     2A    -20.545834     3A    -11.372633
       4A    -11.280937     5A    -11.235858     6A    -11.219795
       7A    -11.218423     8A    -11.210203     9A     -1.469591
      10A     -1.362933    11A     -1.087231    12A     -1.024214
      13A     -0.968443    14A     -0.886048    15A     -0.803914
      16A     -0.767135    17A     -0.697981    18A     -0.682454
      19A     -0.672256    20A     -0.642682    21A     -0.599144
      22A     -0.592404    23A     -0.578705    24A     -0.543493
      25A     -0.532325    26A     -0.521874    27A     -0.503645
      28A     -0.478157    29A     -0.470459    30A     -0.467899
      31A     -0.456575    32A     -0.437431

  @DF-RHF Final Energy:  -383.93898538191456

   => Energetics <=

    Nuclear Repulsion Energy =            381.2281100934866345
    One-Electron Energy =               -1278.4654104271799042
    Two-Electron Energy =                 513.2983149517787069
    DFT Exchange-Correlation Energy =       0.0000000000000000
    Empirical Dispersion Energy =           0.0000000000000000
    PCM Polarization Energy =               0.0000000000000000
    EFP Energy =                            0.0000000000000000
    Total Energy =                       -383.9389853819145628
    Molecular point group: c1
  Basis Set: 6-31G*
  Basis Set:

  -Total Gradient:
     Atom            X                  Y                   Z
    ------   -----------------  -----------------  -----------------
       1        0.000055328230    -0.000044601504     0.000070154851
       2       -0.000040233483    -0.000072261587    -0.000256562190
       3       -0.002712790300    -0.003759380813     0.002432372335
       4        0.000041669470     0.000098233515     0.000093971998
       5        0.002972962151     0.004073643494    -0.000495314268
       6        0.001784278529     0.002481669591    -0.001846987662
       7       -0.000036990581    -0.000016253528    -0.000049574162
       8        0.000003589941     0.000029194325    -0.000062794546
       9       -0.002038953713    -0.002852915118     0.000116691231
      10       -0.000021360980     0.000050018998    -0.000021000306
      11       -0.000040187728     0.000002777989     0.000036067472
      12        0.000003685360    -0.000007929939    -0.000004532506
      13        0.000010996584     0.000012634709    -0.000024494917
      14        0.000006753009    -0.000006356777     0.000007976646
      15       -0.000023882056     0.000013997015     0.000008907811
      16       -0.000003368798    -0.000000183533    -0.000008827955
      17        0.000026611590    -0.000015243994     0.000008105999
      18       -0.000003935463     0.000001134942    -0.000004529016
      19        0.000011306743     0.000010263040    -0.000000353413
      20        0.000004521487     0.000001559175     0.000000722597

  **** Optimization is complete! (in 6 steps) ****
    Final optimized geometry and variables:
    Molecular point group: c1

    Geometry (in Angstrom), charge = 0, multiplicity = 1:

    O            1.213631303313     1.266788427274    -0.169231607198
    C            1.100362141885     0.083583537508    -0.179399392457
    C           -0.200993368196    -0.686118600287    -0.150250335259
    O            2.138593380410    -0.742441026091    -0.217816364199
    C           -1.447169376329     0.205187938230    -0.148101314625
    H           -0.181416268100    -1.337293281990    -1.018781582244
    H           -0.166786270973    -1.333647965591     0.720809405770
    C           -2.626287793430    -0.445134810041     0.581486623789
    H           -1.747927529495     0.401793947179    -1.173282412376
    H           -1.214120679477     1.160527306384     0.305344764412
    C           -3.891083988048     0.410783647228     0.538566519792
    H           -2.834767053968    -1.419502490736     0.143702401875
    H           -2.350104606534    -0.629074949739     1.617688777020
    H           -4.216494912226     0.578560406161    -0.484144486404
    H           -4.707337603386    -0.067108166697     1.071221717675
    H           -3.721238798374     1.382138824913     0.993903188653
    C            3.426880900994    -0.155391041678    -0.245514289728
    H            3.542847455899     0.465195312480    -1.122393412485
    H            4.125160474953    -0.977318020890    -0.274092479054
    H            3.590460802391     0.444327375119     0.638271801593

  Mulliken Charges: (a.u.)
   Center  Symbol    Alpha    Beta     Spin     Total
       1     O     4.28518  4.28518  0.00000 -0.57036
       2     C     2.61075  2.61075  0.00000  0.77850
       3     C     3.20818  3.20818  0.00000 -0.41636
       4     O     4.30610  4.30610  0.00000 -0.61221
       5     C     3.15543  3.15543  0.00000 -0.31086
       6     H     0.39883  0.39883  0.00000  0.20235
       7     H     0.39923  0.39923  0.00000  0.20154
       8     C     3.15567  3.15567  0.00000 -0.31134
       9     H     0.41781  0.41781  0.00000  0.16438
      10     H     0.39974  0.39974  0.00000  0.20051
      11     C     3.23986  3.23986  0.00000 -0.47972
      12     H     0.42331  0.42331  0.00000  0.15338
      13     H     0.42223  0.42223  0.00000  0.15555
      14     H     0.42096  0.42096  0.00000  0.15809
      15     H     0.41871  0.41871  0.00000  0.16258
      16     H     0.41925  0.41925  0.00000  0.16149
      17     C     3.09212  3.09212  0.00000 -0.18425
      18     H     0.40902  0.40902  0.00000  0.18195
      19     H     0.40848  0.40848  0.00000  0.18303
      20     H     0.40913  0.40913  0.00000  0.18175

   Total alpha = 32.00000, Total beta = 32.00000, Total charge = -0.00000
