                              Psi4 1.0.54 Driver

  ==> Input File <==

--------------------------------------------------------------------------
set {
	reference rhf
	basis cc-pvtz
}

set_num_threads( 4 )
memory 2 gb

molecule MOL {
0 1

H	 -3.144994	 -1.202467	 -0.018751
O	 -2.321472	 -0.864941	 -0.318626
C	 -2.021813	 0.336996	 0.342658
C	 -0.669613	 0.837286	 -0.127252
H	 -2.780861	 1.084746	 0.127159
H	 -2.006390	 0.184138	 1.420053
C	 0.490865	 -0.082543	 0.241244
H	 -0.708709	 0.967192	 -1.204587
H	 -0.507562	 1.822272	 0.303070
C	 1.418711	 -0.373805	 -0.934713
H	 0.097140	 -1.013806	 0.632122
H	 1.065162	 0.371681	 1.046220
C	 2.583136	 -1.286788	 -0.565445
H	 0.845993	 -0.829198	 -1.738028
H	 1.806561	 0.561503	 -1.330264
H	 2.227527	 -2.244105	 -0.199382
H	 3.221612	 -1.476019	 -1.420925
H	 3.196070	 -0.844165	 0.212913

	symmetry c1
}
set optking {
	frozen_dihedral = ("
		10 7 4 8
	")
}

ee,wfn = optimize('scf', return_wfn=True)
oeprop( wfn, 'DIPOLE', 'QUADRUPOLE', 'MULLIKEN_CHARGES')
f=open( 'psi4out.xyz', 'w' )
f.write( "18  " )
f.write( str(ee) + "\n" )
f.write( MOL.save_string_xyz() )
f.close()
--------------------------------------------------------------------------

    Molecular point group: c1
  Charge       = 0
  Multiplicity = 1
  Basis Set: CC-PVTZ
  Basis Set:
  @DF-RHF Final Energy:  -271.28238569687653
    Total Energy =                       -271.2823856968767018
    Molecular point group: c1
  Basis Set: CC-PVTZ
  Basis Set:
  Basis Set: CC-PVTZ
  Basis Set:
  @DF-RHF Final Energy:  -271.28262093650994
    Total Energy =                       -271.2826209365098293
  Basis Set: CC-PVTZ
  Basis Set:
  Basis Set: CC-PVTZ
  Basis Set:
  @DF-RHF Final Energy:  -271.28267833350719
    Total Energy =                       -271.2826783335072491
  Basis Set: CC-PVTZ
  Basis Set:
  Charge       = 0
  Multiplicity = 1
  Basis Set: CC-PVTZ
  Basis Set:

    Orbital Energies (a.u.)
    -----------------------

    Doubly Occupied:

       1A    -20.546879     2A    -11.266335     3A    -11.210081
       4A    -11.206873     5A    -11.205077     6A    -11.201074
       7A     -1.364775     8A     -1.073792     9A     -1.009073
      10A     -0.913585    11A     -0.819052    12A     -0.784066
      13A     -0.708821    14A     -0.641167    15A     -0.625117
      16A     -0.583496    17A     -0.569977    18A     -0.559914
      19A     -0.522920    20A     -0.499747    21A     -0.490369
      22A     -0.467601    23A     -0.454579    24A     -0.448203
      25A     -0.431898

  @DF-RHF Final Energy:  -271.28267929920003

   => Energetics <=

    Nuclear Repulsion Energy =            250.9981291492804587
    One-Electron Energy =                -865.3526765327087560
    Two-Electron Energy =                 343.0718680842281856
    DFT Exchange-Correlation Energy =       0.0000000000000000
    Empirical Dispersion Energy =           0.0000000000000000
    PCM Polarization Energy =               0.0000000000000000
    EFP Energy =                            0.0000000000000000
    Total Energy =                       -271.2826792992001401
    Molecular point group: c1
  Basis Set: CC-PVTZ
  Basis Set:

  -Total Gradient:
     Atom            X                  Y                   Z
    ------   -----------------  -----------------  -----------------
       1        0.000004354901     0.000030446622     0.000005738564
       2        0.000127863052    -0.000037441690     0.000065008614
       3       -0.000115050149     0.000051458799    -0.000081062935
       4       -0.002053158390    -0.002701712951    -0.000334417653
       5        0.000004811365     0.000039164544     0.000021731914
       6        0.000022740386    -0.000036613789    -0.000030480078
       7        0.001644333284     0.002258352036     0.000588631983
       8        0.001367669625     0.001762664867     0.000222078282
       9       -0.000003020788    -0.000013287832     0.000000034719
      10       -0.000939906532    -0.001362517572    -0.000452319082
      11       -0.000044025506    -0.000019987518    -0.000010841876
      12       -0.000049889684    -0.000007107074    -0.000005420040
      13        0.000026556409     0.000040547760     0.000020892479
      14        0.000005840415    -0.000008934516     0.000011687746
      15        0.000000890217    -0.000001944350    -0.000016978733
      16       -0.000011115628     0.000010753831    -0.000013192453
      17        0.000003296080     0.000011551060     0.000001689493
      18        0.000007810941    -0.000015392225     0.000007219058

  **** Optimization is complete! (in 4 steps) ****
    Final optimized geometry and variables:
    Molecular point group: c1

    Geometry (in Angstrom), charge = 0, multiplicity = 1:

    H           -3.002662066447    -0.944552682630     0.229009206866
    O           -2.194260161537    -0.591340854618    -0.092929836801
    C           -1.891540648934     0.608896040103     0.569940650852
    C           -0.539580604193     1.101874937532     0.095248799326
    H           -2.649720921030     1.358790538205     0.359029102209
    H           -1.871829162858     0.453024373025     1.646859422721
    C            0.630777160781     0.170067703365     0.459254618642
    H           -0.582550788063     1.246781550394    -0.978901933036
    H           -0.377514998621     2.087404175213     0.521231954889
    C            1.567700059921    -0.116368492425    -0.711480819491
    H            0.236988974956    -0.775035630449     0.816333685052
    H            1.198421808664     0.596832345249     1.280691081805
    C            2.736862618246    -1.019247888096    -0.334786703135
    H            0.995648719349    -0.576935237431    -1.511013345769
    H            1.950051492961     0.820891602185    -1.108543002014
    H            2.386344313117    -1.977123333902     0.035101363957
    H            3.377968608796    -1.209151092238    -1.188152657606
    H            3.346053430233    -0.569152382418     0.442384325860

  Mulliken Charges: (a.u.)
   Center  Symbol    Alpha    Beta     Spin     Total
       1     H     0.39538  0.39538  0.00000  0.20924
       2     O     4.19952  4.19952  0.00000 -0.39903
       3     C     2.97526  2.97526  0.00000  0.04949
       4     C     3.09553  3.09553  0.00000 -0.19106
       5     H     0.46386  0.46386  0.00000  0.07228
       6     H     0.47235  0.47235  0.00000  0.05529
       7     C     3.08712  3.08712  0.00000 -0.17424
       8     H     0.45244  0.45244  0.00000  0.09513
       9     H     0.45062  0.45062  0.00000  0.09876
      10     C     3.08301  3.08301  0.00000 -0.16601
      11     H     0.45263  0.45263  0.00000  0.09473
      12     H     0.45394  0.45394  0.00000  0.09213
      13     C     3.15084  3.15084  0.00000 -0.30168
      14     H     0.45041  0.45041  0.00000  0.09919
      15     H     0.45626  0.45626  0.00000  0.08747
      16     H     0.45457  0.45457  0.00000  0.09087
      17     H     0.44942  0.44942  0.00000  0.10115
      18     H     0.45685  0.45685  0.00000  0.08629

   Total alpha = 25.00000, Total beta = 25.00000, Total charge =  0.00000

*** Psi4 exiting successfully. Buy a developer a beer!
