  ==> Input File <==

--------------------------------------------------------------------------
set {
	reference rhf
	basis cc-pvtz
}

set_num_threads( 4 )
memory 2 gb

molecule MOL {
0 1

O	 -2.071633	 -1.227563	 -0.223463
C	 -1.652164	 -0.152425	 0.058082
C	 -0.327811	 0.006324	 0.778296
C	 -2.402515	 1.108629	 -0.298924
C	 0.843231	 -0.001575	 -0.211665
H	 -0.319484	 0.928173	 1.350354
H	 -0.227804	 -0.823091	 1.466705
C	 2.197693	 0.138030	 0.476937
H	 0.722944	 0.805202	 -0.930230
H	 0.813976	 -0.926978	 -0.776588
C	 3.308647	 0.558926	 -0.478987
H	 2.119662	 0.863453	 1.282043
H	 2.460151	 -0.807754	 0.941855
H	 3.091280	 1.519525	 -0.934000
H	 3.431575	 -0.164262	 -1.277897
H	 4.257121	 0.645381	 0.038046
H	 -3.240910	 0.874416	 -0.936711
H	 -1.747554	 1.818823	 -0.790984
H	 -2.760419	 1.579708	 0.610998

	symmetry c1
}
set optking {
	frozen_dihedral = ("
		11 8 5 9
	")
}

ee = optimize('scf')
oeprop('DIPOLE', 'QUADRUPOLE', 'MULLIKEN_CHARGES')
f=open( 'psi4out.xyz', 'w' )
f.write( "19  " )
f.write( str(ee) + "\n" )
f.write( MOL.save_string_xyz() )
f.close()
--------------------------------------------------------------------------

    Molecular point group: c1
  Charge       = 0
  Multiplicity = 1
  Basis Set: CC-PVTZ
  Basis Set:
  @DF-RHF Final Energy:  -309.17611977639024
    Total Energy =                       -309.1761197763902373
    Molecular point group: c1
  Basis Set: CC-PVTZ
  Basis Set:
  Basis Set: CC-PVTZ
  Basis Set:
  @DF-RHF Final Energy:  -309.17613878777513
    Total Energy =                       -309.1761387877753577
  Basis Set: CC-PVTZ
  Basis Set:
  Basis Set: CC-PVTZ
  Basis Set:
  @DF-RHF Final Energy:  -309.17621258641225
    Total Energy =                       -309.1762125864124755
  Basis Set: CC-PVTZ
  Basis Set:
  Basis Set: CC-PVTZ
  Basis Set:
  @DF-RHF Final Energy:  -309.17617075693096
    Total Energy =                       -309.1761707569308442
  Basis Set: CC-PVTZ
  Basis Set:
  Basis Set: CC-PVTZ
  Basis Set:
  @DF-RHF Final Energy:  -309.17625853135030
    Total Energy =                       -309.1762585313504133
  Basis Set: CC-PVTZ
  Basis Set:
  Charge       = 0
  Multiplicity = 1
  Basis Set: CC-PVTZ
  Basis Set:

    Orbital Energies (a.u.)
    -----------------------

    Doubly Occupied:

       1A    -20.537036     2A    -11.319572     3A    -11.228721
       4A    -11.228097     5A    -11.227048     6A    -11.222962
       7A    -11.213674     8A     -1.397172     9A     -1.092525
      10A     -1.030607    11A     -0.984887    12A     -0.891101
      13A     -0.807715    14A     -0.734973    15A     -0.664873
      16A     -0.646710    17A     -0.625461    18A     -0.615328
      19A     -0.584263    20A     -0.573000    21A     -0.556465
      22A     -0.537216    23A     -0.510979    24A     -0.505506
      25A     -0.483343    26A     -0.474070    27A     -0.470617
      28A     -0.399300

  @DF-RHF Final Energy:  -309.17626992046837

   => Energetics <=

    Nuclear Repulsion Energy =            301.8291453198534100
    One-Electron Energy =               -1016.8843887776843076
    Two-Electron Energy =                 405.8789735373626968
    DFT Exchange-Correlation Energy =       0.0000000000000000
    Empirical Dispersion Energy =           0.0000000000000000
    PCM Polarization Energy =               0.0000000000000000
    EFP Energy =                            0.0000000000000000
    Total Energy =                       -309.1762699204682008
    Molecular point group: c1
  Basis Set: CC-PVTZ
  Basis Set:

  -Total Gradient:
     Atom            X                  Y                   Z
    ------   -----------------  -----------------  -----------------
       1       -0.000013142099    -0.000015442446     0.000000584181
       2        0.000026042578     0.000016180781    -0.000045887023
       3       -0.000036218075    -0.000019729183     0.000028220118
       4       -0.000018891718    -0.000011240887     0.000019610199
       5       -0.001824770583     0.003337360541     0.003140474046
       6        0.000018422171    -0.000010260469    -0.000019073167
       7       -0.000005460195     0.000003966204     0.000014635218
       8        0.000905014157    -0.003751851322    -0.001269881994
       9        0.001338000927    -0.001904197771    -0.002412672996
      10       -0.000021243974     0.000002788927     0.000031922029
      11       -0.000408691661     0.002358455556     0.000509168943
      12        0.000006259311    -0.000009407013    -0.000009159790
      13        0.000024248270    -0.000004512575     0.000004997137
      14       -0.000005650766    -0.000002303947    -0.000000523406
      15       -0.000008063421     0.000002502567     0.000015979801
      16        0.000014974018     0.000005241737    -0.000007218930
      17        0.000001208016    -0.000000325025     0.000000544214
      18        0.000006560584    -0.000003112128    -0.000000859537
      19        0.000001402461     0.000005886449    -0.000000859044

  **** Optimization is complete! (in 6 steps) ****
    Final optimized geometry and variables:
    Molecular point group: c1

    Geometry (in Angstrom), charge = 0, multiplicity = 1:

    O           -2.050085877639    -1.305593800123    -0.220750545826
    C           -1.645230159545    -0.223487876961     0.055342194773
    C           -0.322963310729    -0.042432131475     0.774278869623
    C           -2.413028668923     1.025447119816    -0.307025643488
    C            0.847425023514    -0.030198622510    -0.214514528644
    H           -0.329536529368     0.879053520037     1.346624524884
    H           -0.208021068767    -0.870372889496     1.462489052789
    C            2.209633386004     0.072601830173     0.471856442025
    H            0.739030398047     0.782305360579    -0.928091146646
    H            0.811214820257    -0.941595351604    -0.802325221354
    C            3.328923491505     0.473884244627    -0.482862072975
    H            2.155092127420     0.806980595208     1.271065965766
    H            2.445634279499    -0.874862255170     0.945720569515
    H            3.142827141994     1.454262460690    -0.907756504364
    H            3.418959562979    -0.229927949833    -1.303789859034
    H            4.284402594330     0.509335525673     0.027286967516
    H           -3.248325593702     0.776694456784    -0.943360490459
    H           -1.768049212723     1.742333575603    -0.802508326631
    H           -2.777208967191     1.495608563779     0.600891582385

  Mulliken Charges: (a.u.)
   Center  Symbol    Alpha    Beta     Spin     Total
       1     O     4.17740  4.17740  0.00000 -0.35479
       2     C     2.85832  2.85832  0.00000  0.28336
       3     C     3.09695  3.09695  0.00000 -0.19391
       4     C     3.15541  3.15541  0.00000 -0.31083
       5     C     3.09897  3.09897  0.00000 -0.19794
       6     H     0.44928  0.44928  0.00000  0.10143
       7     H     0.43942  0.43942  0.00000  0.12115
       8     C     3.08522  3.08522  0.00000 -0.17044
       9     H     0.45334  0.45334  0.00000  0.09333
      10     H     0.44090  0.44090  0.00000  0.11819
      11     C     3.14913  3.14913  0.00000 -0.29826
      12     H     0.45579  0.45579  0.00000  0.08841
      13     H     0.44895  0.44895  0.00000  0.10211
      14     H     0.45543  0.45543  0.00000  0.08914
      15     H     0.45293  0.45293  0.00000  0.09414
      16     H     0.44740  0.44740  0.00000  0.10519
      17     H     0.43598  0.43598  0.00000  0.12803
      18     H     0.45078  0.45078  0.00000  0.09845
      19     H     0.44838  0.44838  0.00000  0.10323

   Total alpha = 28.00000, Total beta = 28.00000, Total charge = -0.00000
