                              Psi4 1.0.54 Driver

  ==> Input File <==

--------------------------------------------------------------------------
set {
	reference rhf
	basis cc-pvtz
}

set_num_threads( 4 )
memory 2 gb

molecule MOL {
0 1

H	 1.311435	 0.409623	 -0.994038
C	 0.848385	 0.440008	 0.000011
C	 -0.623497	 0.751021	 0.000090
O	 1.499809	 0.236847	 0.965214
C	 -1.523725	 -0.474323	 -0.000013
H	 -0.813143	 1.382932	 -0.864897
H	 -0.813071	 1.382716	 0.865253
H	 -1.342980	 -1.087348	 -0.873016
H	 -2.565269	 -0.177464	 0.000070
H	 -1.342898	 -1.087564	 0.872820

	symmetry c1
}
set optking {
	frozen_dihedral = ("
		4 2 3 6
	")
}

ee,wfn = optimize('scf', return_wfn=True)
oeprop( wfn, 'DIPOLE', 'QUADRUPOLE', 'MULLIKEN_CHARGES')
f=open( 'psi4out.xyz', 'w' )
f.write( "10  " )
f.write( str(ee) + "\n" )
f.write( MOL.save_string_xyz() )
f.close()
--------------------------------------------------------------------------

    Molecular point group: c1
  Charge       = 0
  Multiplicity = 1
  Basis Set: CC-PVTZ
  Basis Set:
  @DF-RHF Final Energy:  -192.02108215859803
    Total Energy =                       -192.0210821585978351
    Molecular point group: c1
  Basis Set: CC-PVTZ
  Basis Set:
  Basis Set: CC-PVTZ
  Basis Set:
  @DF-RHF Final Energy:  -192.02112832540928
    Total Energy =                       -192.0211283254091654
  Basis Set: CC-PVTZ
  Basis Set:
  Basis Set: CC-PVTZ
  Basis Set:
  @DF-RHF Final Energy:  -192.02219709434877
    Total Energy =                       -192.0221970943487122
  Basis Set: CC-PVTZ
  Basis Set:
  Basis Set: CC-PVTZ
  Basis Set:
  @DF-RHF Final Energy:  -192.02219676435271
    Total Energy =                       -192.0221967643528274
  Basis Set: CC-PVTZ
  Basis Set:
  Basis Set: CC-PVTZ
  Basis Set:
  @DF-RHF Final Energy:  -192.02231941720009
    Total Energy =                       -192.0223194172001513
  Basis Set: CC-PVTZ
  Basis Set:
  Basis Set: CC-PVTZ
  Basis Set:
  @DF-RHF Final Energy:  -192.02232089691768
    Total Energy =                       -192.0223208969177051
  Basis Set: CC-PVTZ
  Basis Set:
  Charge       = 0
  Multiplicity = 1
  Basis Set: CC-PVTZ
  Basis Set:

    Orbital Energies (a.u.)
    -----------------------

    Doubly Occupied:

       1A    -20.553385     2A    -11.322813     3A    -11.237688
       4A    -11.231281     5A     -1.408509     6A     -1.065738
       7A     -0.904940     8A     -0.790110     9A     -0.683876
      10A     -0.643502    11A     -0.606857    12A     -0.577782
      13A     -0.542488    14A     -0.511171    15A     -0.499611
      16A     -0.414460

  @DF-RHF Final Energy:  -192.02232128539015

   => Energetics <=

    Nuclear Repulsion Energy =            118.3391784778283977
    One-Electron Energy =                -494.7345752588248047
    Two-Electron Energy =                 184.3730754956062015
    DFT Exchange-Correlation Energy =       0.0000000000000000
    Empirical Dispersion Energy =           0.0000000000000000
    PCM Polarization Energy =               0.0000000000000000
    EFP Energy =                            0.0000000000000000
    Total Energy =                       -192.0223212853902055
    Molecular point group: c1
  Basis Set: CC-PVTZ
  Basis Set:

  -Total Gradient:
     Atom            X                  Y                   Z
    ------   -----------------  -----------------  -----------------
       1        0.000000456575     0.000000567203     0.000015314971
       2        0.000576659499     0.001905001107     0.000129659670
       3        0.000266287101     0.000715959350     0.001068036072
       4       -0.000448008723    -0.001517064810    -0.000248671477
       5        0.000000001216     0.000004654151     0.000007808295
       6       -0.000402899565    -0.001112989178    -0.000973117524
       7        0.000002967226    -0.000001085396     0.000000436923
       8        0.000004587110     0.000007295237    -0.000000424977
       9        0.000000315439    -0.000000577122     0.000000130088
      10       -0.000000365879    -0.000001760542     0.000000827960

  **** Optimization is complete! (in 7 steps) ****
    Final optimized geometry and variables:
    Molecular point group: c1

    Geometry (in Angstrom), charge = 0, multiplicity = 1:

    H            1.233394863322     0.177117952042    -1.233041836341
    C            0.794950696176     0.189764676267    -0.227127702390
    C           -0.645557556636     0.622230265750    -0.145073158118
    O            1.433500045575    -0.168403424551     0.701209851627
    C           -1.569902053258    -0.583587855722    -0.350078650554
    H           -0.841167835390     1.359441581044    -0.916343206577
    H           -0.817974870392     1.068994909041     0.824864536573
    H           -1.391993905612    -1.058815164417    -1.308626967071
    H           -2.606183755054    -0.272670156901    -0.321952752753
    H           -1.413004206203    -1.320988612479     0.426449425356

  Mulliken Charges: (a.u.)
   Center  Symbol    Alpha    Beta     Spin     Total
       1     H     0.46202  0.46202  0.00000  0.07596
       2     C     2.90307  2.90307  0.00000  0.19385
       3     C     3.08114  3.08114  0.00000 -0.16228
       4     O     4.16719  4.16719  0.00000 -0.33439
       5     C     3.14688  3.14688  0.00000 -0.29376
       6     H     0.45233  0.45233  0.00000  0.09534
       7     H     0.44267  0.44267  0.00000  0.11466
       8     H     0.45410  0.45410  0.00000  0.09179
       9     H     0.44630  0.44630  0.00000  0.10740
      10     H     0.44428  0.44428  0.00000  0.11143

   Total alpha = 16.00000, Total beta = 16.00000, Total charge = -0.00000

*** Psi4 exiting successfully. Buy a developer a beer!
