  ==> Input File <==

--------------------------------------------------------------------------
set {
	reference rhf
	basis 6-31G*
}

set_num_threads( 4 )
memory 2 gb

molecule MOL {
0 1

H	 -2.698709	 -0.000305	 0.034435
C	 -1.693833	 0.000034	 0.434417
O	 -0.828952	 -0.000968	 -0.659236
H	 -1.574200	 0.882896	 1.055746
H	 -1.574147	 -0.881698	 1.057355
C	 0.559449	 -0.000018	 -0.420814
C	 1.119930	 -1.406757	 -0.221156
C	 1.333881	 0.789315	 -1.474459
H	 0.647270	 0.528815	 0.520809
H	 0.516398	 -1.954021	 0.494945
H	 2.134537	 -1.351214	 0.160582
H	 1.150527	 -1.972242	 -1.147144
H	 0.878036	 1.761727	 -1.626366
H	 2.357612	 0.940680	 -1.146541
H	 1.370202	 0.274551	 -2.429205

	symmetry c1
}
set optking {
	frozen_dihedral = ("
		9 6 3 2
	")
}

ee = optimize('scf')
oeprop('DIPOLE', 'QUADRUPOLE', 'MULLIKEN_CHARGES')
f=open( 'psi4out.xyz', 'w' )
f.write( "15  " )
f.write( str(ee) + "\n" )
f.write( MOL.save_string_xyz() )
f.close()
--------------------------------------------------------------------------

    Molecular point group: c1
  Charge       = 0
  Multiplicity = 1
  Basis Set: 6-31G*
  Basis Set:
  @DF-RHF Final Energy:  -232.13701308440628
    Total Energy =                       -232.1370130844063624
    Molecular point group: c1
  Basis Set: 6-31G*
  Basis Set:
  Basis Set: 6-31G*
  Basis Set:
  @DF-RHF Final Energy:  -232.14048723858633
    Total Energy =                       -232.1404872385861040
  Basis Set: 6-31G*
  Basis Set:
  Basis Set: 6-31G*
  Basis Set:
  @DF-RHF Final Energy:  -232.14121129600181
    Total Energy =                       -232.1412112960016998
  Basis Set: 6-31G*
  Basis Set:
  Basis Set: 6-31G*
  Basis Set:
  @DF-RHF Final Energy:  -232.14124013695346
    Total Energy =                       -232.1412401369533427
  Basis Set: 6-31G*
  Basis Set:
  Basis Set: 6-31G*
  Basis Set:
  @DF-RHF Final Energy:  -232.14124428356897
    Total Energy =                       -232.1412442835689944
  Basis Set: 6-31G*
  Basis Set:
  Charge       = 0
  Multiplicity = 1
  Basis Set: 6-31G*
  Basis Set:

    Orbital Energies (a.u.)
    -----------------------

    Doubly Occupied:

       1A    -20.549766     2A    -11.274212     3A    -11.263858
       4A    -11.207968     5A    -11.206315     6A     -1.374484
       7A     -1.052192     8A     -0.938540     9A     -0.916891
      10A     -0.794257    11A     -0.670723    12A     -0.639770
      13A     -0.636951    14A     -0.584187    15A     -0.550627
      16A     -0.540675    17A     -0.532597    18A     -0.498004
      19A     -0.488889    20A     -0.456280    21A     -0.406302

  @DF-RHF Final Energy:  -232.14124442490311

   => Energetics <=

    Nuclear Repulsion Energy =            197.1577022906947150
    One-Electron Energy =                -705.4309207709372913
    Two-Electron Energy =                 276.1319740553394695
    DFT Exchange-Correlation Energy =       0.0000000000000000
    Empirical Dispersion Energy =           0.0000000000000000
    PCM Polarization Energy =               0.0000000000000000
    EFP Energy =                            0.0000000000000000
    Total Energy =                       -232.1412444249031068
    Molecular point group: c1
  Basis Set: 6-31G*
  Basis Set:

  -Total Gradient:
     Atom            X                  Y                   Z
    ------   -----------------  -----------------  -----------------
       1        0.000003355589    -0.000000128605    -0.000000922632
       2       -0.000031822765     0.000913010472    -0.000004332369
       3        0.000028731554    -0.001540205862     0.000172161430
       4        0.000002421754    -0.000003868309    -0.000001291195
       5        0.000005624180     0.000003128264    -0.000006243173
       6        0.000103489306     0.001565085685    -0.000733758801
       7        0.000010903484    -0.000010439937     0.000028903316
       8        0.000012945280     0.000028907835    -0.000002670677
       9       -0.000111211610    -0.000959784085     0.000548803526
      10       -0.000001173434    -0.000014574399     0.000004603020
      11       -0.000008140186    -0.000001968155     0.000001386906
      12       -0.000001794960     0.000016100904    -0.000000489731
      13        0.000004396661     0.000010982786    -0.000011131005
      14       -0.000014715271    -0.000000863694     0.000000185482
      15       -0.000003009578    -0.000005382900     0.000004795903

  **** Optimization is complete! (in 6 steps) ****
    Final optimized geometry and variables:
    Molecular point group: c1

    Geometry (in Angstrom), charge = 0, multiplicity = 1:

    H           -2.767076415685     0.083255182997     0.398976114356
    C           -1.770718145404     0.108016087588     0.819296803873
    O           -0.871261500108     0.112830925240    -0.243278974787
    H           -1.670211217172     1.004054019709     1.428693590855
    H           -1.645656462837    -0.760544239169     1.461745128036
    C            0.492548446141     0.145549354468     0.103696830721
    C            1.035426106086    -1.271154797882     0.267999397867
    C            1.217273427704     0.914782967190    -0.989527613866
    H            0.606993585940     0.675103778208     1.048818673174
    H            0.494482302927    -1.814368599453     1.035762030844
    H            2.084155267323    -1.253420614580     0.548973748584
    H            0.937438309316    -1.818275788772    -0.663856119973
    H            0.818779999740     1.919573295691    -1.072061535169
    H            2.280403226931     0.979210802990    -0.779492632878
    H            1.084683882247     0.418801556536    -1.945359349661

  Mulliken Charges: (a.u.)
   Center  Symbol    Alpha    Beta     Spin     Total
       1     H     0.41252  0.41252  0.00000  0.17496
       2     C     3.07935  3.07935  0.00000 -0.15870
       3     O     4.30931  4.30931  0.00000 -0.61861
       4     H     0.42983  0.42983  0.00000  0.14034
       5     H     0.43097  0.43097  0.00000  0.13806
       6     C     2.91584  2.91584  0.00000  0.16832
       7     C     3.24253  3.24253  0.00000 -0.48505
       8     C     3.23808  3.23808  0.00000 -0.47616
       9     H     0.43122  0.43122  0.00000  0.13756
      10     H     0.41922  0.41922  0.00000  0.16156
      11     H     0.42295  0.42295  0.00000  0.15411
      12     H     0.41507  0.41507  0.00000  0.16985
      13     H     0.41458  0.41458  0.00000  0.17083
      14     H     0.42377  0.42377  0.00000  0.15245
      15     H     0.41476  0.41476  0.00000  0.17047

   Total alpha = 21.00000, Total beta = 21.00000, Total charge = -0.00000
