                              Psi4 1.0.54 Driver

  ==> Input File <==

--------------------------------------------------------------------------
set {
	reference rhf
	basis cc-pvtz
}

set_num_threads( 4 )
memory 2 gb

molecule MOL {
0 1

H	 -2.600943	 1.170581	 -2.434098
O	 -1.807280	 0.657722	 -2.462255
C	 -1.148981	 0.837640	 -1.320674
C	 0.134176	 0.052516	 -1.287212
O	 -1.557584	 1.541748	 -0.463209
C	 0.926581	 0.227233	 0.000178
H	 0.715496	 0.354050	 -2.152586
H	 -0.124163	 -0.988296	 -1.453612
C	 2.220156	 -0.582071	 -0.000088
H	 1.150535	 1.278428	 0.142548
H	 0.309848	 -0.065565	 0.842396
C	 3.466689	 0.296012	 -0.000457
H	 2.239073	 -1.234095	 -0.869382
H	 2.239505	 -1.233985	 0.869270
H	 3.493549	 0.935857	 -0.875887
H	 4.368821	 -0.304526	 -0.001199
H	 3.494559	 0.935166	 0.875458

	symmetry c1
}
set optking {
	frozen_dihedral = ("
		10 6 9 13
	")
}

ee,wfn = optimize('scf', return_wfn=True)
oeprop( wfn, 'DIPOLE', 'QUADRUPOLE', 'MULLIKEN_CHARGES')
f=open( 'psi4out.xyz', 'w' )
f.write( "17  " )
f.write( str(ee) + "\n" )
f.write( MOL.save_string_xyz() )
f.close()
--------------------------------------------------------------------------

    Molecular point group: c1
  Charge       = 0
  Multiplicity = 1
  Basis Set: CC-PVTZ
  Basis Set:
  @DF-RHF Final Energy:  -345.04291129963684
    Total Energy =                       -345.0429112996369554
    Molecular point group: c1
  Basis Set: CC-PVTZ
  Basis Set:
  Basis Set: CC-PVTZ
  Basis Set:
  @DF-RHF Final Energy:  -345.04313384653358
    Total Energy =                       -345.0431338465333511
  Basis Set: CC-PVTZ
  Basis Set:
  Basis Set: CC-PVTZ
  Basis Set:
  @DF-RHF Final Energy:  -345.04228635754998
    Total Energy =                       -345.0422863575498695
  Basis Set: CC-PVTZ
  Basis Set:
  Basis Set: CC-PVTZ
  Basis Set:
  @DF-RHF Final Energy:  -345.04324531952426
    Total Energy =                       -345.0432453195242601
  Basis Set: CC-PVTZ
  Basis Set:
  Basis Set: CC-PVTZ
  Basis Set:
  @DF-RHF Final Energy:  -345.04325866451666
    Total Energy =                       -345.0432586645165998
  Basis Set: CC-PVTZ
  Basis Set:
  Charge       = 0
  Multiplicity = 1
  Basis Set: CC-PVTZ
  Basis Set:

    Orbital Energies (a.u.)
    -----------------------

    Doubly Occupied:

       1A    -20.604093     2A    -20.540801     3A    -11.373487
       4A    -11.239861     5A    -11.221104     6A    -11.220487
       7A    -11.211928     8A     -1.477666     9A     -1.369208
      10A     -1.090828    11A     -1.018605    12A     -0.915197
      13A     -0.827447    14A     -0.789286    15A     -0.703866
      16A     -0.691452    17A     -0.667561    18A     -0.622689
      19A     -0.605968    20A     -0.589541    21A     -0.566822
      22A     -0.529107    23A     -0.526017    24A     -0.484603
      25A     -0.478473    26A     -0.478047    27A     -0.467747
      28A     -0.445570

  @DF-RHF Final Energy:  -345.04325910110845

   => Energetics <=

    Nuclear Repulsion Energy =            305.7844337244467852
    One-Electron Energy =               -1076.1404585170880637
    Two-Electron Energy =                 425.3127656915326611
    DFT Exchange-Correlation Energy =       0.0000000000000000
    Empirical Dispersion Energy =           0.0000000000000000
    PCM Polarization Energy =               0.0000000000000000
    EFP Energy =                            0.0000000000000000
    Total Energy =                       -345.0432591011086174
    Molecular point group: c1
  Basis Set: CC-PVTZ
  Basis Set:

  -Total Gradient:
     Atom            X                  Y                   Z
    ------   -----------------  -----------------  -----------------
       1       -0.000008514002     0.000000817423    -0.000005526473
       2       -0.000021153128     0.000026059562    -0.000008082656
       3        0.000041374903    -0.000024515073     0.000067731536
       4        0.000011682998    -0.000005690453    -0.000015048461
       5       -0.000011007631    -0.000013023034    -0.000049515890
       6        0.000059931199     0.000002733220     0.001528567409
       7       -0.000004019038    -0.000012026948    -0.000003909134
       8       -0.000015016085     0.000000703711    -0.000008600725
       9       -0.000757559135    -0.001201969135     0.000634649052
      10        0.000134778212     0.000164825331    -0.001392244365
      11        0.000029541558    -0.000013969648     0.000001886210
      12       -0.000034713638     0.000021259749     0.000004440306
      13        0.000586350188     0.001029077129    -0.000756605118
      14       -0.000030242185     0.000015748298     0.000006553445
      15        0.000000226763     0.000028582045    -0.000009461101
      16        0.000002077988    -0.000021093906    -0.000020126420
      17        0.000016261039     0.000002481731     0.000025292383

  **** Optimization is complete! (in 6 steps) ****
    Final optimized geometry and variables:
    Molecular point group: c1

    Geometry (in Angstrom), charge = 0, multiplicity = 1:

    H           -2.873484551050     0.736274397503    -1.631856271748
    O           -2.085885807330     0.213802263460    -1.653690004208
    C           -1.430078994206     0.393472620925    -0.510488540741
    C           -0.157356979102    -0.408107730818    -0.465467588645
    O           -1.834909725842     1.106778999351     0.341211792825
    C            0.629087357136    -0.240784707009     0.828901350825
    H            0.434741846049    -0.115418396686    -1.326833232437
    H           -0.427296207839    -1.445732914587    -0.631735969788
    C            1.947845635035    -1.040622583039     0.826854132596
    H            0.834852248374     0.813035546891     0.968985640674
    H            0.002742593659    -0.537974869822     1.659581218464
    C            3.189946938914    -0.153090755106     0.808636395130
    H            1.981230894967    -1.695537943229    -0.038247481919
    H            1.987687025168    -1.686079278245     1.696506182614
    H            3.195102768097     0.495263939191    -0.061794509604
    H            4.096528344583    -0.746948303630     0.783945995388
    H            3.229842202294     0.479115076596     1.688880612979

  Mulliken Charges: (a.u.)
   Center  Symbol    Alpha    Beta     Spin     Total
       1     H     0.38235  0.38235  0.00000  0.23531
       2     O     4.16018  4.16018  0.00000 -0.32037
       3     C     2.80652  2.80652  0.00000  0.38697
       4     C     3.11004  3.11004  0.00000 -0.22009
       5     O     4.19097  4.19097  0.00000 -0.38194
       6     C     3.09054  3.09054  0.00000 -0.18107
       7     H     0.43763  0.43763  0.00000  0.12474
       8     H     0.43701  0.43701  0.00000  0.12597
       9     C     3.09132  3.09132  0.00000 -0.18264
      10     H     0.44610  0.44610  0.00000  0.10779
      11     H     0.44083  0.44083  0.00000  0.11834
      12     C     3.14632  3.14632  0.00000 -0.29263
      13     H     0.45606  0.45606  0.00000  0.08788
      14     H     0.44674  0.44674  0.00000  0.10652
      15     H     0.45585  0.45585  0.00000  0.08831
      16     H     0.44908  0.44908  0.00000  0.10184
      17     H     0.45246  0.45246  0.00000  0.09508

   Total alpha = 28.00000, Total beta = 28.00000, Total charge = -0.00000

*** Psi4 exiting successfully. Buy a developer a beer!
