  ==> Input File <==

--------------------------------------------------------------------------
set {
	reference rhf
	basis 6-31G*
}

set_num_threads( 4 )
memory 2 gb

molecule MOL {
0 1

O	 1.528228	 0.914806	 0.864163
C	 1.705091	 0.115954	 0.001797
C	 0.834885	 -0.067407	 -1.217624
O	 2.721346	 -0.737485	 -0.000216
C	 -0.350035	 0.892384	 -1.266706
H	 1.471234	 0.047639	 -2.090859
H	 0.503972	 -1.102354	 -1.227676
C	 -1.213474	 0.685335	 -2.511962
H	 0.015778	 1.913897	 -1.237033
H	 -0.953101	 0.762009	 -0.373609
C	 -2.406363	 1.640605	 -2.577806
H	 -0.602226	 0.813869	 -3.404067
H	 -1.575299	 -0.341469	 -2.537194
C	 -3.269395	 1.432433	 -3.821627
H	 -2.046452	 2.666810	 -2.555284
H	 -3.018398	 1.512780	 -1.687743
H	 -2.693213	 1.587570	 -4.729460
H	 -4.106303	 2.123606	 -3.839387
H	 -3.672535	 0.424138	 -3.855247
C	 4.024888	 -0.184556	 -0.001949
H	 4.179030	 0.422472	 -0.882452
H	 4.701782	 -1.024608	 -0.003642
H	 4.181981	 0.421185	 0.878906

	symmetry c1
}
set optking {
	frozen_dihedral = ("
		1 2 4 20
	")
}

ee = optimize('scf')
oeprop('DIPOLE', 'QUADRUPOLE', 'MULLIKEN_CHARGES')
f=open( 'psi4out.xyz', 'w' )
f.write( "23  " )
f.write( str(ee) + "\n" )
f.write( MOL.save_string_xyz() )
f.close()
--------------------------------------------------------------------------

    Molecular point group: c1
  Charge       = 0
  Multiplicity = 1
  Basis Set: 6-31G*
  Basis Set:
  @DF-RHF Final Energy:  -422.96117856065064
    Total Energy =                       -422.9611785606513195
    Molecular point group: c1
  Basis Set: 6-31G*
  Basis Set:
  Basis Set: 6-31G*
  Basis Set:
  @DF-RHF Final Energy:  -422.95902732277034
    Total Energy =                       -422.9590273227701118
  Basis Set: 6-31G*
  Basis Set:
  Basis Set: 6-31G*
  Basis Set:
  @DF-RHF Final Energy:  -422.96212717019375
    Total Energy =                       -422.9621271701929572
  Basis Set: 6-31G*
  Basis Set:
  Basis Set: 6-31G*
  Basis Set:
  @DF-RHF Final Energy:  -422.96222325421996
    Total Energy =                       -422.9622232542204756
  Basis Set: 6-31G*
  Basis Set:
  Basis Set: 6-31G*
  Basis Set:
  @DF-RHF Final Energy:  -422.96222875150266
    Total Energy =                       -422.9622287515018115
  Basis Set: 6-31G*
  Basis Set:
  Charge       = 0
  Multiplicity = 1
  Basis Set: 6-31G*
  Basis Set:

    Orbital Energies (a.u.)
    -----------------------

    Doubly Occupied:

       1A    -20.589493     2A    -20.553782     3A    -11.374419
       4A    -11.287231     5A    -11.237332     6A    -11.220478
       7A    -11.219002     8A    -11.217322     9A    -11.210355
      10A     -1.460747    11A     -1.365343    12A     -1.093862
      13A     -1.042423    14A     -0.983309    15A     -0.936986
      16A     -0.847285    17A     -0.796104    18A     -0.764937
      19A     -0.695969    20A     -0.678273    21A     -0.672797
      22A     -0.649519    23A     -0.612679    24A     -0.605975
      25A     -0.576974    26A     -0.567495    27A     -0.553648
      28A     -0.531615    29A     -0.509205    30A     -0.506162
      31A     -0.486043    32A     -0.472450    33A     -0.468774
      34A     -0.466340    35A     -0.450733    36A     -0.431652

  @DF-RHF Final Energy:  -422.96222933339283

   => Energetics <=

    Nuclear Repulsion Energy =            451.6857382874458722
    One-Electron Energy =               -1471.0225135435248376
    Two-Electron Energy =                 596.3745459226861385
    DFT Exchange-Correlation Energy =       0.0000000000000000
    Empirical Dispersion Energy =           0.0000000000000000
    PCM Polarization Energy =               0.0000000000000000
    EFP Energy =                            0.0000000000000000
    Total Energy =                       -422.9622293333927701
    Molecular point group: c1
  Basis Set: 6-31G*
  Basis Set:

  -Total Gradient:
     Atom            X                  Y                   Z
    ------   -----------------  -----------------  -----------------
       1       -0.005389118716    -0.005622176169     0.003957802950
       2        0.008134451683     0.008308902926    -0.009122397404
       3        0.000054833642     0.000039813975     0.000005061298
       4       -0.003203539606    -0.002809322847     0.012025307144
       5       -0.000012742558    -0.000006550297    -0.000010298654
       6       -0.000010349770    -0.000018943224     0.000012916440
       7       -0.000004711698    -0.000008301912     0.000014026230
       8       -0.000017216284     0.000007514765    -0.000002086165
       9       -0.000004895122     0.000007007968     0.000001669030
      10        0.000005909957    -0.000004910615    -0.000007869118
      11       -0.000009421990    -0.000004977227    -0.000000914188
      12       -0.000000292542    -0.000008082356     0.000000095770
      13       -0.000005650596    -0.000000300013     0.000009800867
      14        0.000012025439     0.000009469649    -0.000006678730
      15       -0.000000639739     0.000001547692     0.000006565570
      16       -0.000002376740    -0.000007019322    -0.000001594136
      17       -0.000000407911    -0.000003021641    -0.000004941997
      18        0.000004670075     0.000003208354     0.000000067488
      19       -0.000001014554     0.000001161658     0.000004300177
      20        0.000437257835     0.000135222490    -0.006875841414
      21        0.000002136449    -0.000010463847    -0.000006211279
      22        0.000004167967     0.000006362326     0.000003741655
      23        0.000006924776    -0.000016142333    -0.000002521536

  **** Optimization is complete! (in 6 steps) ****
    Final optimized geometry and variables:
    Molecular point group: c1

    Geometry (in Angstrom), charge = 0, multiplicity = 1:

    O            1.127076476791     0.434684706503     1.978025544397
    C            1.306838301490    -0.351547943682     1.111211070338
    C            0.421210842079    -0.536179051854    -0.094854871566
    O            2.294025663251    -1.266604867123     1.156029713265
    C           -0.789225586054     0.391335447690    -0.120644966648
    H            1.043878580907    -0.397359754236    -0.976332308092
    H            0.122161965984    -1.580845569030    -0.112957128193
    C           -1.662310702737     0.175254524196    -1.357642903090
    H           -0.451273943562     1.422369421236    -0.083025457751
    H           -1.377263719352     0.233833570856     0.778207907835
    C           -2.880996277356     1.098798915172    -1.398038217991
    H           -1.065885618646     0.330243944838    -2.255641155978
    H           -1.996718948012    -0.860562377216    -1.390241026263
    C           -3.751271867940     0.884245574758    -2.635712915807
    H           -2.548547974671     2.133946019235    -1.365045282128
    H           -3.479829880745     0.942431532149    -0.503640595806
    H           -3.188975952496     1.066337190150    -3.547304991614
    H           -4.606094721214     1.553293800311    -2.635715893067
    H           -4.128235845773    -0.133739751114    -2.678644485234
    C            3.618854482528    -0.779175306308     1.241407495082
    H            3.887535787578    -0.258349077580     0.328953076547
    H            4.255911146243    -1.641589978669     1.361254044801
    H            3.732603257351    -0.117372914697     2.088500629952

  Mulliken Charges: (a.u.)
   Center  Symbol    Alpha    Beta     Spin     Total
       1     O     4.26434  4.26434  0.00000 -0.52868
       2     C     2.60732  2.60732  0.00000  0.78536
       3     C     3.21161  3.21161  0.00000 -0.42323
       4     O     4.31536  4.31536  0.00000 -0.63072
       5     C     3.15308  3.15308  0.00000 -0.30615
       6     H     0.40588  0.40588  0.00000  0.18824
       7     H     0.39794  0.39794  0.00000  0.20412
       8     C     3.15319  3.15319  0.00000 -0.30638
       9     H     0.41240  0.41240  0.00000  0.17520
      10     H     0.41091  0.41091  0.00000  0.17818
      11     C     3.15160  3.15160  0.00000 -0.30321
      12     H     0.42455  0.42455  0.00000  0.15089
      13     H     0.42345  0.42345  0.00000  0.15311
      14     C     3.23961  3.23961  0.00000 -0.47923
      15     H     0.42149  0.42149  0.00000  0.15703
      16     H     0.42096  0.42096  0.00000  0.15809
      17     H     0.42198  0.42198  0.00000  0.15603
      18     H     0.41831  0.41831  0.00000  0.16338
      19     H     0.42160  0.42160  0.00000  0.15679
      20     C     3.09474  3.09474  0.00000 -0.18948
      21     H     0.42061  0.42061  0.00000  0.15878
      22     H     0.40511  0.40511  0.00000  0.18979
      23     H     0.40397  0.40397  0.00000  0.19206

   Total alpha = 36.00000, Total beta = 36.00000, Total charge = -0.00000
