  ==> Input File <==

--------------------------------------------------------------------------
set {
	reference rhf
	basis 6-31G*
}

set_num_threads( 1 )
memory 2 gb

molecule MOL {
0 1

H	 -3.161837	 0.500524	 -0.000234
C	 -2.367097	 -0.232926	 -0.000000
O	 -1.158440	 0.455814	 -0.000122
H	 -2.468853	 -0.861886	 -0.882833
H	 -2.468942	 -0.861421	 0.883154
C	 -0.029776	 -0.365156	 0.000148
C	 -0.468613	 -1.801739	 0.224455
H	 0.661019	 -0.053370	 0.784680
H	 0.500235	 -0.274972	 -0.948990
C	 0.707994	 -2.776535	 0.240268
H	 -1.010890	 -1.853368	 1.163567
H	 -1.170506	 -2.073496	 -0.557973
H	 1.411103	 -2.536433	 1.032993
H	 0.366210	 -3.793415	 0.401461
H	 1.250884	 -2.757636	 -0.700644

	symmetry c1
}
set optking {
	frozen_dihedral = ("
		6 3 2 4,
		11 7 6 8
	")
}

ee = energy('scf')
oeprop('DIPOLE', 'QUADRUPOLE', 'MULLIKEN_CHARGES')
f=open( 'psi4out.xyz', 'w' )
f.write( "15  " )
f.write( str(ee) + "\n" )
f.write( MOL.save_string_xyz() )
f.close()
--------------------------------------------------------------------------

    Molecular point group: c1

    Geometry (in Angstrom), charge = 0, multiplicity = 1:

       Center              X                  Y                   Z               Mass
    ------------   -----------------  -----------------  -----------------  -----------------
           H         -2.479291617768     1.438853209195    -0.091506965788     1.007825032070
           C         -1.684551617768     0.705403209195    -0.091272965788    12.000000000000
           O         -0.475894617768     1.394143209195    -0.091394965788    15.994914619560
           H         -1.786307617768     0.076443209195    -0.974105965788     1.007825032070
           H         -1.786396617768     0.076908209195     0.791881034212     1.007825032070
           C          0.652769382232     0.573173209195    -0.091124965788    12.000000000000
           C          0.213932382232    -0.863409790805     0.133182034212    12.000000000000
           H          1.343564382232     0.884959209195     0.693407034212     1.007825032070
           H          1.182780382232     0.663357209195    -1.040262965788     1.007825032070
           C          1.390539382232    -1.838205790805     0.148995034212    12.000000000000
           H         -0.328344617768    -0.915038790805     1.072294034212     1.007825032070
           H         -0.487960617768    -1.135166790805    -0.649245965788     1.007825032070
           H          2.093648382232    -1.598103790805     0.941720034212     1.007825032070
           H          1.048755382232    -2.855085790805     0.310188034212     1.007825032070
           H          1.933429382232    -1.819306790805    -0.791916965788     1.007825032070

  Charge       = 0
  Multiplicity = 1
  Basis Set: 6-31G*
  Basis Set:

    Orbital Energies (a.u.)
    -----------------------

    Doubly Occupied:

       1A    -20.549535     2A    -11.266420     3A    -11.260408
       4A    -11.218763     5A    -11.215694     6A     -1.379075
       7A     -1.057467     8A     -0.962786     9A     -0.899295
      10A     -0.790835    11A     -0.683843    12A     -0.667576
      13A     -0.627430    14A     -0.597531    15A     -0.559068
      16A     -0.550906    17A     -0.524053    18A     -0.499157
      19A     -0.496349    20A     -0.440832    21A     -0.399503

  @DF-RHF Final Energy:  -232.11035798345958

   => Energetics <=

    Nuclear Repulsion Energy =            196.4553384765879684
    One-Electron Energy =                -703.8383432544144398
    Two-Electron Energy =                 275.2726467943663806
    DFT Exchange-Correlation Energy =       0.0000000000000000
    Empirical Dispersion Energy =           0.0000000000000000
    PCM Polarization Energy =               0.0000000000000000
    EFP Energy =                            0.0000000000000000
    Total Energy =                       -232.1103579834601192

  Mulliken Charges: (a.u.)
   Center  Symbol    Alpha    Beta     Spin     Total
       1     H     0.40923  0.40923  0.00000  0.18155
       2     C     3.08597  3.08597  0.00000 -0.17193
       3     O     4.31220  4.31220  0.00000 -0.62439
       4     H     0.42788  0.42788  0.00000  0.14423
       5     H     0.42751  0.42751  0.00000  0.14499
       6     C     2.96729  2.96729  0.00000  0.06542
       7     C     3.19299  3.19299  0.00000 -0.38599
       8     H     0.42391  0.42391  0.00000  0.15217
       9     H     0.42811  0.42811  0.00000  0.14377
      10     C     3.24035  3.24035  0.00000 -0.48070
      11     H     0.41320  0.41320  0.00000  0.17360
      12     H     0.41442  0.41442  0.00000  0.17116
      13     H     0.41995  0.41995  0.00000  0.16010
      14     H     0.41691  0.41691  0.00000  0.16617
      15     H     0.42008  0.42008  0.00000  0.15985

   Total alpha = 21.00000, Total beta = 21.00000, Total charge = -0.00000
