  ==> Input File <==

--------------------------------------------------------------------------
set {
	reference rhf
	basis 6-31G*
}

set_num_threads( 4 )
memory 2 gb

molecule MOL {
0 1

H	 -3.284186	 -2.886251	 -4.188567
O	 -3.722105	 -3.718341	 -4.084045
C	 -2.903645	 -4.595690	 -3.352994
C	 -2.816364	 -4.243048	 -1.872199
H	 -3.345898	 -5.576751	 -3.469630
H	 -1.905696	 -4.637346	 -3.787899
C	 -2.159636	 -2.889029	 -1.592545
H	 -3.820002	 -4.254967	 -1.455145
H	 -2.254433	 -5.028298	 -1.369224
C	 -2.037977	 -2.588680	 -0.095946
H	 -2.737992	 -2.105417	 -2.074023
H	 -1.167099	 -2.868110	 -2.042848
C	 -1.309753	 -1.282496	 0.241564
H	 -3.031828	 -2.571566	 0.347691
H	 -1.508160	 -3.411087	 0.380123
C	 -2.037799	 -0.007733	 -0.193645
H	 -1.157696	 -1.244418	 1.318247
H	 -0.315823	 -1.299929	 -0.202999
C	 -3.489788	 0.042957	 0.286558
H	 -2.017067	 0.064384	 -1.280144
H	 -1.513726	 0.868678	 0.179924
C	 -4.216917	 1.317354	 -0.141063
H	 -4.025645	 -0.823308	 -0.095450
H	 -3.513059	 -0.038752	 1.371301
H	 -4.239342	 1.411634	 -1.223113
H	 -5.243387	 1.322503	 0.212445
H	 -3.726170	 2.201406	 0.256408

	symmetry c1
}
set optking {
	frozen_dihedral = ("
		10 13 16 20
	")
}

ee = optimize('scf')
oeprop('DIPOLE', 'QUADRUPOLE', 'MULLIKEN_CHARGES')
f=open( 'psi4out.xyz', 'w' )
f.write( "27  " )
f.write( str(ee) + "\n" )
f.write( MOL.save_string_xyz() )
f.close()
--------------------------------------------------------------------------

    Molecular point group: c1
  Charge       = 0
  Multiplicity = 1
  Basis Set: 6-31G*
  Basis Set:
  @DF-RHF Final Energy:  -388.27856156702614
    Total Energy =                       -388.2785615670261450
    Molecular point group: c1
  Basis Set: 6-31G*
  Basis Set:
  Basis Set: 6-31G*
  Basis Set:
  @DF-RHF Final Energy:  -388.27954842473775
    Total Energy =                       -388.2795484247377544
  Basis Set: 6-31G*
  Basis Set:
  Basis Set: 6-31G*
  Basis Set:
  @DF-RHF Final Energy:  -388.27994867014030
    Total Energy =                       -388.2799486701403566
  Basis Set: 6-31G*
  Basis Set:
  Basis Set: 6-31G*
  Basis Set:
  @DF-RHF Final Energy:  -388.27998578765033
    Total Energy =                       -388.2799857876500482
  Basis Set: 6-31G*
  Basis Set:
  Basis Set: 6-31G*
  Basis Set:
  @DF-RHF Final Energy:  -388.27998993893078
    Total Energy =                       -388.2799899389303846
  Basis Set: 6-31G*
  Basis Set:
  Basis Set: 6-31G*
  Basis Set:
  @DF-RHF Final Energy:  -388.27999584822317
    Total Energy =                       -388.2799958482237344
  Basis Set: 6-31G*
  Basis Set:
  Charge       = 0
  Multiplicity = 1
  Basis Set: 6-31G*
  Basis Set:

    Orbital Energies (a.u.)
    -----------------------

    Doubly Occupied:

       1A    -20.552463     2A    -11.267166     3A    -11.219877
       4A    -11.216596     5A    -11.215971     6A    -11.215848
       7A    -11.215348     8A    -11.214627     9A    -11.209319
      10A     -1.359209    11A     -1.095561    12A     -1.059880
      13A     -1.010209    14A     -0.949447    15A     -0.887829
      16A     -0.831584    17A     -0.802442    18A     -0.763740
      19A     -0.693773    20A     -0.650584    21A     -0.639988
      22A     -0.613397    23A     -0.599438    24A     -0.588129
      25A     -0.576479    26A     -0.566785    27A     -0.531974
      28A     -0.521737    29A     -0.512324    30A     -0.495050
      31A     -0.488718    32A     -0.478056    33A     -0.469353
      34A     -0.452889    35A     -0.446993    36A     -0.445362
      37A     -0.423044

  @DF-RHF Final Energy:  -388.27999554268342

   => Energetics <=

    Nuclear Repulsion Energy =            469.7281402613680257
    One-Electron Energy =               -1457.4538930496819376
    Two-Electron Energy =                 599.4457572456301477
    DFT Exchange-Correlation Energy =       0.0000000000000000
    Empirical Dispersion Energy =           0.0000000000000000
    PCM Polarization Energy =               0.0000000000000000
    EFP Energy =                            0.0000000000000000
    Total Energy =                       -388.2799955426837641
    Molecular point group: c1
  Basis Set: 6-31G*
  Basis Set:

  -Total Gradient:
     Atom            X                  Y                   Z
    ------   -----------------  -----------------  -----------------
       1        0.000004520400     0.000020534549     0.000011552794
       2        0.000015305141     0.000018704732     0.000006508880
       3       -0.000052658491    -0.000028136895     0.000020002159
       4        0.000009782428    -0.000002585436    -0.000027734847
       5       -0.000000921073    -0.000007136169    -0.000000444915
       6       -0.000001220972     0.000002683447     0.000011953416
       7        0.000015753476    -0.000009849146    -0.000009473024
       8        0.000007286946    -0.000014922753     0.000003242503
       9        0.000011924974    -0.000004200542    -0.000018618476
      10       -0.000777816691     0.000069841573     0.001274185774
      11        0.000006703741     0.000008036106    -0.000034937591
      12        0.000016916659    -0.000010293413     0.000007472863
      13        0.001451503926     0.000198273081    -0.001800035077
      14       -0.000011854894    -0.000021478599     0.000023889255
      15        0.000012283951     0.000024875145    -0.000017291474
      16       -0.002383111016    -0.001258512963     0.000376020176
      17       -0.000011783588     0.000021988350    -0.000008806100
      18        0.000013852269     0.000008867555     0.000007012431
      19       -0.000019462095     0.000007462863     0.000042767743
      20        0.001681356150     0.001001274618     0.000134920976
      21       -0.000002842929    -0.000011519538     0.000003229793
      22        0.000012084203    -0.000000020433    -0.000009117362
      23        0.000003066359    -0.000014492032    -0.000004110774
      24       -0.000006294176     0.000000248009     0.000006791322
      25       -0.000000238982     0.000003878757    -0.000003216953
      26        0.000008915852    -0.000010195964     0.000000100894
      27       -0.000003051565     0.000006675099     0.000004135619

  **** Optimization is complete! (in 7 steps) ****
    Final optimized geometry and variables:
    Molecular point group: c1

    Geometry (in Angstrom), charge = 0, multiplicity = 1:

    H           -0.594108630813    -0.893298488991    -2.894945244556
    O           -0.988445316415    -1.747364632090    -2.794142033029
    C           -0.103597913655    -2.599538760534    -2.112247138298
    C            0.015697133721    -2.277214935248    -0.626832522787
    H           -0.500682706497    -3.598503486237    -2.238934712424
    H            0.879984108150    -2.580988527283    -2.580162193034
    C            0.608549703315    -0.896608464957    -0.335183296113
    H           -0.970995296876    -2.352973676533    -0.177232308637
    H            0.635442270984    -3.042395557960    -0.162344233911
    C            0.758994645617    -0.619949895491     1.163148345947
    H           -0.023925115696    -0.133979708151    -0.782169086729
    H            1.584286290915    -0.812469627374    -0.813908239920
    C            1.420760189312     0.722211427908     1.500229636272
    H           -0.215112538808    -0.684901654184     1.640492703364
    H            1.360606825473    -1.412001433596     1.604117587421
    C            0.682311693683     1.985800586231     1.036389345879
    H            1.543856388186     0.774368072895     2.580265915516
    H            2.425417150029     0.735845705509     1.082511196263
    C           -0.769715564161     2.101779449574     1.505372850960
    H            0.727486893318     2.069420925946    -0.047532601179
    H            1.235479235607     2.844808928464     1.411959755123
    C           -1.398815966167     3.445951523039     1.138827753719
    H           -1.367450849190     1.303024004596     1.075309205715
    H           -0.810716030291     1.966659532204     2.584552492308
    H           -1.393061428961     3.600947345412     0.063434595264
    H           -2.429604412764     3.502391861312     1.474605118813
    H           -0.856637629933     4.270344501571     1.593224783271

  Mulliken Charges: (a.u.)
   Center  Symbol    Alpha    Beta     Spin     Total
       1     H     0.27988  0.27988  0.00000  0.44023
       2     O     4.37097  4.37097  0.00000 -0.74193
       3     C     2.99749  2.99749  0.00000  0.00502
       4     C     3.16072  3.16072  0.00000 -0.32145
       5     H     0.41442  0.41442  0.00000  0.17115
       6     H     0.43199  0.43199  0.00000  0.13603
       7     C     3.16311  3.16311  0.00000 -0.32621
       8     H     0.41527  0.41527  0.00000  0.16947
       9     H     0.42421  0.42421  0.00000  0.15159
      10     C     3.15499  3.15499  0.00000 -0.30997
      11     H     0.42348  0.42348  0.00000  0.15304
      12     H     0.42529  0.42529  0.00000  0.14941
      13     C     3.15395  3.15395  0.00000 -0.30790
      14     H     0.41922  0.41922  0.00000  0.16157
      15     H     0.42136  0.42136  0.00000  0.15727
      16     C     3.15378  3.15378  0.00000 -0.30755
      17     H     0.42166  0.42166  0.00000  0.15667
      18     H     0.42251  0.42251  0.00000  0.15498
      19     C     3.15436  3.15436  0.00000 -0.30872
      20     H     0.42463  0.42463  0.00000  0.15075
      21     H     0.42179  0.42179  0.00000  0.15641
      22     C     3.23891  3.23891  0.00000 -0.47782
      23     H     0.42027  0.42027  0.00000  0.15945
      24     H     0.42298  0.42298  0.00000  0.15403
      25     H     0.42228  0.42228  0.00000  0.15544
      26     H     0.41876  0.41876  0.00000  0.16249
      27     H     0.42172  0.42172  0.00000  0.15656

   Total alpha = 37.00000, Total beta = 37.00000, Total charge = -0.00000
