  ==> Input File <==

--------------------------------------------------------------------------
set {
	reference rhf
	basis 6-31G*
}

set_num_threads( 1 )
memory 2 gb

molecule MOL {
0 1

H	 2.591676	 2.013956	 0.335017
O	 3.341076	 1.666752	 -0.126416
C	 3.569581	 0.339145	 0.272707
C	 4.894027	 -0.221311	 -0.233711
H	 3.568484	 0.352885	 1.355058
H	 2.746455	 -0.300761	 -0.043146
C	 4.982306	 -0.328440	 -1.758047
H	 5.698846	 0.409283	 0.135051
H	 5.035794	 -1.206771	 0.206898
C	 6.301599	 -0.944512	 -2.232115
H	 4.866771	 0.660505	 -2.192794
H	 4.153161	 -0.932242	 -2.127213
C	 6.406972	 -1.153474	 -3.747230
H	 7.128657	 -0.321514	 -1.896413
H	 6.429709	 -1.907413	 -1.742106
C	 6.440458	 0.134456	 -4.574631
H	 7.312745	 -1.720527	 -3.951783
H	 5.579019	 -1.776268	 -4.082579
C	 6.652161	 -0.121900	 -6.068251
H	 7.237610	 0.777949	 -4.205070
H	 5.514740	 0.689074	 -4.441413
C	 6.679570	 1.161683	 -6.897303
H	 7.584498	 -0.663775	 -6.211805
H	 5.862000	 -0.772620	 -6.437159
H	 7.480768	 1.820252	 -6.573893
H	 6.833004	 0.947041	 -7.950404
H	 5.745664	 1.708984	 -6.804331

	symmetry c1
}
set optking {
	frozen_dihedral = ("
		14 10 7 4,
		14 10 13 16,
		10 7 4 8,
		8 4 3 2,
		10 13 16 20,
		20 16 19 22
	")
}

ee = energy('scf')
oeprop('DIPOLE', 'QUADRUPOLE', 'MULLIKEN_CHARGES')
f=open( 'psi4out.xyz', 'w' )
f.write( "27  " )
f.write( str(ee) + "\n" )
f.write( MOL.save_string_xyz() )
f.close()
--------------------------------------------------------------------------

    Molecular point group: c1

    Geometry (in Angstrom), charge = 0, multiplicity = 1:

       Center              X                  Y                   Z               Mass
    ------------   -----------------  -----------------  -----------------  -----------------
           H         -2.838984308235     1.915415671345     3.116390638218     1.007825032070
           O         -2.089584308235     1.568211671345     2.654957638218    15.994914619560
           C         -1.861079308235     0.240604671345     3.054080638218    12.000000000000
           C         -0.536633308235    -0.319851328655     2.547662638218    12.000000000000
           H         -1.862176308235     0.254344671345     4.136431638218     1.007825032070
           H         -2.684205308235    -0.399301328655     2.738227638218     1.007825032070
           C         -0.448354308235    -0.426980328655     1.023326638218    12.000000000000
           H          0.268185691765     0.310742671345     2.916424638218     1.007825032070
           H         -0.394866308235    -1.305311328655     2.988271638218     1.007825032070
           C          0.870938691765    -1.043052328655     0.549258638218    12.000000000000
           H         -0.563889308235     0.561964671345     0.588579638218     1.007825032070
           H         -1.277499308235    -1.030782328655     0.654160638218     1.007825032070
           C          0.976311691765    -1.252014328655    -0.965856361782    12.000000000000
           H          1.697996691765    -0.420054328655     0.884960638218     1.007825032070
           H          0.999048691765    -2.005953328655     1.039267638218     1.007825032070
           C          1.009797691765     0.035915671345    -1.793257361782    12.000000000000
           H          1.882084691765    -1.819067328655    -1.170409361782     1.007825032070
           H          0.148358691765    -1.874808328655    -1.301205361782     1.007825032070
           C          1.221500691765    -0.220440328655    -3.286877361782    12.000000000000
           H          1.806949691765     0.679408671345    -1.423696361782     1.007825032070
           H          0.084079691765     0.590533671345    -1.660039361782     1.007825032070
           C          1.248909691765     1.063142671345    -4.115929361782    12.000000000000
           H          2.153837691765    -0.762315328655    -3.430431361782     1.007825032070
           H          0.431339691765    -0.871160328655    -3.655785361782     1.007825032070
           H          2.050107691765     1.721711671345    -3.792519361782     1.007825032070
           H          1.402343691765     0.848500671345    -5.169030361782     1.007825032070
           H          0.315003691765     1.610443671345    -4.022957361782     1.007825032070

  Charge       = 0
  Multiplicity = 1
  Basis Set: 6-31G*
  Basis Set:

    Orbital Energies (a.u.)
    -----------------------

    Doubly Occupied:

       1A    -20.550284     2A    -11.267521     3A    -11.215312
       4A    -11.210798     5A    -11.209855     6A    -11.209262
       7A    -11.207776     8A    -11.207611     9A    -11.204663
      10A     -1.357966    11A     -1.088407    12A     -1.056359
      13A     -1.007740    14A     -0.942846    15A     -0.879663
      16A     -0.811996    17A     -0.794820    18A     -0.770944
      19A     -0.700458    20A     -0.644805    21A     -0.639866
      22A     -0.615717    23A     -0.587825    24A     -0.579452
      25A     -0.571584    26A     -0.545741    27A     -0.538879
      28A     -0.516314    29A     -0.506145    30A     -0.494350
      31A     -0.475926    32A     -0.472113    33A     -0.459399
      34A     -0.453620    35A     -0.439934    36A     -0.435889
      37A     -0.424797

  @DF-RHF Final Energy:  -388.28026598023354

   => Energetics <=

    Nuclear Repulsion Energy =            458.3169921224791210
    One-Electron Energy =               -1435.0011651743091079
    Two-Electron Energy =                 588.4039070715978141
    DFT Exchange-Correlation Energy =       0.0000000000000000
    Empirical Dispersion Energy =           0.0000000000000000
    PCM Polarization Energy =               0.0000000000000000
    EFP Energy =                            0.0000000000000000
    Total Energy =                       -388.2802659802321159

  Mulliken Charges: (a.u.)
   Center  Symbol    Alpha    Beta     Spin     Total
       1     H     0.28002  0.28002  0.00000  0.43996
       2     O     4.37246  4.37246  0.00000 -0.74492
       3     C     2.99288  2.99288  0.00000  0.01423
       4     C     3.16117  3.16117  0.00000 -0.32235
       5     H     0.43136  0.43136  0.00000  0.13727
       6     H     0.43275  0.43275  0.00000  0.13450
       7     C     3.15679  3.15679  0.00000 -0.31358
       8     H     0.41562  0.41562  0.00000  0.16875
       9     H     0.42254  0.42254  0.00000  0.15492
      10     C     3.15351  3.15351  0.00000 -0.30702
      11     H     0.40697  0.40697  0.00000  0.18606
      12     H     0.42649  0.42649  0.00000  0.14702
      13     C     3.15272  3.15272  0.00000 -0.30544
      14     H     0.42351  0.42351  0.00000  0.15299
      15     H     0.42457  0.42457  0.00000  0.15086
      16     C     3.15299  3.15299  0.00000 -0.30598
      17     H     0.42286  0.42286  0.00000  0.15428
      18     H     0.42461  0.42461  0.00000  0.15077
      19     C     3.15102  3.15102  0.00000 -0.30204
      20     H     0.42448  0.42448  0.00000  0.15104
      21     H     0.42026  0.42026  0.00000  0.15947
      22     C     3.23905  3.23905  0.00000 -0.47810
      23     H     0.42393  0.42393  0.00000  0.15215
      24     H     0.42365  0.42365  0.00000  0.15269
      25     H     0.42195  0.42195  0.00000  0.15610
      26     H     0.42027  0.42027  0.00000  0.15947
      27     H     0.42157  0.42157  0.00000  0.15687

   Total alpha = 37.00000, Total beta = 37.00000, Total charge =  0.00000
