  ==> Input File <==

--------------------------------------------------------------------------
set {
	reference rhf
	basis 6-31G*
}

set_num_threads( 1 )
memory 2 gb

molecule MOL {
0 1

H	 -0.120814	 3.060970	 6.467693
C	 -0.689458	 2.165142	 6.238221
C	 -1.018497	 2.086362	 4.748019
H	 -0.099382	 1.309305	 6.552379
H	 -1.593435	 2.183624	 6.840951
C	 -1.826754	 0.836989	 4.390807
H	 -0.096128	 2.096179	 4.176406
H	 -1.579181	 2.973060	 4.456312
C	 -2.186786	 0.739770	 2.908177
H	 -1.271905	 -0.049377	 4.677412
H	 -2.749028	 0.833649	 4.967383
C	 -1.008363	 0.432875	 1.995829
H	 -2.911421	 -0.058989	 2.757646
H	 -2.676589	 1.648991	 2.566730
C	 -1.181045	 0.701995	 0.511084
O	 0.011264	 -0.020310	 2.421726
C	 -2.285934	 -0.139295	 -0.145128
H	 -0.226788	 0.500213	 0.039500
H	 -1.403910	 1.758601	 0.374702
C	 -3.651768	 0.085446	 0.506485
H	 -2.346596	 0.110469	 -1.202272
H	 -2.034737	 -1.195320	 -0.088721
C	 -4.759797	 -0.746382	 -0.137905
H	 -3.908762	 1.140117	 0.445781
H	 -3.588286	 -0.154158	 1.565709
H	 -4.868882	 -0.505166	 -1.191300
H	 -4.548009	 -1.809175	 -0.062213
H	 -5.715422	 -0.564821	 0.343442

	symmetry c1
}
set optking {
	frozen_dihedral = ("
		10 6 3 2,
		16 12 15 17
	")
}

ee = energy('scf')
oeprop('DIPOLE', 'QUADRUPOLE', 'MULLIKEN_CHARGES')
f=open( 'psi4out.xyz', 'w' )
f.write( "28  " )
f.write( str(ee) + "\n" )
f.write( MOL.save_string_xyz() )
f.close()
--------------------------------------------------------------------------

    Molecular point group: c1

    Geometry (in Angstrom), charge = 0, multiplicity = 1:

       Center              X                  Y                   Z               Mass
    ------------   -----------------  -----------------  -----------------  -----------------
           H          1.744913060884     2.448794441756     4.111130845924     1.007825032070
           C          1.176269060884     1.552966441756     3.881658845924    12.000000000000
           C          0.847230060884     1.474186441756     2.391456845924    12.000000000000
           H          1.766345060884     0.697129441756     4.195816845924     1.007825032070
           H          0.272292060884     1.571448441756     4.484388845924     1.007825032070
           C          0.038973060884     0.224813441756     2.034244845924    12.000000000000
           H          1.769599060884     1.484003441756     1.819843845924     1.007825032070
           H          0.286546060884     2.360884441756     2.099749845924     1.007825032070
           C         -0.321058939116     0.127594441756     0.551614845924    12.000000000000
           H          0.593822060884    -0.661552558244     2.320849845924     1.007825032070
           H         -0.883300939116     0.221473441756     2.610820845924     1.007825032070
           C          0.857364060884    -0.179300558244    -0.360733154076    12.000000000000
           H         -1.045693939116    -0.671164558244     0.401083845924     1.007825032070
           H         -0.810861939116     1.036815441756     0.210167845924     1.007825032070
           C          0.684682060884     0.089819441756    -1.845478154076    12.000000000000
           O          1.876991060884    -0.632485558244     0.065163845924    15.994914619560
           C         -0.420206939116    -0.751470558244    -2.501690154076    12.000000000000
           H          1.638939060884    -0.111962558244    -2.317062154076     1.007825032070
           H          0.461817060884     1.146425441756    -1.981860154076     1.007825032070
           C         -1.786040939116    -0.526729558244    -1.850077154076    12.000000000000
           H         -0.480868939116    -0.501706558244    -3.558834154076     1.007825032070
           H         -0.169009939116    -1.807495558244    -2.445283154076     1.007825032070
           C         -2.894069939116    -1.358557558244    -2.494467154076    12.000000000000
           H         -2.043034939116     0.527941441756    -1.910781154076     1.007825032070
           H         -1.722558939116    -0.766333558244    -0.790853154076     1.007825032070
           H         -3.003154939116    -1.117341558244    -3.547862154076     1.007825032070
           H         -2.682281939116    -2.421350558244    -2.418775154076     1.007825032070
           H         -3.849694939116    -1.176996558244    -2.013120154076     1.007825032070

  Charge       = 0
  Multiplicity = 1
  Basis Set: 6-31G*
  Basis Set:

    Orbital Energies (a.u.)
    -----------------------

    Doubly Occupied:

       1A    -20.549542     2A    -11.323129     3A    -11.232323
       4A    -11.229305     5A    -11.227822     6A    -11.221173
       7A    -11.215649     8A    -11.215386     9A    -11.212004
      10A    -11.205506    11A     -1.394440    12A     -1.102167
      13A     -1.075234    14A     -1.017593    15A     -0.995967
      16A     -0.905913    17A     -0.883737    18A     -0.813985
      19A     -0.792318    20A     -0.727008    21A     -0.681051
      22A     -0.652645    23A     -0.631675    24A     -0.613425
      25A     -0.604398    26A     -0.589441    27A     -0.582046
      28A     -0.572982    29A     -0.554087    30A     -0.530602
      31A     -0.525114    32A     -0.517794    33A     -0.499225
      34A     -0.489079    35A     -0.478269    36A     -0.473874
      37A     -0.465167    38A     -0.461372    39A     -0.435504
      40A     -0.395083

  @DF-RHF Final Energy:  -426.14252459635634

   => Energetics <=

    Nuclear Repulsion Energy =            549.1261929818425642
    One-Electron Energy =               -1666.3515236526436638
    Two-Electron Energy =                 691.0828060744460117
    DFT Exchange-Correlation Energy =       0.0000000000000000
    Empirical Dispersion Energy =           0.0000000000000000
    PCM Polarization Energy =               0.0000000000000000
    EFP Energy =                            0.0000000000000000
    Total Energy =                       -426.1425245963552015

  Mulliken Charges: (a.u.)
   Center  Symbol    Alpha    Beta     Spin     Total
       1     H     0.41947  0.41947  0.00000  0.16106
       2     C     3.24006  3.24006  0.00000 -0.48012
       3     C     3.15699  3.15699  0.00000 -0.31398
       4     H     0.41843  0.41843  0.00000  0.16314
       5     H     0.42376  0.42376  0.00000  0.15247
       6     C     3.14439  3.14439  0.00000 -0.28878
       7     H     0.41077  0.41077  0.00000  0.17846
       8     H     0.42797  0.42797  0.00000  0.14405
       9     C     3.22448  3.22448  0.00000 -0.44896
      10     H     0.40736  0.40736  0.00000  0.18528
      11     H     0.42276  0.42276  0.00000  0.15448
      12     C     2.72965  2.72965  0.00000  0.54069
      13     H     0.39360  0.39360  0.00000  0.21280
      14     H     0.40961  0.40961  0.00000  0.18078
      15     C     3.20320  3.20320  0.00000 -0.40639
      16     O     4.26575  4.26575  0.00000 -0.53151
      17     C     3.16163  3.16163  0.00000 -0.32326
      18     H     0.39826  0.39826  0.00000  0.20349
      19     H     0.41255  0.41255  0.00000  0.17490
      20     C     3.15315  3.15315  0.00000 -0.30630
      21     H     0.41299  0.41299  0.00000  0.17402
      22     H     0.41380  0.41380  0.00000  0.17241
      23     C     3.23720  3.23720  0.00000 -0.47441
      24     H     0.42231  0.42231  0.00000  0.15539
      25     H     0.42953  0.42953  0.00000  0.14093
      26     H     0.42106  0.42106  0.00000  0.15789
      27     H     0.42077  0.42077  0.00000  0.15845
      28     H     0.41849  0.41849  0.00000  0.16302

   Total alpha = 40.00000, Total beta = 40.00000, Total charge =  0.00000
