                              Psi4 1.0.54 Driver

  ==> Input File <==

--------------------------------------------------------------------------
set {
	reference rhf
	basis cc-pvtz
}

set_num_threads( 4 )
memory 2 gb

molecule MOL {
0 1

H	 2.440540	 -0.848383	 -0.842468
O	 2.012307	 -0.863440	 0.000222
C	 1.050374	 0.054877	 0.000135
C	 -0.318151	 -0.570512	 0.000144
O	 1.286319	 1.213453	 -0.000040
C	 -1.454884	 0.441630	 -0.000560
H	 -0.371613	 -1.223646	 -0.864985
H	 -0.371920	 -1.222758	 0.865929
C	 -2.822577	 -0.232186	 0.000063
H	 -1.359760	 1.084704	 -0.867077
H	 -1.359641	 1.085996	 0.864983
H	 -2.954352	 -0.858985	 -0.875745
H	 -3.615886	 0.505352	 0.000019
H	 -2.953878	 -0.858359	 0.876394

	symmetry c1
}
set optking {
	frozen_dihedral = ("
		1 2 3 5
	")
}

ee,wfn = optimize('scf', return_wfn=True)
oeprop( wfn, 'DIPOLE', 'QUADRUPOLE', 'MULLIKEN_CHARGES')
f=open( 'psi4out.xyz', 'w' )
f.write( "14  " )
f.write( str(ee) + "\n" )
f.write( MOL.save_string_xyz() )
f.close()
--------------------------------------------------------------------------

    Molecular point group: c1
  Charge       = 0
  Multiplicity = 1
  Basis Set: CC-PVTZ
  Basis Set:
  @DF-RHF Final Energy:  -305.98291264974887
    Total Energy =                       -305.9829126497489256
    Molecular point group: c1
  Basis Set: CC-PVTZ
  Basis Set:
  Basis Set: CC-PVTZ
  Basis Set:
  @DF-RHF Final Energy:  -305.98128338249506
    Total Energy =                       -305.9812833824950076
  Basis Set: CC-PVTZ
  Basis Set:
  Basis Set: CC-PVTZ
  Basis Set:
  @DF-RHF Final Energy:  -305.98415009827954
    Total Energy =                       -305.9841500982794287
  Basis Set: CC-PVTZ
  Basis Set:
  Basis Set: CC-PVTZ
  Basis Set:
  @DF-RHF Final Energy:  -305.98444004218607
    Total Energy =                       -305.9844400421862360
  Basis Set: CC-PVTZ
  Basis Set:
  Basis Set: CC-PVTZ
  Basis Set:
  @DF-RHF Final Energy:  -305.98444707647627
    Total Energy =                       -305.9844470764762718
  Basis Set: CC-PVTZ
  Basis Set:
  Basis Set: CC-PVTZ
  Basis Set:
  @DF-RHF Final Energy:  -305.98444834528357
    Total Energy =                       -305.9844483452834538
  Basis Set: CC-PVTZ
  Basis Set:
  Basis Set: CC-PVTZ
  Basis Set:
  @DF-RHF Final Energy:  -305.98444736945919
    Total Energy =                       -305.9844473694591898
  Basis Set: CC-PVTZ
  Basis Set:
  Charge       = 0
  Multiplicity = 1
  Basis Set: CC-PVTZ
  Basis Set:

    Orbital Energies (a.u.)
    -----------------------

    Doubly Occupied:

       1A    -20.588600     2A    -20.549777     3A    -11.374598
       4A    -11.240515     5A    -11.224520     6A    -11.216306
       7A     -1.465292     8A     -1.370631     9A     -1.084092
      10A     -0.978436    11A     -0.854801    12A     -0.796616
      13A     -0.710940    14A     -0.682285    15A     -0.665448
      16A     -0.630825    17A     -0.579526    18A     -0.562288
      19A     -0.545801    20A     -0.508651    21A     -0.497948
      22A     -0.484036    23A     -0.483738    24A     -0.447659

  @DF-RHF Final Energy:  -305.98444763848164

   => Energetics <=

    Nuclear Repulsion Energy =            239.7353679095850225
    One-Electron Energy =                -892.3529665512277234
    Two-Electron Energy =                 346.6331510031608900
    DFT Exchange-Correlation Energy =       0.0000000000000000
    Empirical Dispersion Energy =           0.0000000000000000
    PCM Polarization Energy =               0.0000000000000000
    EFP Energy =                            0.0000000000000000
    Total Energy =                       -305.9844476384817540
    Molecular point group: c1
  Basis Set: CC-PVTZ
  Basis Set:

  -Total Gradient:
     Atom            X                  Y                   Z
    ------   -----------------  -----------------  -----------------
       1       -0.004999161805    -0.005685393277    -0.003202056048
       2        0.005902921303     0.007255280123     0.007144675868
       3       -0.000219011608    -0.001504400998    -0.010716137841
       4        0.000056706911    -0.000042344744    -0.000198892011
       5       -0.000687099824    -0.000054471587     0.006952669651
       6       -0.000019449883    -0.000033134332     0.000014060361
       7        0.000009364438     0.000020533947     0.000012832983
       8        0.000008534455     0.000015916201     0.000001759154
       9       -0.000033670790     0.000030683109    -0.000005244398
      10       -0.000006223827     0.000001236059    -0.000000914750
      11       -0.000003127976    -0.000000764256    -0.000003000500
      12        0.000003238724     0.000001219508     0.000002334671
      13       -0.000018407249    -0.000007981519    -0.000000484476
      14        0.000005387134     0.000003621767    -0.000001602664

  **** Optimization is complete! (in 8 steps) ****
    Final optimized geometry and variables:
    Molecular point group: c1

    Geometry (in Angstrom), charge = 0, multiplicity = 1:

    H            2.574268626455    -0.898059321650    -0.658680245011
    O            2.037524371727    -0.862324415877     0.115936860858
    C            1.053243967486     0.063317816612    -0.004023393016
    C           -0.317344501184    -0.557021532030    -0.017579061860
    O            1.280628248734     1.216368659384    -0.008569327418
    C           -1.459036878528     0.448842144940    -0.020079726116
    H           -0.364219009266    -1.208697146759    -0.885875727504
    H           -0.371140423200    -1.217369871934     0.842256155798
    C           -2.824370562551    -0.229912912598    -0.031176572459
    H           -1.361999537525     1.098048051999    -0.882052319931
    H           -1.371265798231     1.088356722763     0.850000122305
    H           -2.948574506066    -0.852847200823    -0.910950151971
    H           -3.620715558911     0.504346787424    -0.032298876495
    H           -2.958274094282    -0.861024392425     0.841117067865

  Mulliken Charges: (a.u.)
   Center  Symbol    Alpha    Beta     Spin     Total
       1     H     0.38431  0.38431  0.00000  0.23137
       2     O     4.17685  4.17685  0.00000 -0.35369
       3     C     2.80279  2.80279  0.00000  0.39442
       4     C     3.10646  3.10646  0.00000 -0.21291
       5     O     4.16637  4.16637  0.00000 -0.33274
       6     C     3.08101  3.08101  0.00000 -0.16202
       7     H     0.44633  0.44633  0.00000  0.10735
       8     H     0.43757  0.43757  0.00000  0.12487
       9     C     3.15003  3.15003  0.00000 -0.30006
      10     H     0.44691  0.44691  0.00000  0.10617
      11     H     0.44539  0.44539  0.00000  0.10921
      12     H     0.45606  0.45606  0.00000  0.08787
      13     H     0.44496  0.44496  0.00000  0.11007
      14     H     0.45495  0.45495  0.00000  0.09009

   Total alpha = 24.00000, Total beta = 24.00000, Total charge =  0.00000

*** Psi4 exiting successfully. Buy a developer a beer!
