                              Psi4 1.0.54 Driver

  ==> Input File <==

--------------------------------------------------------------------------
set {
	reference rhf
	basis cc-pvtz
}

set_num_threads( 4 )
memory 2 gb

molecule MOL {
0 1

O	 -2.071633	 -1.227563	 -0.223463
C	 -1.652164	 -0.152425	 0.058082
C	 -0.327811	 0.006324	 0.778296
C	 -2.402515	 1.108629	 -0.298924
C	 0.843231	 -0.001575	 -0.211665
H	 -0.319484	 0.928173	 1.350354
H	 -0.227804	 -0.823091	 1.466705
C	 0.388935	 0.127500	 -1.662591
H	 1.415848	 -0.918426	 -0.096829
H	 1.512562	 0.815176	 0.035880
C	 1.550995	 0.132770	 -2.649886
H	 -0.285804	 -0.689462	 -1.903057
H	 -0.185639	 1.042129	 -1.775976
H	 2.124849	 -0.785649	 -2.584832
H	 2.226493	 0.958410	 -2.453954
H	 1.196997	 0.229566	 -3.669551
H	 -3.240910	 0.874416	 -0.936711
H	 -1.747554	 1.818823	 -0.790984
H	 -2.760419	 1.579708	 0.610998

	symmetry c1
}
set optking {
	frozen_dihedral = ("
		9 5 3 2
	")
}

ee,wfn = optimize('scf', return_wfn=True)
oeprop( wfn, 'DIPOLE', 'QUADRUPOLE', 'MULLIKEN_CHARGES')
f=open( 'psi4out.xyz', 'w' )
f.write( "19  " )
f.write( str(ee) + "\n" )
f.write( MOL.save_string_xyz() )
f.close()
--------------------------------------------------------------------------

    Molecular point group: c1
  Charge       = 0
  Multiplicity = 1
  Basis Set: CC-PVTZ
  Basis Set:
  @DF-RHF Final Energy:  -309.16359545466645
    Total Energy =                       -309.1635954546665062
    Molecular point group: c1
  Basis Set: CC-PVTZ
  Basis Set:
  Basis Set: CC-PVTZ
  Basis Set:
  @DF-RHF Final Energy:  -309.16766457427610
    Total Energy =                       -309.1676645742762162
  Basis Set: CC-PVTZ
  Basis Set:
  Basis Set: CC-PVTZ
  Basis Set:
  @DF-RHF Final Energy:  -309.16685793700026
    Total Energy =                       -309.1668579370001453
  Basis Set: CC-PVTZ
  Basis Set:
  Basis Set: CC-PVTZ
  Basis Set:
  @DF-RHF Final Energy:  -309.16849879372120
    Total Energy =                       -309.1684987937209712
  Basis Set: CC-PVTZ
  Basis Set:
  @DF-RHF Final Energy:  -309.16861341089071
    Total Energy =                       -309.1686134108909414
  @DF-RHF Final Energy:  -309.16863074638422
    Total Energy =                       -309.1686307463842240
  @DF-RHF Final Energy:  -309.16864445889718
    Total Energy =                       -309.1686444588971199
  Basis Set: CC-PVTZ
  Basis Set:
  @DF-RHF Final Energy:  -309.16866046064621
    Total Energy =                       -309.1686604606462652
  Basis Set: CC-PVTZ
  Basis Set:
  Basis Set: CC-PVTZ
  Basis Set:
  @DF-RHF Final Energy:  -309.16866995123604
    Total Energy =                       -309.1686699512355858
  Basis Set: CC-PVTZ
  Basis Set:
  Basis Set: CC-PVTZ
  Basis Set:
  @DF-RHF Final Energy:  -309.16867169624243
    Total Energy =                       -309.1686716962427681
  Basis Set: CC-PVTZ
  Basis Set:
  Charge       = 0
  Multiplicity = 1
  Basis Set: CC-PVTZ
  Basis Set:

    Orbital Energies (a.u.)
    -----------------------

    Doubly Occupied:

       1A    -20.536177     2A    -11.320086     3A    -11.228682
       4A    -11.227573     5A    -11.226802     6A    -11.218518
       7A    -11.210569     8A     -1.396953     9A     -1.086612
      10A     -1.028058    11A     -0.984049    12A     -0.890515
      13A     -0.811964    14A     -0.725383    15A     -0.660884
      16A     -0.640794    17A     -0.624826    18A     -0.618795
      19A     -0.576668    20A     -0.575235    21A     -0.565333
      22A     -0.537832    23A     -0.511468    24A     -0.494464
      25A     -0.484781    26A     -0.466329    27A     -0.464676
      28A     -0.399166

  @DF-RHF Final Energy:  -309.16867193232912

   => Energetics <=

    Nuclear Repulsion Energy =            309.5446782748726378
    One-Electron Energy =               -1032.4003137260519907
    Two-Electron Energy =                 413.6869635188506891
    DFT Exchange-Correlation Energy =       0.0000000000000000
    Empirical Dispersion Energy =           0.0000000000000000
    PCM Polarization Energy =               0.0000000000000000
    EFP Energy =                            0.0000000000000000
    Total Energy =                       -309.1686719323286070
    Molecular point group: c1
  Basis Set: CC-PVTZ
  Basis Set:

  -Total Gradient:
     Atom            X                  Y                   Z
    ------   -----------------  -----------------  -----------------
       1        0.000018401049     0.000029766743     0.000006198856
       2       -0.000139919406     0.002342336695    -0.000454576667
       3        0.000616399683    -0.002988051272     0.001054985322
       4       -0.000022171507    -0.000019836784     0.000054516781
       5       -0.002474381000    -0.000953808083    -0.002606912254
       6        0.000005144995     0.000000557799    -0.000003494495
       7        0.000002239953     0.000001229400    -0.000009082840
       8       -0.000001218371    -0.000012376449     0.000010357872
       9        0.001977992488     0.001585078157     0.001986946405
      10        0.000001589532     0.000001493264     0.000007629768
      11        0.000009494157     0.000008552648    -0.000007282085
      12       -0.000013899449    -0.000001728551    -0.000000708897
      13       -0.000005476904     0.000000880894    -0.000000191988
      14       -0.000007894377    -0.000000049631     0.000001148005
      15       -0.000002487652    -0.000001309495     0.000001636544
      16        0.000002116414     0.000001539680     0.000003865918
      17        0.000014834516    -0.000000305907    -0.000003838439
      18        0.000009158380    -0.000001257474    -0.000012966161
      19        0.000010077495     0.000007288363    -0.000028231640

  **** Optimization is complete! (in 11 steps) ****
    Final optimized geometry and variables:
    Molecular point group: c1

    Geometry (in Angstrom), charge = 0, multiplicity = 1:

    O           -1.587083925914    -1.147781415907     0.458832511632
    C           -1.173858106621    -0.074818404118     0.758208728243
    C            0.227751851892     0.100003790595     1.318124403858
    C           -2.027689347385     1.163068506051     0.623559551817
    C            1.374130021607    -0.028498009510     0.275967189586
    H            0.291505177544     1.065574295286     1.804706976723
    H            0.349744814590    -0.655418303866     2.082846605510
    C            0.985577805966     0.030650708083    -1.200369754260
    H            1.917415926693    -0.946370006047     0.466123934528
    H            2.084855091532     0.767237522822     0.473354619654
    C            2.203942233186    -0.048059179827    -2.114367694337
    H            0.306652220271    -0.779458743728    -1.434608051962
    H            0.450142460987     0.954246232512    -1.404845856778
    H            2.747881085734    -0.973603198337    -1.958939739960
    H            2.889360795937     0.772741980373    -1.930829385855
    H            1.911391601759    -0.008444261206    -3.156989668744
    H           -2.956501471935     0.921578057848     0.129977086130
    H           -1.500207974437     1.932383337465     0.071251106462
    H           -2.234190777090     1.563922158460     1.610904679514

  Mulliken Charges: (a.u.)
   Center  Symbol    Alpha    Beta     Spin     Total
       1     O     4.18271  4.18271  0.00000 -0.36542
       2     C     2.84856  2.84856  0.00000  0.30289
       3     C     3.10991  3.10991  0.00000 -0.21981
       4     C     3.15455  3.15455  0.00000 -0.30910
       5     C     3.08639  3.08639  0.00000 -0.17279
       6     H     0.44777  0.44777  0.00000  0.10446
       7     H     0.43752  0.43752  0.00000  0.12495
       8     C     3.09952  3.09952  0.00000 -0.19904
       9     H     0.44704  0.44704  0.00000  0.10593
      10     H     0.45089  0.45089  0.00000  0.09821
      11     C     3.15138  3.15138  0.00000 -0.30276
      12     H     0.43769  0.43769  0.00000  0.12462
      13     H     0.45427  0.45427  0.00000  0.09145
      14     H     0.45313  0.45313  0.00000  0.09374
      15     H     0.45627  0.45627  0.00000  0.08746
      16     H     0.44669  0.44669  0.00000  0.10662
      17     H     0.43675  0.43675  0.00000  0.12650
      18     H     0.45116  0.45116  0.00000  0.09767
      19     H     0.44779  0.44779  0.00000  0.10442

   Total alpha = 28.00000, Total beta = 28.00000, Total charge = -0.00000

*** Psi4 exiting successfully. Buy a developer a beer!
