                              Psi4 1.0.54 Driver

  ==> Input File <==

--------------------------------------------------------------------------
set {
	reference rhf
	basis cc-pvtz
}

set_num_threads( 4 )
memory 2 gb

molecule MOL {
0 1

H	 -1.835082	 1.385983	 0.000069
C	 -1.300516	 0.441153	 -0.000028
O	 -0.006604	 0.654344	 -0.000106
O	 -1.828920	 -0.612308	 0.000113
C	 0.852093	 -0.482521	 -0.000161
C	 0.412223	 -1.392551	 -1.122239
H	 0.783519	 -0.972027	 0.960900
H	 1.871839	 -0.149976	 -0.132434
H	 -0.611387	 -1.714433	 -0.978767
H	 1.047259	 -2.269947	 -1.149824
H	 0.482378	 -0.888240	 -2.077602

	symmetry c1
}
set optking {
	frozen_dihedral = ("
		7 5 3 2
	")
}

ee,wfn = optimize('scf', return_wfn=True)
oeprop( wfn, 'DIPOLE', 'QUADRUPOLE', 'MULLIKEN_CHARGES')
f=open( 'psi4out.xyz', 'w' )
f.write( "11  " )
f.write( str(ee) + "\n" )
f.write( MOL.save_string_xyz() )
f.close()
--------------------------------------------------------------------------

    Molecular point group: c1
  Charge       = 0
  Multiplicity = 1
  Basis Set: CC-PVTZ
  Basis Set:
  @DF-RHF Final Energy:  -266.91540441228125
    Total Energy =                       -266.9154044122813048
    Molecular point group: c1
  Basis Set: CC-PVTZ
  Basis Set:
  Basis Set: CC-PVTZ
  Basis Set:
  @DF-RHF Final Energy:  -266.92609506252967
    Total Energy =                       -266.9260950625294981
  Basis Set: CC-PVTZ
  Basis Set:
  Basis Set: CC-PVTZ
  Basis Set:
  @DF-RHF Final Energy:  -266.92718653851642
    Total Energy =                       -266.9271865385164233
  Basis Set: CC-PVTZ
  Basis Set:
  Basis Set: CC-PVTZ
  Basis Set:
  @DF-RHF Final Energy:  -266.88264898720081
    Total Energy =                       -266.8826489872008665
  Basis Set: CC-PVTZ
  Basis Set:
  @DF-RHF Final Energy:  -266.92392799627862
    Total Energy =                       -266.9239279962787350
  Basis Set: CC-PVTZ
  Basis Set:
  @DF-RHF Final Energy:  -266.92618918476802
    Total Energy =                       -266.9261891847678498
  Basis Set: CC-PVTZ
  Basis Set:
  Basis Set: CC-PVTZ
  Basis Set:
  @DF-RHF Final Energy:  -266.92782529931969
    Total Energy =                       -266.9278252993196929
  Basis Set: CC-PVTZ
  Basis Set:
  Basis Set: CC-PVTZ
  Basis Set:
  @DF-RHF Final Energy:  -266.92790762049555
    Total Energy =                       -266.9279076204954890
  Basis Set: CC-PVTZ
  Basis Set:
  Charge       = 0
  Multiplicity = 1
  Basis Set: CC-PVTZ
  Basis Set:

    Orbital Energies (a.u.)
    -----------------------

    Doubly Occupied:

       1A    -20.604501     2A    -20.544849     3A    -11.370536
       4A    -11.292463     5A    -11.219889     6A     -1.476925
       7A     -1.377248     8A     -1.049208     9A     -0.917012
      10A     -0.795894    11A     -0.739691    12A     -0.687478
      13A     -0.660986    14A     -0.625384    15A     -0.577927
      16A     -0.544648    17A     -0.533193    18A     -0.502863
      19A     -0.462391    20A     -0.452866

  @DF-RHF Final Energy:  -266.92790939926260

   => Energetics <=

    Nuclear Repulsion Energy =            183.0508431736134298
    One-Electron Energy =                -727.0855960873441290
    Two-Electron Energy =                 277.1068435144682098
    DFT Exchange-Correlation Energy =       0.0000000000000000
    Empirical Dispersion Energy =           0.0000000000000000
    PCM Polarization Energy =               0.0000000000000000
    EFP Energy =                            0.0000000000000000
    Total Energy =                       -266.9279093992624894
    Molecular point group: c1
  Basis Set: CC-PVTZ
  Basis Set:

  -Total Gradient:
     Atom            X                  Y                   Z
    ------   -----------------  -----------------  -----------------
       1       -0.000013521175     0.000012546952     0.000011993056
       2       -0.001315226285     0.000018503484    -0.004560593515
       3        0.003214542376     0.000376649115     0.006722096184
       4       -0.000012397153    -0.000017917166     0.000011285171
       5       -0.006964919099    -0.001641394047    -0.002453558987
       6        0.000021591174    -0.000001082390     0.000022512755
       7        0.005060808664     0.001301763229     0.000282412820
       8       -0.000012204533    -0.000024978737    -0.000011673038
       9        0.000032403077    -0.000019352397    -0.000022746602
      10       -0.000011757088    -0.000010676187    -0.000001288136
      11        0.000000680042     0.000005938146    -0.000000439707

  **** Optimization is complete! (in 9 steps) ****
    Final optimized geometry and variables:
    Molecular point group: c1

    Geometry (in Angstrom), charge = 0, multiplicity = 1:

    H           -0.642984288099     2.144161705996     0.312451884069
    C           -0.525460425020     1.067002164519     0.383948571902
    O            0.682311072849     0.727258247764     0.004807111321
    O           -1.372161480826     0.343329560787     0.769669397478
    C            1.048498772216    -0.648398040597    -0.104336660188
    C            0.187170246302    -1.463232120035    -1.047280834371
    H            1.105173071657    -1.072829308237     0.889008518338
    H            2.057979063645    -0.601299309377    -0.484787227713
    H           -0.809196171314    -1.613209518043    -0.665272170738
    H            0.655614085132    -2.430847759127    -1.187471366497
    H            0.125508773204    -0.978774651429    -2.014931507991

  Mulliken Charges: (a.u.)
   Center  Symbol    Alpha    Beta     Spin     Total
       1     H     0.44688  0.44688  0.00000  0.10624
       2     C     2.84083  2.84083  0.00000  0.31834
       3     O     4.14812  4.14812  0.00000 -0.29625
       4     O     4.19758  4.19758  0.00000 -0.39517
       5     C     2.97812  2.97812  0.00000  0.04375
       6     C     3.15375  3.15375  0.00000 -0.30751
       7     H     0.45271  0.45271  0.00000  0.09458
       8     H     0.44567  0.44567  0.00000  0.10867
       9     H     0.43443  0.43443  0.00000  0.13113
      10     H     0.44977  0.44977  0.00000  0.10046
      11     H     0.45213  0.45213  0.00000  0.09575

   Total alpha = 20.00000, Total beta = 20.00000, Total charge = -0.00000

*** Psi4 exiting successfully. Buy a developer a beer!
