  ==> Input File <==

--------------------------------------------------------------------------
set {
	reference rhf
	basis 6-31G*
}

set_num_threads( 4 )
memory 2 gb

molecule MOL {
0 1

H	 -1.099389	 -0.821131	 0.860622
N	 -0.626943	 -0.667432	 -0.000092
C	 -1.146847	 -1.304664	 -1.188516
C	 0.469286	 0.129090	 0.000148
H	 -1.145508	 -2.384373	 -1.082533
H	 -0.516038	 -1.033799	 -2.019442
H	 -2.160265	 -0.976420	 -1.394118
C	 1.788933	 -0.616240	 -0.000037
O	 0.411098	 1.327768	 -0.000049
H	 1.872803	 -1.245775	 -0.880381
H	 2.595421	 0.101576	 0.003713
H	 1.870096	 -1.252171	 0.875943

	symmetry c1
}
set optking {
	frozen_dihedral = ("
		3 2 4 9
	")
}

ee = optimize('scf')
oeprop('DIPOLE', 'QUADRUPOLE', 'MULLIKEN_CHARGES')
f=open( 'psi4out.xyz', 'w' )
f.write( "12  " )
f.write( str(ee) + "\n" )
f.write( MOL.save_string_xyz() )
f.close()
--------------------------------------------------------------------------

    Molecular point group: c1
  Charge       = 0
  Multiplicity = 1
  Basis Set: 6-31G*
  Basis Set:
  @DF-RHF Final Energy:  -246.96418117472723
    Total Energy =                       -246.9641811747271731
    Molecular point group: c1
  Basis Set: 6-31G*
  Basis Set:
  Basis Set: 6-31G*
  Basis Set:
  @DF-RHF Final Energy:  -246.96916773599082
    Total Energy =                       -246.9691677359906521
  Basis Set: 6-31G*
  Basis Set:
  Basis Set: 6-31G*
  Basis Set:
  @DF-RHF Final Energy:  -246.97398078811926
    Total Energy =                       -246.9739807881192633
  Basis Set: 6-31G*
  Basis Set:
  Basis Set: 6-31G*
  Basis Set:
  @DF-RHF Final Energy:  -246.94557435051064
    Total Energy =                       -246.9455743505106398
  Basis Set: 6-31G*
  Basis Set:
  @DF-RHF Final Energy:  -246.97855840054078
    Total Energy =                       -246.9785584005408623
  @DF-RHF Final Energy:  -246.98600445940991
    Total Energy =                       -246.9860044594098554
  @DF-RHF Final Energy:  -246.98437970116527
    Total Energy =                       -246.9843797011651532
  @DF-RHF Final Energy:  -246.98666070393026
    Total Energy =                       -246.9866607039301698
  @DF-RHF Final Energy:  -246.98792494354342
    Total Energy =                       -246.9879249435435895
  Basis Set: 6-31G*
  Basis Set:
  @DF-RHF Final Energy:  -246.98828264579856
    Total Energy =                       -246.9882826457986766
  Basis Set: 6-31G*
  Basis Set:
  Basis Set: 6-31G*
  Basis Set:
  @DF-RHF Final Energy:  -246.98835512501762
    Total Energy =                       -246.9883551250177902
  Basis Set: 6-31G*
  Basis Set:
  Basis Set: 6-31G*
  Basis Set:
  @DF-RHF Final Energy:  -246.98836078134312
    Total Energy =                       -246.9883607813431468
  Basis Set: 6-31G*
  Basis Set:
  Charge       = 0
  Multiplicity = 1
  Basis Set: 6-31G*
  Basis Set:

    Orbital Energies (a.u.)
    -----------------------

    Doubly Occupied:

       1A    -20.547624     2A    -15.567368     3A    -11.351028
       4A    -11.264907     5A    -11.230042     6A     -1.407669
       7A     -1.220502     8A     -1.009553     9A     -0.938287
      10A     -0.768046    11A     -0.679260    12A     -0.660282
      13A     -0.631713    14A     -0.601003    15A     -0.576696
      16A     -0.566060    17A     -0.547577    18A     -0.498687
      19A     -0.436254    20A     -0.397622

  @DF-RHF Final Energy:  -246.98836168350292

   => Energetics <=

    Nuclear Repulsion Energy =            180.9628804014585910
    One-Electron Energy =                -694.1021278933845906
    Two-Electron Energy =                 266.1508858084230837
    DFT Exchange-Correlation Energy =       0.0000000000000000
    Empirical Dispersion Energy =           0.0000000000000000
    PCM Polarization Energy =               0.0000000000000000
    EFP Energy =                            0.0000000000000000
    Total Energy =                       -246.9883616835028874
    Molecular point group: c1
  Basis Set: 6-31G*
  Basis Set:

  -Total Gradient:
     Atom            X                  Y                   Z
    ------   -----------------  -----------------  -----------------
       1        0.000028722093    -0.000005618255    -0.000010376174
       2        0.005762641538    -0.005711976643    -0.004365141518
       3       -0.004394468559     0.004458527026     0.000579413363
       4        0.000047700130    -0.000224995726     0.011795154621
       5       -0.000019369891    -0.000002689815    -0.000006018433
       6        0.000011792787    -0.000009140274     0.000010780281
       7       -0.000010808603    -0.000001664846    -0.000014012804
       8        0.000003321822     0.000018812831     0.000101737323
       9       -0.001373534929     0.001495129278    -0.008011546832
      10       -0.000031035202     0.000004990789    -0.000042269701
      11       -0.000021356330     0.000001895672    -0.000016990112
      12       -0.000003604857    -0.000023270041    -0.000020730012

  **** Optimization is complete! (in 13 steps) ****
    Final optimized geometry and variables:
    Molecular point group: c1

    Geometry (in Angstrom), charge = 0, multiplicity = 1:

    H           -1.481212907312    -0.294980899108     0.807890875059
    N           -0.712542238036    -0.660902458460     0.277469156455
    C           -1.216741152646    -1.010460728501    -1.051696486983
    C            0.282208948934     0.335433845024     0.301203695002
    H           -2.009004699151    -1.737730724947    -0.935763838982
    H           -0.435397554400    -1.468459573346    -1.644556522856
    H           -1.605163007731    -0.150940961713    -1.592547909374
    C            1.675976005683    -0.139475902946    -0.026426874801
    O            0.034405578861     1.470039493599     0.569241790285
    H            1.683984152451    -0.800031281664    -0.885109591894
    H            2.319603615132     0.709280603848    -0.207254019351
    H            2.053216004587    -0.706775316482     0.818456431897

  Mulliken Charges: (a.u.)
   Center  Symbol    Alpha    Beta     Spin     Total
       1     H     0.31911  0.31911  0.00000  0.36179
       2     N     3.86384  3.86384  0.00000 -0.72768
       3     C     3.15991  3.15991  0.00000 -0.31982
       4     C     2.67224  2.67224  0.00000  0.65553
       5     H     0.40596  0.40596  0.00000  0.18807
       6     H     0.41180  0.41180  0.00000  0.17640
       7     H     0.41471  0.41471  0.00000  0.17058
       8     C     3.28087  3.28087  0.00000 -0.56175
       9     O     4.26493  4.26493  0.00000 -0.52986
      10     H     0.40973  0.40973  0.00000  0.18054
      11     H     0.39823  0.39823  0.00000  0.20354
      12     H     0.39867  0.39867  0.00000  0.20266

   Total alpha = 20.00000, Total beta = 20.00000, Total charge =  0.00000
