  ==> Input File <==

--------------------------------------------------------------------------
set {
	reference rhf
	basis 6-31G*
}

set_num_threads( 4 )
memory 2 gb

molecule MOL {
0 1

H	 -2.499100	 -0.730091	 -0.745082
O	 -2.347518	 -0.290803	 0.079804
C	 -1.184022	 0.487508	 -0.006784
C	 0.062599	 -0.378592	 0.031606
H	 -1.176523	 1.099369	 -0.904519
H	 -1.187323	 1.153111	 0.844927
O	 1.171513	 0.459272	 -0.058250
H	 0.050699	 -1.089204	 -0.797170
H	 0.078739	 -0.954914	 0.954740
C	 2.343677	 -0.175589	 -0.460897
H	 2.238071	 -0.615429	 -1.450856
H	 3.125646	 0.570428	 -0.490628
H	 2.630221	 -0.959989	 0.236527

	symmetry c1
}
set optking {
	frozen_dihedral = ("
		10 7 4 8
	")
}

ee = optimize('scf')
oeprop('DIPOLE', 'QUADRUPOLE', 'MULLIKEN_CHARGES')
f=open( 'psi4out.xyz', 'w' )
f.write( "13  " )
f.write( str(ee) + "\n" )
f.write( MOL.save_string_xyz() )
f.close()
--------------------------------------------------------------------------

    Molecular point group: c1
  Charge       = 0
  Multiplicity = 1
  Basis Set: 6-31G*
  Basis Set:
  @DF-RHF Final Energy:  -267.94961793897380
    Total Energy =                       -267.9496179389738586
    Molecular point group: c1
  Basis Set: 6-31G*
  Basis Set:
  Basis Set: 6-31G*
  Basis Set:
  @DF-RHF Final Energy:  -267.94966708359959
    Total Energy =                       -267.9496670835992518
  Basis Set: 6-31G*
  Basis Set:
  Basis Set: 6-31G*
  Basis Set:
  @DF-RHF Final Energy:  -267.94968727581579
    Total Energy =                       -267.9496872758158474
  Basis Set: 6-31G*
  Basis Set:
  Charge       = 0
  Multiplicity = 1
  Basis Set: 6-31G*
  Basis Set:

    Orbital Energies (a.u.)
    -----------------------

    Doubly Occupied:

       1A    -20.561775     2A    -20.560364     3A    -11.270829
       4A    -11.270801     5A    -11.269122     6A     -1.387865
       7A     -1.365293     8A     -1.018528     9A     -0.914064
      10A     -0.842198    11A     -0.709749    12A     -0.671575
      13A     -0.661294    14A     -0.639886    15A     -0.592226
      16A     -0.568011    17A     -0.550992    18A     -0.489443
      19A     -0.478734    20A     -0.444016    21A     -0.417808

  @DF-RHF Final Energy:  -267.94968747265904

   => Energetics <=

    Nuclear Repulsion Energy =            190.2109623358625754
    One-Electron Energy =                -742.9521600524791438
    Two-Electron Energy =                 284.7915102439574184
    DFT Exchange-Correlation Energy =       0.0000000000000000
    Empirical Dispersion Energy =           0.0000000000000000
    PCM Polarization Energy =               0.0000000000000000
    EFP Energy =                            0.0000000000000000
    Total Energy =                       -267.9496874726592068
    Molecular point group: c1
  Basis Set: 6-31G*
  Basis Set:

  -Total Gradient:
     Atom            X                  Y                   Z
    ------   -----------------  -----------------  -----------------
       1        0.000020311266     0.000017577611     0.000000689311
       2       -0.000003409307     0.000005927577     0.000048390948
       3        0.000007098476    -0.000027704354    -0.000057042786
       4       -0.001790422711     0.002233313260    -0.002529427567
       5        0.000012434839     0.000010982413     0.000004811176
       6       -0.000029150746    -0.000020935644    -0.000001261279
       7        0.000921062607    -0.001020552829     0.003079844083
       8        0.001259778877    -0.001607146091     0.001337553698
       9        0.000002624849     0.000004406583     0.000007383553
      10       -0.000384556904     0.000401158444    -0.001896705386
      11       -0.000014637514     0.000001811341     0.000009007041
      12        0.000008606903    -0.000003520400    -0.000000824408
      13       -0.000009740637     0.000004682089    -0.000002418383

  **** Optimization is complete! (in 4 steps) ****
    Final optimized geometry and variables:
    Molecular point group: c1

    Geometry (in Angstrom), charge = 0, multiplicity = 1:

    H           -2.510235522511    -0.739875050052    -0.613594154135
    O           -2.340032427439    -0.288637926142     0.201120090060
    C           -1.175549591650     0.483510560469     0.079208029967
    C            0.069295705017    -0.385094750605     0.103501536531
    H           -1.185424758430     1.084093126338    -0.826150685971
    H           -1.157754234086     1.160094893126     0.922052926572
    O            1.184797344916     0.448939363843     0.032405654204
    H            0.061604707772    -1.091714068254    -0.727757307967
    H            0.085098660101    -0.974233827548     1.018389302564
    C            2.364244567710    -0.179963375677    -0.358310312658
    H            2.272034497960    -0.611129643824    -1.353097298837
    H            3.144093387546     0.568835987001    -0.370990216658
    H            2.646322829478    -0.969198665299     0.335772408770

  Mulliken Charges: (a.u.)
   Center  Symbol    Alpha    Beta     Spin     Total
       1     H     0.28143  0.28143  0.00000  0.43713
       2     O     4.37063  4.37063  0.00000 -0.74125
       3     C     3.00437  3.00437  0.00000 -0.00874
       4     C     2.99691  2.99691  0.00000  0.00617
       5     H     0.42375  0.42375  0.00000  0.15249
       6     H     0.40748  0.40748  0.00000  0.18504
       7     O     4.30794  4.30794  0.00000 -0.61589
       8     H     0.43810  0.43810  0.00000  0.12379
       9     H     0.42131  0.42131  0.00000  0.15738
      10     C     3.07998  3.07998  0.00000 -0.15996
      11     H     0.42923  0.42923  0.00000  0.14153
      12     H     0.41084  0.41084  0.00000  0.17832
      13     H     0.42801  0.42801  0.00000  0.14398

   Total alpha = 21.00000, Total beta = 21.00000, Total charge =  0.00000
