  ==> Input File <==

--------------------------------------------------------------------------
set {
	reference rhf
	basis cc-pvtz
}

set_num_threads( 4 )
memory 2 gb

molecule MOL {
0 1

H	 0.842000	 1.782000	 0.121000
O	 0.050000	 1.352000	 -0.170000
C	 -0.001000	 0.048000	 0.361000
C	 1.195000	 -0.776000	 -0.101000
C	 -1.324000	 -0.550000	 -0.087000
H	 0.007000	 0.100000	 1.450000
H	 1.210000	 -0.844000	 -1.184000
H	 2.129000	 -0.320000	 0.221000
H	 1.161000	 -1.781000	 0.309000
H	 -1.362000	 -0.606000	 -1.170000
H	 -2.148000	 0.069000	 0.250000
H	 -1.454000	 -1.549000	 0.317000

	symmetry c1
}
ee = optimize('scf')
oeprop('DIPOLE', 'QUADRUPOLE', 'MULLIKEN_CHARGES')
f=open( 'psi4out.xyz', 'w' )
f.write( "12  " )
f.write( str(ee) + "\n" )
f.write( MOL.save_string_xyz() )
f.close()
--------------------------------------------------------------------------

    Molecular point group: c1
  Charge       = 0
  Multiplicity = 1
  Basis Set: CC-PVTZ
  Basis Set:
  @DF-RHF Final Energy:  -193.19596456926067
    Total Energy =                       -193.1959645692606387
    Molecular point group: c1
  Basis Set: CC-PVTZ
  Basis Set:
  Basis Set: CC-PVTZ
  Basis Set:
  @DF-RHF Final Energy:  -193.19606261302366
    Total Energy =                       -193.1960626130236562
  Basis Set: CC-PVTZ
  Basis Set:
  Basis Set: CC-PVTZ
  Basis Set:
  @DF-RHF Final Energy:  -193.19606414186407
    Total Energy =                       -193.1960641418639852
  Basis Set: CC-PVTZ
  Basis Set:
  Charge       = 0
  Multiplicity = 1
  Basis Set: CC-PVTZ
  Basis Set:

    Orbital Energies (a.u.)
    -----------------------

    Doubly Occupied:

       1A    -20.544282     2A    -11.274067     3A    -11.211150
       4A    -11.205126     5A     -1.364760     6A     -1.043284
       7A     -0.940471     8A     -0.803659     9A     -0.702224
      10A     -0.627876    11A     -0.605903    12A     -0.546945
      13A     -0.535465    14A     -0.530280    15A     -0.511594
      16A     -0.468943    17A     -0.433137

  @DF-RHF Final Energy:  -193.19606454914177

   => Energetics <=

    Nuclear Repulsion Energy =            135.7427960363910131
    One-Electron Energy =                -531.1793929720470260
    Two-Electron Energy =                 202.2405323865141327
    DFT Exchange-Correlation Energy =       0.0000000000000000
    Empirical Dispersion Energy =           0.0000000000000000
    PCM Polarization Energy =               0.0000000000000000
    EFP Energy =                            0.0000000000000000
    Total Energy =                       -193.1960645491418518
    Molecular point group: c1
  Basis Set: CC-PVTZ
  Basis Set:

  -Total Gradient:
     Atom            X                  Y                   Z
    ------   -----------------  -----------------  -----------------
       1       -0.000014804684    -0.000002951260    -0.000003383414
       2        0.000016230589     0.000047836226    -0.000016446424
       3        0.000004076284    -0.000048541976     0.000021580012
       4        0.000012529466    -0.000000060380     0.000004932340
       5       -0.000017274520     0.000008995696     0.000004926576
       6       -0.000001827793     0.000000561720    -0.000000822755
       7       -0.000001483353     0.000001404773     0.000002687262
       8       -0.000002564441    -0.000003836664    -0.000005715970
       9        0.000004189073    -0.000001358280    -0.000001783957
      10        0.000000250683     0.000000862580     0.000000709554
      11       -0.000001235432    -0.000005333085    -0.000005510075
      12        0.000001914129     0.000002420651    -0.000001173150

  **** Optimization is complete! (in 4 steps) ****
    Final optimized geometry and variables:
    Molecular point group: c1

    Geometry (in Angstrom), charge = 0, multiplicity = 1:

    H            0.850461543763     1.725900287654     0.114365278870
    O            0.057669125291     1.301365222035    -0.158528117600
    C            0.004145809075    -0.005141373326     0.363049465317
    C            1.199168146924    -0.827144584545    -0.096689750079
    C           -1.316386084063    -0.602081020675    -0.083515356342
    H            0.012026591032     0.043362600480     1.450618669483
    H            1.216685131026    -0.896775636491    -1.178166583011
    H            2.129939960663    -0.372354144421     0.228034502356
    H            1.160783432292    -1.829621992013     0.314293799195
    H           -1.357881360683    -0.655919952905    -1.165207478787
    H           -2.140146290484     0.011735236782     0.257252929477
    H           -1.440789417669    -1.601174967155     0.317668692581

  Mulliken Charges: (a.u.)
   Center  Symbol    Alpha    Beta     Spin     Total
       1     H     0.39606  0.39606  0.00000  0.20788
       2     O     4.20435  4.20435  0.00000 -0.40871
       3     C     2.92183  2.92183  0.00000  0.15634
       4     C     3.14551  3.14551  0.00000 -0.29103
       5     C     3.14229  3.14229  0.00000 -0.28457
       6     H     0.46660  0.46660  0.00000  0.06679
       7     H     0.45090  0.45090  0.00000  0.09821
       8     H     0.45809  0.45809  0.00000  0.08381
       9     H     0.45621  0.45621  0.00000  0.08758
      10     H     0.45280  0.45280  0.00000  0.09440
      11     H     0.44646  0.44646  0.00000  0.10707
      12     H     0.45889  0.45889  0.00000  0.08222

   Total alpha = 17.00000, Total beta = 17.00000, Total charge = -0.00000
