  ==> Input File <==

--------------------------------------------------------------------------
set {
	reference rhf
	basis cc-pvtz
}

set_num_threads( 4 )
memory 2 gb

molecule MOL {
0 1

H	 1.648821	 0.928448	 1.181636
O	 0.858973	 0.412017	 1.235542
C	 0.489979	 0.078084	 0.002623
C	 -0.763662	 -0.754014	 0.000816
O	 1.105076	 0.408686	 -0.951457
C	 -2.038001	 0.074705	 -0.000833
H	 -0.712945	 -1.405886	 -0.864342
H	 -0.715137	 -1.405770	 0.866182
H	 -2.087267	 0.710831	 -0.874232
H	 -2.903419	 -0.576199	 -0.001922
H	 -2.089467	 0.710909	 0.872389

	symmetry c1
}
set optking {
	frozen_dihedral = ("
		2 3 4 7
	")
}

ee = optimize('scf')
oeprop('DIPOLE', 'QUADRUPOLE', 'MULLIKEN_CHARGES')
f=open( 'psi4out.xyz', 'w' )
f.write( "11  " )
f.write( str(ee) + "\n" )
f.write( MOL.save_string_xyz() )
f.close()
--------------------------------------------------------------------------

    Molecular point group: c1
  Charge       = 0
  Multiplicity = 1
  Basis Set: CC-PVTZ
  Basis Set:
  @DF-RHF Final Energy:  -266.95087453283526
    Total Energy =                       -266.9508745328352575
    Molecular point group: c1
  Basis Set: CC-PVTZ
  Basis Set:
  Basis Set: CC-PVTZ
  Basis Set:
  @DF-RHF Final Energy:  -266.95128694516023
    Total Energy =                       -266.9512869451602342
  Basis Set: CC-PVTZ
  Basis Set:
  Basis Set: CC-PVTZ
  Basis Set:
  @DF-RHF Final Energy:  -266.95033100784349
    Total Energy =                       -266.9503310078434879
  Basis Set: CC-PVTZ
  Basis Set:
  Basis Set: CC-PVTZ
  Basis Set:
  @DF-RHF Final Energy:  -266.95151894940363
    Total Energy =                       -266.9515189494034644
  Basis Set: CC-PVTZ
  Basis Set:
  Basis Set: CC-PVTZ
  Basis Set:
  @DF-RHF Final Energy:  -266.95152251800300
    Total Energy =                       -266.9515225180030029
  Basis Set: CC-PVTZ
  Basis Set:
  Charge       = 0
  Multiplicity = 1
  Basis Set: CC-PVTZ
  Basis Set:

    Orbital Energies (a.u.)
    -----------------------

    Doubly Occupied:

       1A    -20.606314     2A    -20.539459     3A    -11.373513
       4A    -11.241352     5A    -11.229389     6A     -1.478384
       7A     -1.369076     8A     -1.068840     9A     -0.914691
      10A     -0.817369    11A     -0.706721    12A     -0.689101
      13A     -0.644434    14A     -0.618997    15A     -0.595352
      16A     -0.544466    17A     -0.528145    18A     -0.513769
      19A     -0.480311    20A     -0.444225

  @DF-RHF Final Energy:  -266.95152273163865

   => Energetics <=

    Nuclear Repulsion Energy =            180.3346505061293499
    One-Electron Energy =                -721.7645263847641672
    Two-Electron Energy =                 274.4783531469962554
    DFT Exchange-Correlation Energy =       0.0000000000000000
    Empirical Dispersion Energy =           0.0000000000000000
    PCM Polarization Energy =               0.0000000000000000
    EFP Energy =                            0.0000000000000000
    Total Energy =                       -266.9515227316385335
    Molecular point group: c1
  Basis Set: CC-PVTZ
  Basis Set:

  -Total Gradient:
     Atom            X                  Y                   Z
    ------   -----------------  -----------------  -----------------
       1       -0.000015684161     0.000000856407    -0.000015787872
       2        0.000218539546    -0.000346216663     0.000061959349
       3       -0.000223944371     0.000386851756    -0.000026318329
       4       -0.000212467573     0.000305890364    -0.000277362346
       5       -0.000021804404    -0.000019868157     0.000009653073
       6        0.000014760359    -0.000003455958     0.000001637603
       7        0.000242263136    -0.000326354643     0.000249863006
       8       -0.000000844749     0.000001002281    -0.000006086856
       9        0.000000105819     0.000000225714     0.000003033726
      10        0.000001082925    -0.000004870056    -0.000001255335
      11       -0.000002006528     0.000005938955     0.000000663982

  **** Optimization is complete! (in 6 steps) ****
    Final optimized geometry and variables:
    Molecular point group: c1

    Geometry (in Angstrom), charge = 0, multiplicity = 1:

    H            1.689334662210     0.888171221745     1.086465851089
    O            0.934881182970     0.322584171104     1.158013084953
    C            0.529697668169     0.005384924563    -0.067708698605
    C           -0.705815908011    -0.853451659868    -0.066297554582
    O            1.086765984954     0.393832097205    -1.036153051548
    C           -1.969608444332     0.011384480642    -0.085462481739
    H           -0.664439300743    -1.478393619956    -0.946611494046
    H           -0.698877610963    -1.484732014983     0.811673441794
    H           -1.989825538959     0.642656860351    -0.964521319202
    H           -2.849287375985    -0.618817237425    -0.100188713117
    H           -2.023112433213     0.643300990684     0.792351699886

  Mulliken Charges: (a.u.)
   Center  Symbol    Alpha    Beta     Spin     Total
       1     H     0.37995  0.37995  0.00000  0.24010
       2     O     4.16381  4.16381  0.00000 -0.32762
       3     C     2.79756  2.79756  0.00000  0.40488
       4     C     3.08939  3.08939  0.00000 -0.17877
       5     O     4.19772  4.19772  0.00000 -0.39545
       6     C     3.14984  3.14984  0.00000 -0.29967
       7     H     0.43841  0.43841  0.00000  0.12319
       8     H     0.44283  0.44283  0.00000  0.11434
       9     H     0.44505  0.44505  0.00000  0.10990
      10     H     0.44688  0.44688  0.00000  0.10624
      11     H     0.44857  0.44857  0.00000  0.10287

   Total alpha = 20.00000, Total beta = 20.00000, Total charge = -0.00000
