  ==> Input File <==

--------------------------------------------------------------------------
set {
	reference rhf
	basis 6-31G*
}

set_num_threads( 4 )
memory 2 gb

molecule MOL {
0 1

O	 -2.042549	 -1.228399	 -0.269030
C	 -1.653912	 -0.146171	 0.050137
C	 -0.332303	 0.024011	 0.778412
C	 -2.438579	 1.106236	 -0.272369
C	 0.830382	 -0.537217	 -0.055290
H	 -0.153631	 1.071657	 1.004016
H	 -0.401028	 -0.517264	 1.715546
C	 2.178590	 -0.413405	 0.656072
H	 0.880892	 -0.019599	 -1.011639
H	 0.625684	 -1.580421	 -0.276571
C	 3.335361	 -0.978864	 -0.166939
H	 2.373047	 0.632607	 0.882940
H	 2.127650	 -0.930121	 1.611571
H	 3.433509	 -0.458820	 -1.115608
H	 3.184600	 -2.032689	 -0.381803
H	 4.277447	 -0.880402	 0.362972
H	 -3.277823	 0.863061	 -0.908988
H	 -1.806773	 1.843019	 -0.759671
H	 -2.802853	 1.554979	 0.648059

	symmetry c1
}
set optking {
	frozen_dihedral = ("
		5 3 2 4
	")
}

ee = optimize('scf')
oeprop('DIPOLE', 'QUADRUPOLE', 'MULLIKEN_CHARGES')
f=open( 'psi4out.xyz', 'w' )
f.write( "19  " )
f.write( str(ee) + "\n" )
f.write( MOL.save_string_xyz() )
f.close()
--------------------------------------------------------------------------

    Molecular point group: c1
  Charge       = 0
  Multiplicity = 1
  Basis Set: 6-31G*
  Basis Set:
  @DF-RHF Final Energy:  -309.06501414445097
    Total Energy =                       -309.0650141444509700
    Molecular point group: c1
  Basis Set: 6-31G*
  Basis Set:
  Basis Set: 6-31G*
  Basis Set:
  @DF-RHF Final Energy:  -309.06401007464893
    Total Energy =                       -309.0640100746488770
  Basis Set: 6-31G*
  Basis Set:
  Basis Set: 6-31G*
  Basis Set:
  @DF-RHF Final Energy:  -309.06513244585398
    Total Energy =                       -309.0651324458538056
  Basis Set: 6-31G*
  Basis Set:
  Basis Set: 6-31G*
  Basis Set:
  @DF-RHF Final Energy:  -309.06495315728404
    Total Energy =                       -309.0649531572840942
  Basis Set: 6-31G*
  Basis Set:
  Basis Set: 6-31G*
  Basis Set:
  @DF-RHF Final Energy:  -309.06503931112974
    Total Energy =                       -309.0650393111297376
  Basis Set: 6-31G*
  Basis Set:
  Basis Set: 6-31G*
  Basis Set:
  @DF-RHF Final Energy:  -309.06520211894895
    Total Energy =                       -309.0652021189487755
  Basis Set: 6-31G*
  Basis Set:
  Basis Set: 6-31G*
  Basis Set:
  @DF-RHF Final Energy:  -309.06520344875315
    Total Energy =                       -309.0652034487529818
  Basis Set: 6-31G*
  Basis Set:
  Charge       = 0
  Multiplicity = 1
  Basis Set: 6-31G*
  Basis Set:

    Orbital Energies (a.u.)
    -----------------------

    Doubly Occupied:

       1A    -20.547945     2A    -11.325555     3A    -11.230061
       4A    -11.228777     5A    -11.225583     6A    -11.222426
       7A    -11.212846     8A     -1.394006     9A     -1.088404
      10A     -1.028838    11A     -0.984422    12A     -0.887884
      13A     -0.804211    14A     -0.732534    15A     -0.661714
      16A     -0.646015    17A     -0.622325    18A     -0.612043
      19A     -0.582303    20A     -0.572731    21A     -0.552865
      22A     -0.535283    23A     -0.514856    24A     -0.493608
      25A     -0.478991    26A     -0.473782    27A     -0.466525
      28A     -0.397532

  @DF-RHF Final Energy:  -309.06520395536421

   => Energetics <=

    Nuclear Repulsion Energy =            300.9801598893860159
    One-Electron Energy =               -1015.0425962813546903
    Two-Electron Energy =                 404.9972324366045768
    DFT Exchange-Correlation Energy =       0.0000000000000000
    Empirical Dispersion Energy =           0.0000000000000000
    PCM Polarization Energy =               0.0000000000000000
    EFP Energy =                            0.0000000000000000
    Total Energy =                       -309.0652039553641544
    Molecular point group: c1
  Basis Set: 6-31G*
  Basis Set:

  -Total Gradient:
     Atom            X                  Y                   Z
    ------   -----------------  -----------------  -----------------
       1        0.000016659225    -0.000012530235    -0.000010565767
       2       -0.000184226305     0.000033692064     0.000369913020
       3        0.000007230306    -0.000369348294     0.000077418993
       4        0.000150342390     0.000028936451    -0.000271368271
       5       -0.000005900911     0.000277507825    -0.000097388644
       6        0.000006172960     0.000003107059    -0.000029725926
       7        0.000023744130     0.000004720946    -0.000011320854
       8        0.000006950176     0.000027795203     0.000003998742
       9        0.000000507666     0.000015863551     0.000001759565
      10       -0.000016507805    -0.000003759570    -0.000026604767
      11       -0.000008390898    -0.000027705794     0.000006294575
      12        0.000001284300     0.000005839163    -0.000007907194
      13       -0.000006545627     0.000010094097     0.000002097870
      14        0.000000486532     0.000004791244     0.000006515168
      15        0.000004032112    -0.000003494236    -0.000011035045
      16       -0.000005308577    -0.000007294118     0.000005147479
      17        0.000001076973     0.000002366216     0.000002902922
      18        0.000002037148     0.000014215809    -0.000006058794
      19        0.000006356209    -0.000004797380    -0.000004073072

  **** Optimization is complete! (in 8 steps) ****
    Final optimized geometry and variables:
    Molecular point group: c1

    Geometry (in Angstrom), charge = 0, multiplicity = 1:

    O           -2.036195658180    -0.917387747728    -0.357204580081
    C           -1.646752981368     0.167940793061    -0.049684809559
    C           -0.317607498118     0.341026029889     0.669583804723
    C           -2.440033608508     1.415300246828    -0.365290499924
    C            0.850938280381    -0.208940561633    -0.158073714045
    H           -0.148419832951     1.385631008252     0.913424704916
    H           -0.386393580481    -0.204108704089     1.607166463504
    C            2.190195451752    -0.110457555629     0.573315771065
    H            0.914391849978     0.333202790760    -1.099983961607
    H            0.639767241436    -1.242833348352    -0.408908262301
    C            3.354160396715    -0.661654590976    -0.249318380869
    H            2.389035296413     0.927948776114     0.830136010799
    H            2.125059543156    -0.651456259567     1.514752540166
    H            3.468005320467    -0.116862706878    -1.182202980058
    H            3.198753915723    -1.708057093156    -0.494907679851
    H            4.290028940062    -0.584371721390     0.295071610484
    H           -3.349720376035     1.154397062008    -0.887823224602
    H           -1.846386165165     2.090047049124    -0.976298461620
    H           -2.683525139324     1.945380620656     0.551464622295

  Mulliken Charges: (a.u.)
   Center  Symbol    Alpha    Beta     Spin     Total
       1     O     4.26330  4.26330  0.00000 -0.52659
       2     C     2.73564  2.73564  0.00000  0.52872
       3     C     3.20314  3.20314  0.00000 -0.40628
       4     C     3.28924  3.28924  0.00000 -0.57849
       5     C     3.15705  3.15705  0.00000 -0.31410
       6     H     0.41643  0.41643  0.00000  0.16714
       7     H     0.40227  0.40227  0.00000  0.19546
       8     C     3.15248  3.15248  0.00000 -0.30495
       9     H     0.42130  0.42130  0.00000  0.15739
      10     H     0.40338  0.40338  0.00000  0.19323
      11     C     3.24003  3.24003  0.00000 -0.48006
      12     H     0.42326  0.42326  0.00000  0.15348
      13     H     0.42062  0.42062  0.00000  0.15876
      14     H     0.42114  0.42114  0.00000  0.15772
      15     H     0.41881  0.41881  0.00000  0.16238
      16     H     0.41815  0.41815  0.00000  0.16370
      17     H     0.39719  0.39719  0.00000  0.20561
      18     H     0.40862  0.40862  0.00000  0.18275
      19     H     0.40794  0.40794  0.00000  0.18412

   Total alpha = 28.00000, Total beta = 28.00000, Total charge =  0.00000
