  ==> Input File <==

--------------------------------------------------------------------------
set {
	reference rhf
	basis cc-pvtz
}

set_num_threads( 4 )
memory 2 gb

molecule MOL {
0 1

H	 -2.277898	 0.213864	 0.661366
C	 -1.977477	 -0.409851	 -0.174319
O	 -0.775228	 0.000056	 -0.739966
H	 -2.729859	 -0.323838	 -0.945470
H	 -1.950236	 -1.442892	 0.156916
C	 0.406133	 -0.000384	 0.036994
C	 1.526415	 -0.003194	 -0.997339
C	 0.498772	 1.259027	 0.900673
C	 0.495883	 -1.257378	 0.904465
H	 1.452279	 0.872071	 -1.630204
H	 1.451276	 -0.881020	 -1.626529
H	 2.497919	 -0.002741	 -0.517601
H	 0.368981	 2.144239	 0.289753
H	 1.470064	 1.313479	 1.377660
H	 -0.248448	 1.271586	 1.684297
H	 0.363971	 -2.144195	 0.296316
H	 1.467114	 -1.312636	 1.381470
H	 -0.251246	 -1.265768	 1.688235

	symmetry c1
}
set optking {
	frozen_dihedral = ("
		2 3 6 7
	")
}

ee = optimize('scf')
oeprop('DIPOLE', 'QUADRUPOLE', 'MULLIKEN_CHARGES')
f=open( 'psi4out.xyz', 'w' )
f.write( "18  " )
f.write( str(ee) + "\n" )
f.write( MOL.save_string_xyz() )
f.close()
--------------------------------------------------------------------------

    Molecular point group: c1
  Charge       = 0
  Multiplicity = 1
  Basis Set: CC-PVTZ
  Basis Set:
  @DF-RHF Final Energy:  -271.27552404923432
    Total Energy =                       -271.2755240492341500
    Molecular point group: c1
  Basis Set: CC-PVTZ
  Basis Set:
  Basis Set: CC-PVTZ
  Basis Set:
  @DF-RHF Final Energy:  -271.27597208589054
    Total Energy =                       -271.2759720858907144
  Basis Set: CC-PVTZ
  Basis Set:
  Basis Set: CC-PVTZ
  Basis Set:
  @DF-RHF Final Energy:  -271.27606984415178
    Total Energy =                       -271.2760698441514933
  Basis Set: CC-PVTZ
  Basis Set:
  Basis Set: CC-PVTZ
  Basis Set:
  @DF-RHF Final Energy:  -271.27608701874829
    Total Energy =                       -271.2760870187481146
  Basis Set: CC-PVTZ
  Basis Set:
  Basis Set: CC-PVTZ
  Basis Set:
  @DF-RHF Final Energy:  -271.27611627500073
    Total Energy =                       -271.2761162750006747
  Basis Set: CC-PVTZ
  Basis Set:
  Basis Set: CC-PVTZ
  Basis Set:
  @DF-RHF Final Energy:  -271.27611745872503
    Total Energy =                       -271.2761174587251389
  Basis Set: CC-PVTZ
  Basis Set:
  Charge       = 0
  Multiplicity = 1
  Basis Set: CC-PVTZ
  Basis Set:

    Orbital Energies (a.u.)
    -----------------------

    Doubly Occupied:

       1A    -20.539948     2A    -11.280200     3A    -11.258704
       4A    -11.209361     5A    -11.205039     6A    -11.201943
       7A     -1.372986     8A     -1.074739     9A     -0.948615
      10A     -0.939304    11A     -0.912845    12A     -0.753247
      13A     -0.657123    14A     -0.647509    15A     -0.639608
      16A     -0.590875    17A     -0.575031    18A     -0.552806
      19A     -0.535688    20A     -0.525769    21A     -0.515348
      22A     -0.491433    23A     -0.486595    24A     -0.441572
      25A     -0.405278

  @DF-RHF Final Energy:  -271.27611765571214

   => Energetics <=

    Nuclear Repulsion Energy =            272.6748874554090207
    One-Electron Energy =                -908.3788795843621529
    Two-Electron Energy =                 364.4278744732409336
    DFT Exchange-Correlation Energy =       0.0000000000000000
    Empirical Dispersion Energy =           0.0000000000000000
    PCM Polarization Energy =               0.0000000000000000
    EFP Energy =                            0.0000000000000000
    Total Energy =                       -271.2761176557121985
    Molecular point group: c1
  Basis Set: CC-PVTZ
  Basis Set:

  -Total Gradient:
     Atom            X                  Y                   Z
    ------   -----------------  -----------------  -----------------
       1        0.000013897052     0.000017713645     0.000012132832
       2        0.000379598190    -0.002057243368    -0.000631468993
       3       -0.000565594953     0.002631619651     0.001013791244
       4        0.000004278102    -0.000000501755    -0.000006808673
       5       -0.000008756483     0.000013862296    -0.000002471161
       6        0.000255241135     0.001179093175    -0.000345528297
       7        0.000024953550    -0.001763200598    -0.000017761762
       8       -0.000082152304    -0.000016402108    -0.000029115373
       9        0.000002582341     0.000004407999     0.000022154957
      10        0.000007445915    -0.000006998332    -0.000024029684
      11       -0.000000923966     0.000000601046     0.000018562920
      12        0.000004784153     0.000018693299    -0.000007579267
      13       -0.000011361820     0.000005190175     0.000006593024
      14        0.000003640934    -0.000028720899    -0.000033646768
      15       -0.000012166824     0.000005058235     0.000024842910
      16        0.000006603056    -0.000000177190    -0.000007118219
      17       -0.000016076056     0.000000534263     0.000004421407
      18       -0.000005992022    -0.000003529533     0.000003028901

  **** Optimization is complete! (in 7 steps) ****
    Final optimized geometry and variables:
    Molecular point group: c1

    Geometry (in Angstrom), charge = 0, multiplicity = 1:

    H           -2.212965862064     0.209849276671     0.764760354806
    C           -1.987941864062    -0.322098337338    -0.155431284124
    O           -0.785447603473     0.079530845945    -0.726050085725
    H           -2.764989067906    -0.096060936236    -0.871938613363
    H           -2.011943500972    -1.387342231739     0.047740941680
    C            0.402499300983     0.065374246809     0.043711797925
    C            1.524512282839     0.057307984448    -0.988772395817
    C            0.468708175024     1.330976433982     0.898550077150
    C            0.511394028195    -1.183195757622     0.921333982709
    H            1.423534125725     0.904210913238    -1.655702409734
    H            1.479713599839    -0.846462082906    -1.583131658002
    H            2.494848682362     0.109829281844    -0.508974566193
    H            0.397472416044     2.209136797232     0.269091821445
    H            1.401998010638     1.376139410117     1.447979893439
    H           -0.339694400896     1.364749505632     1.619252928668
    H            0.400593938512    -2.082131460486     0.326680059016
    H            1.485492476326    -1.211125625784     1.393845074735
    H           -0.232859582975    -1.198190871143     1.707658497575

  Mulliken Charges: (a.u.)
   Center  Symbol    Alpha    Beta     Spin     Total
       1     H     0.47028  0.47028  0.00000  0.05943
       2     C     3.04402  3.04402  0.00000 -0.08804
       3     O     4.19261  4.19261  0.00000 -0.38522
       4     H     0.44184  0.44184  0.00000  0.11631
       5     H     0.46690  0.46690  0.00000  0.06620
       6     C     2.87459  2.87459  0.00000  0.25081
       7     C     3.14125  3.14125  0.00000 -0.28249
       8     C     3.15296  3.15296  0.00000 -0.30592
       9     C     3.17205  3.17205  0.00000 -0.34411
      10     H     0.44765  0.44765  0.00000  0.10469
      11     H     0.45065  0.45065  0.00000  0.09869
      12     H     0.45931  0.45931  0.00000  0.08139
      13     H     0.44753  0.44753  0.00000  0.10494
      14     H     0.45213  0.45213  0.00000  0.09574
      15     H     0.44987  0.44987  0.00000  0.10025
      16     H     0.44499  0.44499  0.00000  0.11002
      17     H     0.44508  0.44508  0.00000  0.10984
      18     H     0.44627  0.44627  0.00000  0.10746

   Total alpha = 25.00000, Total beta = 25.00000, Total charge = -0.00000
