  ==> Input File <==

--------------------------------------------------------------------------
set {
	reference rhf
	basis 6-31G*
}

set_num_threads( 1 )
memory 2 gb

molecule MOL {
0 1

H	 3.087633	 -0.993770	 0.598079
N	 3.092854	 -0.246221	 -0.068770
C	 1.865559	 0.531981	 0.018834
H	 3.177799	 -0.667054	 -0.974592
C	 0.645745	 -0.382037	 -0.029944
H	 1.841966	 1.207024	 -0.831236
H	 1.815756	 1.155410	 0.915079
C	 -0.679275	 0.379305	 0.025956
H	 0.698998	 -0.976915	 -0.937203
H	 0.693479	 -1.083846	 0.802235
C	 -1.903357	 -0.536963	 -0.023547
H	 -0.726309	 1.082987	 -0.803784
H	 -0.717680	 0.977832	 0.934877
C	 -3.225172	 0.228290	 0.028445
H	 -1.867824	 -1.134999	 -0.931459
H	 -1.860449	 -1.239604	 0.805977
H	 -3.313397	 0.915643	 -0.808262
H	 -4.073500	 -0.448134	 -0.008893
H	 -3.306061	 0.809945	 0.942516

	symmetry c1
}
set optking {
	frozen_dihedral = ("
		6 3 5 9,
		12 8 5 9,
		12 8 11 15
	")
}

ee = energy('scf')
oeprop('DIPOLE', 'QUADRUPOLE', 'MULLIKEN_CHARGES')
f=open( 'psi4out.xyz', 'w' )
f.write( "19  " )
f.write( str(ee) + "\n" )
f.write( MOL.save_string_xyz() )
f.close()
--------------------------------------------------------------------------

    Molecular point group: c1

    Geometry (in Angstrom), charge = 0, multiplicity = 1:

       Center              X                  Y                   Z               Mass
    ------------   -----------------  -----------------  -----------------  -----------------
           H          3.097204530356    -0.979999064942     0.609847017688     1.007825032070
           N          3.102425530356    -0.232450064942    -0.057001982312    14.003074004780
           C          1.875130530356     0.545751935058     0.030602017688    12.000000000000
           H          3.187370530356    -0.653283064942    -0.962823982312     1.007825032070
           C          0.655316530356    -0.368266064942    -0.018175982312    12.000000000000
           H          1.851537530356     1.220794935058    -0.819467982312     1.007825032070
           H          1.825327530356     1.169180935058     0.926847017688     1.007825032070
           C         -0.669703469644     0.393075935058     0.037724017688    12.000000000000
           H          0.708569530356    -0.963144064942    -0.925434982312     1.007825032070
           H          0.703050530356    -1.070075064942     0.814003017688     1.007825032070
           C         -1.893785469644    -0.523192064942    -0.011778982312    12.000000000000
           H         -0.716737469644     1.096757935058    -0.792015982312     1.007825032070
           H         -0.708108469644     0.991602935058     0.946645017688     1.007825032070
           C         -3.215600469644     0.242060935058     0.040213017688    12.000000000000
           H         -1.858252469644    -1.121228064942    -0.919690982312     1.007825032070
           H         -1.850877469644    -1.225833064942     0.817745017688     1.007825032070
           H         -3.303825469644     0.929413935058    -0.796493982312     1.007825032070
           H         -4.063928469644    -0.434363064942     0.002875017688     1.007825032070
           H         -3.296489469644     0.823715935058     0.954284017688     1.007825032070

  Charge       = 0
  Multiplicity = 1
  Basis Set: 6-31G*
  Basis Set:

    Orbital Energies (a.u.)
    -----------------------

    Doubly Occupied:

       1A    -15.531227     2A    -11.241090     3A    -11.216536
       4A    -11.215035     5A    -11.212417     6A    -11.209407
       7A     -1.178699     8A     -1.075074     9A     -0.999438
      10A     -0.901252    11A     -0.819417    12A     -0.793228
      13A     -0.679681    14A     -0.637590    15A     -0.601377
      16A     -0.582359    17A     -0.575035    18A     -0.560542
      19A     -0.519737    20A     -0.506892    21A     -0.479228
      22A     -0.475041    23A     -0.467636    24A     -0.464581
      25A     -0.371525

  @DF-RHF Final Energy:  -251.34933305083757

   => Energetics <=

    Nuclear Repulsion Energy =            246.2700135199781926
    One-Electron Energy =                -826.6106810075705198
    Two-Electron Energy =                 328.9913344367545278
    DFT Exchange-Correlation Energy =       0.0000000000000000
    Empirical Dispersion Energy =           0.0000000000000000
    PCM Polarization Energy =               0.0000000000000000
    EFP Energy =                            0.0000000000000000
    Total Energy =                       -251.3493330508377994

  Mulliken Charges: (a.u.)
   Center  Symbol    Alpha    Beta     Spin     Total
       1     H     0.33531  0.33531  0.00000  0.32938
       2     N     3.91752  3.91752  0.00000 -0.83504
       3     C     3.06167  3.06167  0.00000 -0.12335
       4     H     0.33415  0.33415  0.00000  0.33169
       5     C     3.15766  3.15766  0.00000 -0.31532
       6     H     0.41956  0.41956  0.00000  0.16089
       7     H     0.41846  0.41846  0.00000  0.16308
       8     C     3.15543  3.15543  0.00000 -0.31085
       9     H     0.42679  0.42679  0.00000  0.14642
      10     H     0.42722  0.42722  0.00000  0.14556
      11     C     3.15068  3.15068  0.00000 -0.30135
      12     H     0.42375  0.42375  0.00000  0.15250
      13     H     0.42335  0.42335  0.00000  0.15331
      14     C     3.23932  3.23932  0.00000 -0.47865
      15     H     0.42324  0.42324  0.00000  0.15352
      16     H     0.42321  0.42321  0.00000  0.15358
      17     H     0.42172  0.42172  0.00000  0.15656
      18     H     0.41930  0.41930  0.00000  0.16140
      19     H     0.42166  0.42166  0.00000  0.15667

   Total alpha = 25.00000, Total beta = 25.00000, Total charge =  0.00000
