  ==> Input File <==

--------------------------------------------------------------------------
set {
	reference rhf
	basis cc-pvtz
}

set_num_threads( 4 )
memory 2 gb

molecule MOL {
0 1

H	 -1.367681	 2.090777	 2.772594
O	 -1.108848	 1.451831	 2.134779
C	 -0.368163	 2.063811	 1.110629
C	 0.027642	 1.012027	 0.090274
H	 0.531044	 2.521136	 1.515659
H	 -0.949843	 2.852328	 0.641215
C	 -1.138737	 0.285728	 -0.581921
H	 0.657014	 0.282052	 0.588806
H	 0.643338	 1.494473	 -0.664961
C	 -1.933983	 -0.631436	 0.343653
H	 -0.763151	 -0.285569	 -1.422081
H	 -1.808359	 1.035291	 -0.992333
H	 -2.789188	 -1.049673	 -0.174718
H	 -1.335629	 -1.461368	 0.700418
H	 -2.305435	 -0.092167	 1.209725

	symmetry c1
}
set optking {
	frozen_dihedral = ("
		8 4 7 11
	")
}

ee = optimize('scf')
oeprop('DIPOLE', 'QUADRUPOLE', 'MULLIKEN_CHARGES')
f=open( 'psi4out.xyz', 'w' )
f.write( "15  " )
f.write( str(ee) + "\n" )
f.write( MOL.save_string_xyz() )
f.close()
--------------------------------------------------------------------------

    Molecular point group: c1
  Charge       = 0
  Multiplicity = 1
  Basis Set: CC-PVTZ
  Basis Set:
  @DF-RHF Final Energy:  -232.23294770928661
    Total Energy =                       -232.2329477092865204
    Molecular point group: c1
  Basis Set: CC-PVTZ
  Basis Set:
  Basis Set: CC-PVTZ
  Basis Set:
  @DF-RHF Final Energy:  -232.23572916460265
    Total Energy =                       -232.2357291646024464
  Basis Set: CC-PVTZ
  Basis Set:
  Basis Set: CC-PVTZ
  Basis Set:
  @DF-RHF Final Energy:  -232.23605964745747
    Total Energy =                       -232.2360596474574663
  Basis Set: CC-PVTZ
  Basis Set:
  Basis Set: CC-PVTZ
  Basis Set:
  @DF-RHF Final Energy:  -232.23610735857599
    Total Energy =                       -232.2361073585759073
  Basis Set: CC-PVTZ
  Basis Set:
  Basis Set: CC-PVTZ
  Basis Set:
  @DF-RHF Final Energy:  -232.23611452335859
    Total Energy =                       -232.2361145233584807
  Basis Set: CC-PVTZ
  Basis Set:
  Charge       = 0
  Multiplicity = 1
  Basis Set: CC-PVTZ
  Basis Set:

    Orbital Energies (a.u.)
    -----------------------

    Doubly Occupied:

       1A    -20.547073     2A    -11.266946     3A    -11.211960
       4A    -11.210022     5A    -11.193831     6A     -1.365056
       7A     -1.063631     8A     -0.971796     9A     -0.863129
      10A     -0.779188    11A     -0.707154    12A     -0.647695
      13A     -0.605282    14A     -0.580073    15A     -0.552704
      16A     -0.539419    17A     -0.509744    18A     -0.471247
      19A     -0.468292    20A     -0.452655    21A     -0.430481

  @DF-RHF Final Energy:  -232.23611506543114

   => Energetics <=

    Nuclear Repulsion Energy =            192.3514635558756822
    One-Electron Energy =                -696.3004068671350524
    Two-Electron Energy =                 271.7128282458282911
    DFT Exchange-Correlation Energy =       0.0000000000000000
    Empirical Dispersion Energy =           0.0000000000000000
    PCM Polarization Energy =               0.0000000000000000
    EFP Energy =                            0.0000000000000000
    Total Energy =                       -232.2361150654310791
    Molecular point group: c1
  Basis Set: CC-PVTZ
  Basis Set:

  -Total Gradient:
     Atom            X                  Y                   Z
    ------   -----------------  -----------------  -----------------
       1        0.000016376251     0.000002711625    -0.000012984125
       2       -0.000025837943    -0.000046304988    -0.000003030077
       3       -0.000012306499     0.000060117612     0.000037144325
       4       -0.000086487983    -0.000033612892     0.000162841457
       5        0.000017098079    -0.000004429012    -0.000042238381
       6       -0.000003443890     0.000006234967    -0.000011028221
       7        0.000004975518     0.000113064165    -0.000141508477
       8        0.000069119970    -0.000025386012    -0.000113238693
       9       -0.000009303086     0.000009023145     0.000018171104
      10       -0.000006670730    -0.000003502425     0.000007250867
      11        0.000020441909    -0.000091580187     0.000083890140
      12        0.000005247390     0.000001718730     0.000018913611
      13        0.000010483925     0.000006839623     0.000012659149
      14        0.000001658391     0.000006769101    -0.000002971604
      15       -0.000001351302    -0.000001663448    -0.000013871076

  **** Optimization is complete! (in 6 steps) ****
    Final optimized geometry and variables:
    Molecular point group: c1

    Geometry (in Angstrom), charge = 0, multiplicity = 1:

    H           -0.262541106138     1.329653401899     2.186692123099
    O           -0.048881187836     0.652916424250     1.571375038528
    C            0.531255715946     1.215115612226     0.422626143568
    C            0.908824096985     0.124885083508    -0.564857687343
    H            1.426459200527     1.769580706201     0.692989738144
    H           -0.157444425882     1.914646296619    -0.047592348469
    C           -0.250952266145    -0.574493890065    -1.279628530555
    H            1.525341760926    -0.607186525885    -0.051735844466
    H            1.540353832607     0.589988437070    -1.316815334304
    C           -1.079759915264    -1.527588917873    -0.421519073292
    H            0.163979532168    -1.134215428054    -2.112612139309
    H           -0.901607538586     0.177872071376    -1.718657081709
    H           -1.827699642402    -2.026759280660    -1.028175432260
    H           -0.451226795958    -2.291891752868     0.023410057805
    H           -1.582056546187    -1.009964235412     0.382433791097

  Mulliken Charges: (a.u.)
   Center  Symbol    Alpha    Beta     Spin     Total
       1     H     0.39613  0.39613  0.00000  0.20775
       2     O     4.19697  4.19697  0.00000 -0.39393
       3     C     2.97329  2.97329  0.00000  0.05341
       4     C     3.09528  3.09528  0.00000 -0.19055
       5     H     0.46399  0.46399  0.00000  0.07201
       6     H     0.47407  0.47407  0.00000  0.05187
       7     C     3.08807  3.08807  0.00000 -0.17614
       8     H     0.45190  0.45190  0.00000  0.09621
       9     H     0.44947  0.44947  0.00000  0.10107
      10     C     3.14329  3.14329  0.00000 -0.28659
      11     H     0.45090  0.45090  0.00000  0.09821
      12     H     0.45802  0.45802  0.00000  0.08397
      13     H     0.45330  0.45330  0.00000  0.09339
      14     H     0.45724  0.45724  0.00000  0.08552
      15     H     0.44810  0.44810  0.00000  0.10380

   Total alpha = 21.00000, Total beta = 21.00000, Total charge =  0.00000
