  ==> Input File <==

--------------------------------------------------------------------------
set {
	reference rhf
	basis cc-pvtz
}

set_num_threads( 4 )
memory 2 gb

molecule MOL {
0 1

H	 2.808634	 -0.465350	 0.509029
O	 1.988696	 -0.889745	 0.305739
C	 1.025859	 0.027564	 0.316234
C	 -0.318151	 -0.570512	 0.000144
O	 1.243560	 1.165813	 0.550678
C	 -1.454884	 0.441630	 -0.000560
H	 -0.230211	 -1.064906	 -0.962006
H	 -0.494709	 -1.360761	 0.722801
C	 -2.822577	 -0.232186	 0.000063
H	 -1.359760	 1.084704	 -0.867077
H	 -1.359641	 1.085996	 0.864983
H	 -2.954352	 -0.858985	 -0.875745
H	 -3.615886	 0.505352	 0.000019
H	 -2.953878	 -0.858359	 0.876394

	symmetry c1
}
set optking {
	frozen_dihedral = ("
		7 4 6 10
	")
}

ee = optimize('scf')
oeprop('DIPOLE', 'QUADRUPOLE', 'MULLIKEN_CHARGES')
f=open( 'psi4out.xyz', 'w' )
f.write( "14  " )
f.write( str(ee) + "\n" )
f.write( MOL.save_string_xyz() )
f.close()
--------------------------------------------------------------------------

    Molecular point group: c1
  Charge       = 0
  Multiplicity = 1
  Basis Set: CC-PVTZ
  Basis Set:
  @DF-RHF Final Energy:  -306.00044693340396
    Total Energy =                       -306.0004469334038504
    Molecular point group: c1
  Basis Set: CC-PVTZ
  Basis Set:
  Basis Set: CC-PVTZ
  Basis Set:
  @DF-RHF Final Energy:  -306.00052099189691
    Total Energy =                       -306.0005209918969058
  Basis Set: CC-PVTZ
  Basis Set:
  Basis Set: CC-PVTZ
  Basis Set:
  @DF-RHF Final Energy:  -306.00042792055103
    Total Energy =                       -306.0004279205508055
  Basis Set: CC-PVTZ
  Basis Set:
  Basis Set: CC-PVTZ
  Basis Set:
  @DF-RHF Final Energy:  -306.00053500980403
    Total Energy =                       -306.0005350098041959
  Basis Set: CC-PVTZ
  Basis Set:
  Charge       = 0
  Multiplicity = 1
  Basis Set: CC-PVTZ
  Basis Set:

    Orbital Energies (a.u.)
    -----------------------

    Doubly Occupied:

       1A    -20.604384     2A    -20.541023     3A    -11.373900
       4A    -11.240001     5A    -11.223796     6A    -11.215214
       7A     -1.478004     8A     -1.369512     9A     -1.084191
      10A     -0.980938    11A     -0.858998    12A     -0.792629
      13A     -0.704156    14A     -0.691626    15A     -0.670149
      16A     -0.618171    17A     -0.596843    18A     -0.574159
      19A     -0.547304    20A     -0.505474    21A     -0.492136
      22A     -0.485275    23A     -0.482636    24A     -0.447482

  @DF-RHF Final Energy:  -306.00053577645747

   => Energetics <=

    Nuclear Repulsion Energy =            240.4573114999346615
    One-Electron Energy =                -893.7596963241028334
    Two-Electron Energy =                 347.3018490477107321
    DFT Exchange-Correlation Energy =       0.0000000000000000
    Empirical Dispersion Energy =           0.0000000000000000
    PCM Polarization Energy =               0.0000000000000000
    EFP Energy =                            0.0000000000000000
    Total Energy =                       -306.0005357764574114
    Molecular point group: c1
  Basis Set: CC-PVTZ
  Basis Set:

  -Total Gradient:
     Atom            X                  Y                   Z
    ------   -----------------  -----------------  -----------------
       1       -0.000001973271    -0.000000141631     0.000003866297
       2       -0.000010412040     0.000015036183    -0.000013869815
       3       -0.000011503176    -0.000064761903     0.000005935651
       4       -0.002114274263    -0.002319356865     0.000562587628
       5        0.000013570247     0.000049181655     0.000016464453
       6        0.001929085583     0.002143656652     0.001311489942
       7        0.001439149932     0.001596744821    -0.000698422805
       8       -0.000002980490     0.000005536003     0.000010766842
       9        0.000026363827     0.000007492216     0.000015104499
      10       -0.001250096473    -0.001412033763    -0.001214437184
      11        0.000000386384    -0.000012768670    -0.000004515112
      12        0.000002632668     0.000001521212     0.000004551562
      13       -0.000002974582    -0.000000701781    -0.000004339228
      14       -0.000016974344    -0.000009404129     0.000004817271

  **** Optimization is complete! (in 5 steps) ****
    Final optimized geometry and variables:
    Molecular point group: c1

    Geometry (in Angstrom), charge = 0, multiplicity = 1:

    H            2.828063736354    -0.448124775137     0.279023927173
    O            2.004603813316    -0.873441169283     0.092558060039
    C            1.042853680360     0.045095291672     0.111704560332
    C           -0.306732059392    -0.555947983127    -0.179243815609
    O            1.266330061225     1.184864748261     0.332975403021
    C           -1.441592166179     0.460106598068    -0.178352548348
    H           -0.220411061302    -1.048128158251    -1.142455464283
    H           -0.472042238862    -1.340341151908     0.551700984711
    C           -2.810071700769    -0.213651423262    -0.210590335130
    H           -1.342658396614     1.103936963173    -1.044516086260
    H           -1.359460086837     1.094274105901     0.694366571112
    H           -2.919497241645    -0.845584453952    -1.085944666127
    H           -3.602788789661     0.524190447964    -0.236064477796
    H           -2.964340915445    -0.834605235545     0.665618974004

  Mulliken Charges: (a.u.)
   Center  Symbol    Alpha    Beta     Spin     Total
       1     H     0.38229  0.38229  0.00000  0.23541
       2     O     4.16032  4.16032  0.00000 -0.32065
       3     C     2.80499  2.80499  0.00000  0.39002
       4     C     3.10592  3.10592  0.00000 -0.21184
       5     O     4.19079  4.19079  0.00000 -0.38159
       6     C     3.08011  3.08011  0.00000 -0.16022
       7     H     0.43773  0.43773  0.00000  0.12453
       8     H     0.43942  0.43942  0.00000  0.12117
       9     C     3.15012  3.15012  0.00000 -0.30023
      10     H     0.44888  0.44888  0.00000  0.10224
      11     H     0.44300  0.44300  0.00000  0.11401
      12     H     0.45571  0.45571  0.00000  0.08857
      13     H     0.44542  0.44542  0.00000  0.10915
      14     H     0.45529  0.45529  0.00000  0.08943

   Total alpha = 24.00000, Total beta = 24.00000, Total charge = -0.00000
