  ==> Input File <==

--------------------------------------------------------------------------
set {
	reference rhf
	basis cc-pvtz
}

set_num_threads( 4 )
memory 2 gb

molecule MOL {
0 1

H	 -0.000342	 -0.223902	 -3.352295
C	 -0.027146	 0.371068	 -2.446756
C	 0.024493	 -0.518541	 -1.216015
H	 -0.932586	 0.964979	 -2.449855
H	 0.819708	 1.049865	 -2.473332
N	 -0.042516	 0.263377	 -0.000000
H	 -0.822211	 -1.197105	 -1.225584
H	 0.921114	 -1.142847	 -1.255206
C	 0.024493	 -0.518541	 1.216015
H	 0.682568	 0.950412	 -0.000000
C	 0.197597	 0.371974	 2.434954
H	 -0.900831	 -1.078042	 1.306475
H	 0.830279	 -1.256839	 1.186912
H	 -0.617293	 1.081394	 2.507337
H	 0.223007	 -0.219800	 3.342624
H	 1.126211	 0.931745	 2.380489

	symmetry c1
}
set optking {
	frozen_dihedral = ("
		12 9 6 3
	")
}

ee = optimize('scf')
oeprop('DIPOLE', 'QUADRUPOLE', 'MULLIKEN_CHARGES')
f=open( 'psi4out.xyz', 'w' )
f.write( "16  " )
f.write( str(ee) + "\n" )
f.write( MOL.save_string_xyz() )
f.close()
--------------------------------------------------------------------------

    Molecular point group: c1
  Charge       = 0
  Multiplicity = 1
  Basis Set: CC-PVTZ
  Basis Set:
  @DF-RHF Final Energy:  -212.39440084087389
    Total Energy =                       -212.3944008408738000
    Molecular point group: c1
  Basis Set: CC-PVTZ
  Basis Set:
  Basis Set: CC-PVTZ
  Basis Set:
  @DF-RHF Final Energy:  -212.39443088327059
    Total Energy =                       -212.3944308832706156
  Basis Set: CC-PVTZ
  Basis Set:
  Basis Set: CC-PVTZ
  Basis Set:
  @DF-RHF Final Energy:  -212.39443348385018
    Total Energy =                       -212.3944334838500936
  Basis Set: CC-PVTZ
  Basis Set:
  Charge       = 0
  Multiplicity = 1
  Basis Set: CC-PVTZ
  Basis Set:

    Orbital Energies (a.u.)
    -----------------------

    Doubly Occupied:

       1A    -15.528960     2A    -11.238943     3A    -11.238881
       4A    -11.207756     5A    -11.206427     6A     -1.207601
       7A     -1.029537     8A     -0.964005     9A     -0.832577
      10A     -0.822636    11A     -0.661135    12A     -0.629684
      13A     -0.601545    14A     -0.591655    15A     -0.553329
      16A     -0.521513    17A     -0.508561    18A     -0.488995
      19A     -0.483547    20A     -0.474069    21A     -0.363191

  @DF-RHF Final Energy:  -212.39443365009600

   => Energetics <=

    Nuclear Repulsion Energy =            189.4843738289438875
    One-Electron Energy =                -661.4485200452797926
    Two-Electron Energy =                 259.5697125662400708
    DFT Exchange-Correlation Energy =       0.0000000000000000
    Empirical Dispersion Energy =           0.0000000000000000
    PCM Polarization Energy =               0.0000000000000000
    EFP Energy =                            0.0000000000000000
    Total Energy =                       -212.3944336500958343
    Molecular point group: c1
  Basis Set: CC-PVTZ
  Basis Set:

  -Total Gradient:
     Atom            X                  Y                   Z
    ------   -----------------  -----------------  -----------------
       1       -0.000001248752    -0.000000664983     0.000003353061
       2        0.000002032317     0.000004226871    -0.000001431709
       3        0.001268789379     0.000128922502     0.000027794815
       4       -0.000000177081     0.000001003196    -0.000002232011
       5        0.000000665573     0.000003017710    -0.000002987467
       6       -0.001957881758     0.000110916838     0.000194070038
       7       -0.000003683036    -0.000008456660    -0.000004738412
       8        0.000004032619    -0.000011161922    -0.000002935447
       9        0.001350232340    -0.001497348247    -0.001082294617
      10        0.000002429770     0.000008461108    -0.000002560184
      11        0.000005677579     0.000002654886     0.000008067608
      12       -0.000656252094     0.001253423892     0.000841820885
      13       -0.000005478170    -0.000002272854     0.000009409674
      14       -0.000006234063     0.000003374787     0.000003983259
      15       -0.000001882994     0.000000804498     0.000006036907
      16       -0.000001021629     0.000003098379     0.000004643598

  **** Optimization is complete! (in 4 steps) ****
    Final optimized geometry and variables:
    Molecular point group: c1

    Geometry (in Angstrom), charge = 0, multiplicity = 1:

    H           -0.054527640480    -0.224107606086    -3.350275209156
    C           -0.080594111890     0.371088986313    -2.444828835370
    C           -0.020563878944    -0.517632399082    -1.213893680473
    H           -0.988343308655     0.961391956318    -2.444860317085
    H            0.763353824664     1.053400823807    -2.474463146152
    N           -0.081329003701     0.264554043648     0.002603744163
    H           -0.866044334033    -1.198141047278    -1.218931869920
    H            0.876717427891    -1.140419826345    -1.256238814299
    C           -0.017883376076    -0.520466286428     1.217699098894
    H            0.656581558936     0.937937242586     0.001057087273
    C            0.146517993572     0.370931430806     2.437873828622
    H           -0.945608777794    -1.075912805728     1.311559709752
    H            0.791007869808    -1.254502203962     1.191755615867
    H           -0.663543668925     1.087379438052     2.498309049404
    H            0.152149699805    -0.219432426931     3.346550258885
    H            1.081111526708     0.921953126924     2.396861910646

  Mulliken Charges: (a.u.)
   Center  Symbol    Alpha    Beta     Spin     Total
       1     H     0.45385  0.45385  0.00000  0.09230
       2     C     3.14192  3.14192  0.00000 -0.28384
       3     C     3.02253  3.02253  0.00000 -0.04505
       4     H     0.44946  0.44946  0.00000  0.10109
       5     H     0.45956  0.45956  0.00000  0.08088
       6     N     3.63515  3.63515  0.00000 -0.27030
       7     H     0.45865  0.45865  0.00000  0.08269
       8     H     0.47324  0.47324  0.00000  0.05352
       9     C     3.01973  3.01973  0.00000 -0.03946
      10     H     0.44622  0.44622  0.00000  0.10756
      11     C     3.14404  3.14404  0.00000 -0.28807
      12     H     0.45855  0.45855  0.00000  0.08289
      13     H     0.47539  0.47539  0.00000  0.04922
      14     H     0.44905  0.44905  0.00000  0.10191
      15     H     0.45279  0.45279  0.00000  0.09441
      16     H     0.45987  0.45987  0.00000  0.08027

   Total alpha = 21.00000, Total beta = 21.00000, Total charge =  0.00000
