  ==> Input File <==

--------------------------------------------------------------------------
set {
	reference rhf
	basis 6-31G*
}

set_num_threads( 4 )
memory 2 gb

molecule MOL {
0 1

O	 -1.725191	 2.076834	 -1.443582
C	 -1.785358	 1.043870	 -0.848771
C	 -0.743291	 -0.039812	 -1.063330
C	 -2.874347	 0.774037	 0.165463
C	 0.546724	 0.279624	 -0.290696
H	 -0.527669	 -0.083052	 -2.125376
H	 -1.129665	 -1.007708	 -0.756868
C	 1.631333	 -0.777471	 -0.511575
H	 0.896071	 1.256583	 -0.605165
H	 0.328084	 0.351512	 0.773624
C	 2.915987	 -0.544314	 0.291766
H	 1.874231	 -0.825030	 -1.571511
H	 1.229224	 -1.753188	 -0.246749
C	 3.373361	 0.914346	 0.347591
H	 3.708709	 -1.142521	 -0.150311
H	 2.780642	 -0.921148	 1.303579
H	 3.506512	 1.320010	 -0.651625
H	 4.322697	 0.999599	 0.867103
H	 2.660624	 1.545032	 0.868198
H	 -3.515559	 -0.027599	 -0.191596
H	 -3.466198	 1.665570	 0.319301
H	 -2.448068	 0.446559	 1.109311

	symmetry c1
}
set optking {
	frozen_dihedral = ("
		12 8 11 15
	")
}

ee = optimize('scf')
oeprop('DIPOLE', 'QUADRUPOLE', 'MULLIKEN_CHARGES')
f=open( 'psi4out.xyz', 'w' )
f.write( "22  " )
f.write( str(ee) + "\n" )
f.write( MOL.save_string_xyz() )
f.close()
--------------------------------------------------------------------------

    Molecular point group: c1
  Charge       = 0
  Multiplicity = 1
  Basis Set: 6-31G*
  Basis Set:
  @DF-RHF Final Energy:  -348.09579721333046
    Total Energy =                       -348.0957972133302860
    Molecular point group: c1
  Basis Set: 6-31G*
  Basis Set:
  Basis Set: 6-31G*
  Basis Set:
  @DF-RHF Final Energy:  -348.09592172208465
    Total Energy =                       -348.0959217220847108
  Basis Set: 6-31G*
  Basis Set:
  Basis Set: 6-31G*
  Basis Set:
  @DF-RHF Final Energy:  -348.09619377597949
    Total Energy =                       -348.0961937759797138
  Basis Set: 6-31G*
  Basis Set:
  Basis Set: 6-31G*
  Basis Set:
  @DF-RHF Final Energy:  -348.09623324574579
    Total Energy =                       -348.0962332457456796
  Basis Set: 6-31G*
  Basis Set:
  Basis Set: 6-31G*
  Basis Set:
  @DF-RHF Final Energy:  -348.09629006525273
    Total Energy =                       -348.0962900652531289
  Basis Set: 6-31G*
  Basis Set:
  Basis Set: 6-31G*
  Basis Set:
  @DF-RHF Final Energy:  -348.09629856060940
    Total Energy =                       -348.0962985606096254
  Basis Set: 6-31G*
  Basis Set:
  Charge       = 0
  Multiplicity = 1
  Basis Set: 6-31G*
  Basis Set:

    Orbital Energies (a.u.)
    -----------------------

    Doubly Occupied:

       1A    -20.547383     2A    -11.324499     3A    -11.229757
       4A    -11.229109     5A    -11.228248     6A    -11.222380
       7A    -11.220868     8A    -11.210894     9A     -1.393144
      10A     -1.095380    11A     -1.043685    12A     -0.999232
      13A     -0.937319    14A     -0.861243    15A     -0.781987
      16A     -0.733163    17A     -0.663675    18A     -0.644115
      19A     -0.628685    20A     -0.618300    21A     -0.594571
      22A     -0.585628    23A     -0.561888    24A     -0.538391
      25A     -0.534451    26A     -0.524098    27A     -0.497264
      28A     -0.488291    29A     -0.466835    30A     -0.464219
      31A     -0.459919    32A     -0.396314

  @DF-RHF Final Energy:  -348.09629891653827

   => Energetics <=

    Nuclear Repulsion Energy =            373.8160238285776700
    One-Electron Energy =               -1212.3747707083939531
    Two-Electron Energy =                 490.4624479632778957
    DFT Exchange-Correlation Energy =       0.0000000000000000
    Empirical Dispersion Energy =           0.0000000000000000
    PCM Polarization Energy =               0.0000000000000000
    EFP Energy =                            0.0000000000000000
    Total Energy =                       -348.0962989165383306
    Molecular point group: c1
  Basis Set: 6-31G*
  Basis Set:

  -Total Gradient:
     Atom            X                  Y                   Z
    ------   -----------------  -----------------  -----------------
       1       -0.000018413725    -0.000006251950    -0.000035220508
       2        0.000052945980     0.000042235744     0.000122532843
       3       -0.000020675589    -0.000000561516    -0.000020932538
       4       -0.000029626052    -0.000007224026    -0.000032899534
       5        0.000044414830     0.000014151732    -0.000054794820
       6        0.000006835644     0.000003806127    -0.000004013143
       7        0.000028576074    -0.000010485196    -0.000006761490
       8       -0.000344937959     0.006536199635    -0.000934517511
       9       -0.000003361811    -0.000013427820    -0.000024003410
      10        0.000020704162     0.000003268953    -0.000006456157
      11       -0.001440924011    -0.005413322916     0.003372671342
      12        0.000502447254    -0.004685155312     0.000350717521
      13       -0.000064902734    -0.000020404132     0.000009893885
      14       -0.000011499857     0.000003635724     0.000074053889
      15        0.001302372958     0.003568493147    -0.002793253208
      16       -0.000010927722    -0.000005530303    -0.000017587216
      17       -0.000031658460    -0.000023962126    -0.000003205906
      18        0.000019070609     0.000029017032     0.000006950233
      19        0.000008559449    -0.000005797249     0.000003053752
      20       -0.000019342254    -0.000011087675     0.000011605202
      21       -0.000000855847    -0.000001294067    -0.000001338227
      22        0.000011199061     0.000003696194    -0.000016494996

  **** Optimization is complete! (in 7 steps) ****
    Final optimized geometry and variables:
    Molecular point group: c1

    Geometry (in Angstrom), charge = 0, multiplicity = 1:

    O           -1.935071361283     1.580121315985    -1.043586992357
    C           -1.975350219249     0.551947230717    -0.439007672291
    C           -0.917648785074    -0.517389604711    -0.649623153765
    C           -3.058763005463     0.270846087038     0.578339571457
    C            0.368630285279    -0.175052272522     0.119099258220
    H           -0.702775427294    -0.562722116717    -1.711798330814
    H           -1.289528060219    -1.489212336956    -0.337923757200
    C            1.465992632153    -1.215729269902    -0.105020117181
    H            0.701928721400     0.806274355736    -0.198121100606
    H            0.151125718595    -0.104093025868     1.183905798584
    C            2.744396550956    -1.021626440805     0.726429306452
    H            1.725078689739    -1.267715846073    -1.160555121701
    H            1.062584422245    -2.199404814942     0.130719061300
    C            3.277080858273     0.414095732520     0.762916382167
    H            3.523358850683    -1.643279415480     0.293364559969
    H            2.579511225081    -1.369269082496     1.742794729145
    H            3.426716521651     0.803231247222    -0.240590126289
    H            4.233123563919     0.451296329070     1.275836681631
    H            2.603478514470     1.087636631287     1.281707544989
    H           -3.687115952888    -0.543564516609     0.227413760933
    H           -3.664978759282     1.153565007475     0.726840161436
    H           -2.626151372674    -0.043242430963     1.523817681503

  Mulliken Charges: (a.u.)
   Center  Symbol    Alpha    Beta     Spin     Total
       1     O     4.26232  4.26232  0.00000 -0.52464
       2     C     2.73722  2.73722  0.00000  0.52556
       3     C     3.19972  3.19972  0.00000 -0.39944
       4     C     3.28953  3.28953  0.00000 -0.57905
       5     C     3.16489  3.16489  0.00000 -0.32979
       6     H     0.40110  0.40110  0.00000  0.19780
       7     H     0.41686  0.41686  0.00000  0.16628
       8     C     3.15365  3.15365  0.00000 -0.30731
       9     H     0.40269  0.40269  0.00000  0.19463
      10     H     0.42123  0.42123  0.00000  0.15755
      11     C     3.15222  3.15222  0.00000 -0.30444
      12     H     0.41968  0.41968  0.00000  0.16064
      13     H     0.42244  0.42244  0.00000  0.15511
      14     C     3.24389  3.24389  0.00000 -0.48779
      15     H     0.41943  0.41943  0.00000  0.16114
      16     H     0.42189  0.42189  0.00000  0.15621
      17     H     0.42019  0.42019  0.00000  0.15961
      18     H     0.41840  0.41840  0.00000  0.16320
      19     H     0.41891  0.41891  0.00000  0.16218
      20     H     0.40683  0.40683  0.00000  0.18634
      21     H     0.39708  0.39708  0.00000  0.20583
      22     H     0.40980  0.40980  0.00000  0.18040

   Total alpha = 32.00000, Total beta = 32.00000, Total charge = -0.00000
