                              Psi4 1.0.54 Driver

  ==> Input File <==

--------------------------------------------------------------------------
set {
	reference rhf
	basis cc-pvtz
}

set_num_threads( 4 )
memory 2 gb

molecule MOL {
0 1

H	 -0.701549	 1.469896	 -0.686169
O	 0.057669	 1.301365	 -0.158528
C	 0.004145	 -0.005141	 0.363049
C	 1.199168	 -0.827145	 -0.096690
C	 -1.316386	 -0.602081	 -0.083515
H	 0.012026	 0.043363	 1.450619
H	 1.216685	 -0.896776	 -1.178167
H	 2.129940	 -0.372354	 0.228035
H	 1.160783	 -1.829622	 0.314294
H	 -1.357882	 -0.655920	 -1.165207
H	 -2.140147	 0.011735	 0.257253
H	 -1.440790	 -1.601175	 0.317669

	symmetry c1
}
set optking {
	frozen_dihedral = ("
		1 2 3 4
	")
}

ee,wfn = optimize('scf', return_wfn=True)
oeprop( wfn, 'DIPOLE', 'QUADRUPOLE', 'MULLIKEN_CHARGES')
f=open( 'psi4out.xyz', 'w' )
f.write( "12  " )
f.write( str(ee) + "\n" )
f.write( MOL.save_string_xyz() )
f.close()
--------------------------------------------------------------------------

    Molecular point group: c1
  Charge       = 0
  Multiplicity = 1
  Basis Set: CC-PVTZ
  Basis Set:
  @DF-RHF Final Energy:  -193.19216452812711
    Total Energy =                       -193.1921645281270798
    Molecular point group: c1
  Basis Set: CC-PVTZ
  Basis Set:
  Basis Set: CC-PVTZ
  Basis Set:
  @DF-RHF Final Energy:  -193.16216680417710
    Total Energy =                       -193.1621668041772750
  Basis Set: CC-PVTZ
  Basis Set:
  Basis Set: CC-PVTZ
  Basis Set:
  @DF-RHF Final Energy:  -193.19293222647156
    Total Energy =                       -193.1929322264718394
  Basis Set: CC-PVTZ
  Basis Set:
  Basis Set: CC-PVTZ
  Basis Set:
  @DF-RHF Final Energy:  -193.19385312152400
    Total Energy =                       -193.1938531215238584
  Basis Set: CC-PVTZ
  Basis Set:
  Basis Set: CC-PVTZ
  Basis Set:
  @DF-RHF Final Energy:  -193.19387543469159
    Total Energy =                       -193.1938754346916767
  Basis Set: CC-PVTZ
  Basis Set:
  Charge       = 0
  Multiplicity = 1
  Basis Set: CC-PVTZ
  Basis Set:

    Orbital Energies (a.u.)
    -----------------------

    Doubly Occupied:

       1A    -20.542067     2A    -11.274071     3A    -11.218042
       4A    -11.204961     5A     -1.362738     6A     -1.044167
       7A     -0.943696     8A     -0.814430     9A     -0.670759
      10A     -0.650033    11A     -0.608347    12A     -0.556645
      13A     -0.545896    14A     -0.518462    15A     -0.515739
      16A     -0.468113    17A     -0.431102

  @DF-RHF Final Energy:  -193.19387673823789

   => Energetics <=

    Nuclear Repulsion Energy =            135.6506559247550001
    One-Electron Energy =                -530.9505278368582140
    Two-Electron Energy =                 202.1059951738653240
    DFT Exchange-Correlation Energy =       0.0000000000000000
    Empirical Dispersion Energy =           0.0000000000000000
    PCM Polarization Energy =               0.0000000000000000
    EFP Energy =                            0.0000000000000000
    Total Energy =                       -193.1938767382378614
    Molecular point group: c1
  Basis Set: CC-PVTZ
  Basis Set:

  -Total Gradient:
     Atom            X                  Y                   Z
    ------   -----------------  -----------------  -----------------
       1       -0.000014655599    -0.000019880670     0.000005787975
       2        0.000043755612    -0.000037547406    -0.000012269781
       3       -0.000009531359     0.000019315014     0.000012478509
       4       -0.000008707241     0.000060898505     0.000004547893
       5       -0.000050121238     0.000004434129    -0.000040360103
       6        0.000003787448    -0.000003229341     0.000005814596
       7        0.000002267911    -0.000002454135    -0.000002950700
       8        0.000035095909     0.000002605097    -0.000009005338
       9       -0.000001481490    -0.000020967154     0.000010978245
      10        0.000003738899     0.000010109981     0.000003184715
      11       -0.000025012289     0.000006621746     0.000008940515
      12        0.000020863436    -0.000019905764     0.000012853473

  **** Optimization is complete! (in 6 steps) ****
    Final optimized geometry and variables:
    Molecular point group: c1

    Geometry (in Angstrom), charge = 0, multiplicity = 1:

    H           -1.013636641425     1.449537622950    -0.224552808978
    O           -0.202051442299     1.296388939978     0.220752050197
    C            0.046581668856    -0.086529284133     0.346736939685
    C            1.350015713809    -0.420495877643    -0.359008813481
    C           -1.121810531416    -0.910292598344    -0.170384529921
    H            0.166196214076    -0.289478314431     1.406723195970
    H            1.260283304674    -0.251546746066    -1.426641721313
    H            2.147084067293     0.208924563797     0.015642669892
    H            1.624976761321    -1.456901161850    -0.195114096194
    H           -1.277836402289    -0.732382581933    -1.230525310975
    H           -2.034402716905    -0.658220097264     0.359111283998
    H           -0.937801534698    -1.968806768819    -0.033279937801

  Mulliken Charges: (a.u.)
   Center  Symbol    Alpha    Beta     Spin     Total
       1     H     0.39183  0.39183  0.00000  0.21633
       2     O     4.21109  4.21109  0.00000 -0.42219
       3     C     2.92033  2.92033  0.00000  0.15934
       4     C     3.13676  3.13676  0.00000 -0.27352
       5     C     3.16001  3.16001  0.00000 -0.32002
       6     H     0.46067  0.46067  0.00000  0.07866
       7     H     0.45927  0.45927  0.00000  0.08147
       8     H     0.44660  0.44660  0.00000  0.10680
       9     H     0.46009  0.46009  0.00000  0.07982
      10     H     0.45480  0.45480  0.00000  0.09041
      11     H     0.44758  0.44758  0.00000  0.10484
      12     H     0.45097  0.45097  0.00000  0.09807

   Total alpha = 17.00000, Total beta = 17.00000, Total charge =  0.00000

*** Psi4 exiting successfully. Buy a developer a beer!
