                              Psi4 1.0.54 Driver

  ==> Input File <==

--------------------------------------------------------------------------
set {
	reference rhf
	basis cc-pvtz
}

set_num_threads( 4 )
memory 2 gb

molecule MOL {
0 1

H	 1.721971	 -1.628841	 1.019849
C	 0.856761	 -1.022167	 1.227673
O	 0.462329	 -0.453336	 -0.000137
H	 1.123582	 -0.255907	 1.944521
H	 0.073666	 -1.647871	 1.636934
C	 -0.590565	 0.341382	 0.000062
O	 -1.693898	 -0.053880	 0.000252
H	 -0.340426	 1.403822	 0.000200

	symmetry c1
}
set optking {
	frozen_dihedral = ("
		2 3 6 7
	")
}

ee,wfn = optimize('scf', return_wfn=True)
oeprop( wfn, 'DIPOLE', 'QUADRUPOLE', 'MULLIKEN_CHARGES')
f=open( 'psi4out.xyz', 'w' )
f.write( "8  " )
f.write( str(ee) + "\n" )
f.write( MOL.save_string_xyz() )
f.close()
--------------------------------------------------------------------------

    Molecular point group: c1
  Charge       = 0
  Multiplicity = 1
  Basis Set: CC-PVTZ
  Basis Set:
  @DF-RHF Final Energy:  -227.85941660343832
    Total Energy =                       -227.8594166034382340
    Molecular point group: c1
  Basis Set: CC-PVTZ
  Basis Set:
  Basis Set: CC-PVTZ
  Basis Set:
  @DF-RHF Final Energy:  -227.85663163701724
    Total Energy =                       -227.8566316370171876
  Basis Set: CC-PVTZ
  Basis Set:
  Basis Set: CC-PVTZ
  Basis Set:
  @DF-RHF Final Energy:  -227.85942253100092
    Total Energy =                       -227.8594225310007459
  Basis Set: CC-PVTZ
  Basis Set:
  Basis Set: CC-PVTZ
  Basis Set:
  @DF-RHF Final Energy:  -227.86004098902492
    Total Energy =                       -227.8600409890248102
  Basis Set: CC-PVTZ
  Basis Set:
  Basis Set: CC-PVTZ
  Basis Set:
  @DF-RHF Final Energy:  -227.86005652741409
    Total Energy =                       -227.8600565274141445
  Basis Set: CC-PVTZ
  Basis Set:
  Basis Set: CC-PVTZ
  Basis Set:
  @DF-RHF Final Energy:  -227.86005874944328
    Total Energy =                       -227.8600587494430556
  Basis Set: CC-PVTZ
  Basis Set:
  Charge       = 0
  Multiplicity = 1
  Basis Set: CC-PVTZ
  Basis Set:

    Orbital Energies (a.u.)
    -----------------------

    Doubly Occupied:

       1A    -20.589833     2A    -20.562637     3A    -11.376141
       4A    -11.295479     5A     -1.472925     6A     -1.383790
       7A     -0.987615     8A     -0.831887     9A     -0.741137
      10A     -0.690216    11A     -0.668250    12A     -0.627319
      13A     -0.563341    14A     -0.516078    15A     -0.475314
      16A     -0.460027

  @DF-RHF Final Energy:  -227.86005882714511

   => Energetics <=

    Nuclear Repulsion Energy =            122.2098157117141426
    One-Electron Energy =                -553.6557727838169285
    Two-Electron Energy =                 203.5858982449575478
    DFT Exchange-Correlation Energy =       0.0000000000000000
    Empirical Dispersion Energy =           0.0000000000000000
    PCM Polarization Energy =               0.0000000000000000
    EFP Energy =                            0.0000000000000000
    Total Energy =                       -227.8600588271452239
    Molecular point group: c1
  Basis Set: CC-PVTZ
  Basis Set:

  -Total Gradient:
     Atom            X                  Y                   Z
    ------   -----------------  -----------------  -----------------
       1       -0.000000825534    -0.000002694132     0.000002963454
       2        0.001702729129     0.002386731187     0.000549495726
       3       -0.002565650319    -0.003488657924    -0.002717765979
       4       -0.000004132656     0.000001903805    -0.000010527477
       5        0.000001661787    -0.000000343455    -0.000002234479
       6        0.000983400230     0.000969645468     0.006086079969
       7       -0.000112385359     0.000121637004    -0.003902417504
       8       -0.000004797278     0.000011778046    -0.000005593709

  **** Optimization is complete! (in 7 steps) ****
    Final optimized geometry and variables:
    Molecular point group: c1

    Geometry (in Angstrom), charge = 0, multiplicity = 1:

    H            2.012147022951    -1.290515239462     0.617235240207
    C            1.146160837497    -0.696793401549     0.858108511311
    O            0.701534437414    -0.120272773879    -0.354659149999
    H            1.426091942384     0.072860380494     1.568343025906
    H            0.377737721044    -1.326924162951     1.284523169266
    C           -0.398725252498     0.637730006116    -0.293944272240
    O           -1.491660823642     0.217643744278    -0.266392591296
    H           -0.175685019046     1.702488792216    -0.330966558959

  Mulliken Charges: (a.u.)
   Center  Symbol    Alpha    Beta     Spin     Total
       1     H     0.44469  0.44469  0.00000  0.11061
       2     C     3.02244  3.02244  0.00000 -0.04487
       3     O     4.15643  4.15643  0.00000 -0.31286
       4     H     0.46550  0.46550  0.00000  0.06899
       5     H     0.45297  0.45297  0.00000  0.09406
       6     C     2.83028  2.83028  0.00000  0.33943
       7     O     4.16462  4.16462  0.00000 -0.32924
       8     H     0.46306  0.46306  0.00000  0.07388

   Total alpha = 16.00000, Total beta = 16.00000, Total charge =  0.00000

*** Psi4 exiting successfully. Buy a developer a beer!
