                              Psi4 1.0.54 Driver

  ==> Input File <==

--------------------------------------------------------------------------
set {
	reference rhf
	basis cc-pvtz
}

set_num_threads( 4 )
memory 2 gb

molecule MOL {
0 1

H	 -2.498963	 -0.741158	 -0.729149
O	 -2.346257	 -0.289210	 0.080372
C	 -1.183935	 0.486039	 -0.009831
C	 0.062853	 -0.375310	 0.027457
H	 -1.178881	 1.094526	 -0.908634
H	 -1.184406	 1.155156	 0.838676
O	 -0.172303	 -1.447594	 0.879724
H	 0.911700	 0.213645	 0.378863
H	 0.297735	 -0.718519	 -0.977836
C	 0.883781	 -2.344418	 0.987497
H	 1.777074	 -1.861466	 1.377444
H	 0.585365	 -3.126866	 1.669706
H	 1.125735	 -2.790665	 0.025809

	symmetry c1
}
set optking {
	frozen_dihedral = ("
		8 4 3 5
	")
}

ee,wfn = optimize('scf', return_wfn=True)
oeprop( wfn, 'DIPOLE', 'QUADRUPOLE', 'MULLIKEN_CHARGES')
f=open( 'psi4out.xyz', 'w' )
f.write( "13  " )
f.write( str(ee) + "\n" )
f.write( MOL.save_string_xyz() )
f.close()
--------------------------------------------------------------------------

    Molecular point group: c1
  Charge       = 0
  Multiplicity = 1
  Basis Set: CC-PVTZ
  Basis Set:
  @DF-RHF Final Energy:  -268.05469429975301
    Total Energy =                       -268.0546942997527822
    Molecular point group: c1
  Basis Set: CC-PVTZ
  Basis Set:
  Basis Set: CC-PVTZ
  Basis Set:
  @DF-RHF Final Energy:  -268.05587496643381
    Total Energy =                       -268.0558749664339189
  Basis Set: CC-PVTZ
  Basis Set:
  Basis Set: CC-PVTZ
  Basis Set:
  @DF-RHF Final Energy:  -268.05652360265731
    Total Energy =                       -268.0565236026571370
  Basis Set: CC-PVTZ
  Basis Set:
  Basis Set: CC-PVTZ
  Basis Set:
  @DF-RHF Final Energy:  -268.05661201184211
    Total Energy =                       -268.0566120118421622
  Basis Set: CC-PVTZ
  Basis Set:
  @DF-RHF Final Energy:  -268.05693337317592
    Total Energy =                       -268.0569333731758661
  @DF-RHF Final Energy:  -268.05724830957047
    Total Energy =                       -268.0572483095706389
  @DF-RHF Final Energy:  -268.05571921532203
    Total Energy =                       -268.0557192153221422
  @DF-RHF Final Energy:  -268.05816176289557
    Total Energy =                       -268.0581617628955087
  @DF-RHF Final Energy:  -268.06150227794717
    Total Energy =                       -268.0615022779473406
  @DF-RHF Final Energy:  -268.06182156431385
    Total Energy =                       -268.0618215643139592
  @DF-RHF Final Energy:  -268.06257897222724
    Total Energy =                       -268.0625789722272430
  @DF-RHF Final Energy:  -268.06145956925957
    Total Energy =                       -268.0614595692594548
  @DF-RHF Final Energy:  -268.06325213878085
    Total Energy =                       -268.0632521387808538
  Basis Set: CC-PVTZ
  Basis Set:
  @DF-RHF Final Energy:  -268.06317058968079
    Total Energy =                       -268.0631705896806807
  Basis Set: CC-PVTZ
  Basis Set:
  Basis Set: CC-PVTZ
  Basis Set:
  @DF-RHF Final Energy:  -268.06328240000897
    Total Energy =                       -268.0632824000089158
  Basis Set: CC-PVTZ
  Basis Set:
  Basis Set: CC-PVTZ
  Basis Set:
  @DF-RHF Final Energy:  -268.06328870465120
    Total Energy =                       -268.0632887046510859
  Basis Set: CC-PVTZ
  Basis Set:
  Charge       = 0
  Multiplicity = 1
  Basis Set: CC-PVTZ
  Basis Set:

    Orbital Energies (a.u.)
    -----------------------

    Doubly Occupied:

       1A    -20.562300     2A    -20.538273     3A    -11.274171
       4A    -11.272545     5A    -11.267008     6A     -1.399523
       7A     -1.355147     8A     -1.019976     9A     -0.923699
      10A     -0.836224    11A     -0.705032    12A     -0.685672
      13A     -0.667026    14A     -0.636038    15A     -0.587853
      16A     -0.578662    17A     -0.547509    18A     -0.494589
      19A     -0.482999    20A     -0.440439    21A     -0.426980

  @DF-RHF Final Energy:  -268.06329402075403

   => Energetics <=

    Nuclear Repulsion Energy =            195.3497760883622050
    One-Electron Energy =                -753.4228070484158479
    Two-Electron Energy =                 290.0097369392997848
    DFT Exchange-Correlation Energy =       0.0000000000000000
    Empirical Dispersion Energy =           0.0000000000000000
    PCM Polarization Energy =               0.0000000000000000
    EFP Energy =                            0.0000000000000000
    Total Energy =                       -268.0632940207538581
    Molecular point group: c1
  Basis Set: CC-PVTZ
  Basis Set:

  -Total Gradient:
     Atom            X                  Y                   Z
    ------   -----------------  -----------------  -----------------
       1       -0.000047646811    -0.000074686500     0.000024238816
       2        0.000073588445     0.000054322052    -0.000015718403
       3        0.003270922033     0.004383744683     0.005716754387
       4        0.001030260233     0.001902029828    -0.007522429803
       5       -0.002964855418    -0.003954949600    -0.003600122976
       6        0.000008310796    -0.000000270330     0.000006189509
       7        0.000015120213     0.000037353262    -0.000094800159
       8       -0.001391206612    -0.002245036143     0.005447942140
       9       -0.000012568074    -0.000058814684     0.000033949590
      10        0.000002519259    -0.000038937746    -0.000004018357
      11       -0.000002518644     0.000006429765     0.000000198361
      12        0.000011121634    -0.000006257423     0.000000513836
      13        0.000006952945    -0.000004927165     0.000007303060

  **** Optimization is complete! (in 17 steps) ****
    Final optimized geometry and variables:
    Molecular point group: c1

    Geometry (in Angstrom), charge = 0, multiplicity = 1:

    H           -1.729226106257    -0.176195666120     0.078853967391
    O           -1.765480857349     0.597938891565    -0.455361576475
    C           -0.597027519690     1.334369162315    -0.250093995165
    C            0.640150826636     0.452321238749    -0.295890141625
    H           -0.557076179023     2.044388509454    -1.065766903114
    H           -0.637678346204     1.870037999767     0.693532066726
    O            0.382311269148    -0.686063389635     0.473612203694
    H            1.482849371507     0.983117238525     0.142914638336
    H            0.878761718924     0.167171692091    -1.316909437726
    C            1.420878946199    -1.609780423146     0.511622210011
    H            2.319980271338    -1.177415073629     0.943952819377
    H            1.104066261120    -2.439962375227     1.125745412400
    H            1.658604094044    -1.978979389620    -0.482831686104

  Mulliken Charges: (a.u.)
   Center  Symbol    Alpha    Beta     Spin     Total
       1     H     0.38405  0.38405  0.00000  0.23190
       2     O     4.20962  4.20962  0.00000 -0.41924
       3     C     2.95955  2.95955  0.00000  0.08091
       4     C     2.97369  2.97369  0.00000  0.05262
       5     H     0.46153  0.46153  0.00000  0.07695
       6     H     0.47127  0.47127  0.00000  0.05747
       7     O     4.18572  4.18572  0.00000 -0.37144
       8     H     0.47121  0.47121  0.00000  0.05757
       9     H     0.46941  0.46941  0.00000  0.06117
      10     C     3.02955  3.02955  0.00000 -0.05909
      11     H     0.46916  0.46916  0.00000  0.06168
      12     H     0.44643  0.44643  0.00000  0.10715
      13     H     0.46882  0.46882  0.00000  0.06237

   Total alpha = 21.00000, Total beta = 21.00000, Total charge =  0.00000

*** Psi4 exiting successfully. Buy a developer a beer!
