  ==> Input File <==

--------------------------------------------------------------------------
set {
	reference rhf
	basis 6-31G*
}

set_num_threads( 4 )
memory 2 gb

molecule MOL {
0 1

H	 1.172349	 -1.435871	 -0.548484
O	 1.654024	 -0.625927	 -0.460906
C	 1.135793	 0.118896	 0.612333
C	 0.031547	 1.023609	 0.088541
H	 1.915668	 0.729681	 1.063582
H	 0.754543	 -0.542641	 1.387006
C	 -1.134819	 0.293262	 -0.585751
H	 0.474374	 1.714721	 -0.623187
H	 -0.338529	 1.620940	 0.920081
C	 -1.917817	 -0.639439	 0.339494
H	 -0.758119	 -0.268455	 -1.433105
H	 -1.813832	 1.041889	 -0.986690
H	 -2.777680	 -1.057197	 -0.174994
H	 -1.310268	 -1.471279	 0.680599
H	 -2.283753	 -0.111424	 1.216626

	symmetry c1
}
set optking {
	frozen_dihedral = ("
		1 2 3 4
	")
}

ee = optimize('scf')
oeprop('DIPOLE', 'QUADRUPOLE', 'MULLIKEN_CHARGES')
f=open( 'psi4out.xyz', 'w' )
f.write( "15  " )
f.write( str(ee) + "\n" )
f.write( MOL.save_string_xyz() )
f.close()
--------------------------------------------------------------------------

    Molecular point group: c1
  Charge       = 0
  Multiplicity = 1
  Basis Set: 6-31G*
  Basis Set:
  @DF-RHF Final Energy:  -232.14125905012904
    Total Energy =                       -232.1412590501292925
    Molecular point group: c1
  Basis Set: 6-31G*
  Basis Set:
  Basis Set: 6-31G*
  Basis Set:
  @DF-RHF Final Energy:  -232.14240145479019
    Total Energy =                       -232.1424014547901038
  Basis Set: 6-31G*
  Basis Set:
  Basis Set: 6-31G*
  Basis Set:
  @DF-RHF Final Energy:  -232.14272349640706
    Total Energy =                       -232.1427234964070863
  Basis Set: 6-31G*
  Basis Set:
  Basis Set: 6-31G*
  Basis Set:
  @DF-RHF Final Energy:  -232.14269524109761
    Total Energy =                       -232.1426952410977265
  Basis Set: 6-31G*
  Basis Set:
  Basis Set: 6-31G*
  Basis Set:
  @DF-RHF Final Energy:  -232.14272994822673
    Total Energy =                       -232.1427299482267017
  Basis Set: 6-31G*
  Basis Set:
  Charge       = 0
  Multiplicity = 1
  Basis Set: 6-31G*
  Basis Set:

    Orbital Energies (a.u.)
    -----------------------

    Doubly Occupied:

       1A    -20.552969     2A    -11.267370     3A    -11.219090
       4A    -11.215190     5A    -11.214067     6A     -1.359134
       7A     -1.069142     8A     -0.975050     9A     -0.877278
      10A     -0.783391    11A     -0.699530    12A     -0.644376
      13A     -0.613504    14A     -0.583542    15A     -0.567770
      16A     -0.544777    17A     -0.502201    18A     -0.492360
      19A     -0.474848    20A     -0.457962    21A     -0.425867

  @DF-RHF Final Energy:  -232.14273046844605

   => Energetics <=

    Nuclear Repulsion Energy =            191.4507180395183639
    One-Electron Energy =                -694.1080590992984298
    Two-Electron Energy =                 270.5146105913341330
    DFT Exchange-Correlation Energy =       0.0000000000000000
    Empirical Dispersion Energy =           0.0000000000000000
    PCM Polarization Energy =               0.0000000000000000
    EFP Energy =                            0.0000000000000000
    Total Energy =                       -232.1427304684459045
    Molecular point group: c1
  Basis Set: 6-31G*
  Basis Set:

  -Total Gradient:
     Atom            X                  Y                   Z
    ------   -----------------  -----------------  -----------------
       1        0.000682213870    -0.000472308514     0.000731769910
       2       -0.000648695271     0.000792853786    -0.000964146410
       3       -0.000478424927    -0.000869614979     0.000296226601
       4        0.000456192798     0.000494100871    -0.000117986966
       5       -0.000006271301     0.000015530313     0.000015649718
       6       -0.000019259878     0.000005515706     0.000009635990
       7        0.000014440936     0.000007258269    -0.000003126064
       8       -0.000010979688     0.000002190159    -0.000001193743
       9       -0.000012044341     0.000009189175    -0.000002381505
      10       -0.000003023926     0.000000638047     0.000010483477
      11        0.000008583550     0.000007361521     0.000007350516
      12        0.000013611130     0.000011601491     0.000009306377
      13        0.000005459525    -0.000003720286     0.000002218634
      14        0.000008342529     0.000001509395     0.000002258819
      15       -0.000010145009    -0.000002104956     0.000003934646

  **** Optimization is complete! (in 6 steps) ****
    Final optimized geometry and variables:
    Molecular point group: c1

    Geometry (in Angstrom), charge = 0, multiplicity = 1:

    H            1.299495501887    -1.441199611863    -0.565848799818
    O            1.748202171580    -0.617737202397    -0.445089691312
    C            1.144894233156     0.109447455818     0.597543754520
    C            0.026833038331     1.018919110560     0.098068525598
    H            1.926441447174     0.715609925578     1.039144904481
    H            0.787457657649    -0.560851987551     1.374944676194
    C           -1.143821223087     0.296756989363    -0.577828870243
    H            0.460727364554     1.720915356436    -0.608189531373
    H           -0.341931693437     1.604054519979     0.939489228403
    C           -1.944742531305    -0.621754294554     0.347945729159
    H           -0.770885399435    -0.270584613006    -1.426337841449
    H           -1.814468125845     1.044994860943    -0.991429046369
    H           -2.793842228817    -1.050980462503    -0.174571354714
    H           -1.347971108582    -1.447347129595     0.724943006913
    H           -2.326816900569    -0.076253338238     1.206394081004

  Mulliken Charges: (a.u.)
   Center  Symbol    Alpha    Beta     Spin     Total
       1     H     0.28011  0.28011  0.00000  0.43978
       2     O     4.37072  4.37072  0.00000 -0.74145
       3     C     3.00210  3.00210  0.00000 -0.00420
       4     C     3.15889  3.15889  0.00000 -0.31778
       5     H     0.41524  0.41524  0.00000  0.16953
       6     H     0.42939  0.42939  0.00000  0.14121
       7     C     3.16118  3.16118  0.00000 -0.32236
       8     H     0.41383  0.41383  0.00000  0.17235
       9     H     0.42597  0.42597  0.00000  0.14805
      10     C     3.24204  3.24204  0.00000 -0.48408
      11     H     0.41927  0.41927  0.00000  0.16147
      12     H     0.41772  0.41772  0.00000  0.16456
      13     H     0.41699  0.41699  0.00000  0.16602
      14     H     0.42641  0.42641  0.00000  0.14719
      15     H     0.42015  0.42015  0.00000  0.15971

   Total alpha = 21.00000, Total beta = 21.00000, Total charge =  0.00000
