  ==> Input File <==

--------------------------------------------------------------------------
set {
	reference rhf
	basis 6-31G*
}

set_num_threads( 4 )
memory 2 gb

molecule MOL {
0 1

O	 -2.712607	 0.917181	 0.195888
C	 -1.921153	 0.064240	 -0.045697
C	 -2.241077	 -1.245948	 -0.713082
O	 -0.632575	 0.154573	 0.251549
H	 -1.970020	 -2.066239	 -0.058407
H	 -3.295410	 -1.288263	 -0.942053
H	 -1.659231	 -1.345461	 -1.622098
C	 0.160891	 -1.019931	 0.106212
C	 1.589627	 -0.672828	 0.480843
H	 0.089836	 -1.367806	 -0.916050
H	 -0.238459	 -1.792301	 0.749618
C	 2.246377	 0.346236	 -0.452210
H	 2.163194	 -1.597435	 0.473358
H	 1.604769	 -0.303424	 1.502885
C	 3.691736	 0.652107	 -0.061850
H	 2.219579	 -0.032311	 -1.472055
H	 1.666466	 1.263317	 -0.447249
H	 4.134505	 1.377213	 -0.737283
H	 4.305508	 -0.243868	 -0.089969
H	 3.748266	 1.059562	 0.943567

	symmetry c1
}
set optking {
	frozen_dihedral = ("
		1 2 4 8
	")
}

ee = optimize('scf')
oeprop('DIPOLE', 'QUADRUPOLE', 'MULLIKEN_CHARGES')
f=open( 'psi4out.xyz', 'w' )
f.write( "20  " )
f.write( str(ee) + "\n" )
f.write( MOL.save_string_xyz() )
f.close()
--------------------------------------------------------------------------

    Molecular point group: c1
  Charge       = 0
  Multiplicity = 1
  Basis Set: 6-31G*
  Basis Set:
  @DF-RHF Final Energy:  -383.92034030912436
    Total Energy =                       -383.9203403091239579
    Molecular point group: c1
  Basis Set: 6-31G*
  Basis Set:
  Basis Set: 6-31G*
  Basis Set:
  @DF-RHF Final Energy:  -383.91903346946634
    Total Energy =                       -383.9190334694666262
  Basis Set: 6-31G*
  Basis Set:
  Basis Set: 6-31G*
  Basis Set:
  @DF-RHF Final Energy:  -383.92829585682142
    Total Energy =                       -383.9282958568210233
  Basis Set: 6-31G*
  Basis Set:
  Basis Set: 6-31G*
  Basis Set:
  @DF-RHF Final Energy:  -383.93059524239374
    Total Energy =                       -383.9305952423937924
  Basis Set: 6-31G*
  Basis Set:
  @DF-RHF Final Energy:  -383.92993816555912
    Total Energy =                       -383.9299381655591787
  @DF-RHF Final Energy:  -383.93092071976383
    Total Energy =                       -383.9309207197641172
  Basis Set: 6-31G*
  Basis Set:
  @DF-RHF Final Energy:  -383.93135467881871
    Total Energy =                       -383.9313546788187068
  Basis Set: 6-31G*
  Basis Set:
  Basis Set: 6-31G*
  Basis Set:
  @DF-RHF Final Energy:  -383.93134730553737
    Total Energy =                       -383.9313473055374288
  Basis Set: 6-31G*
  Basis Set:
  Basis Set: 6-31G*
  Basis Set:
  @DF-RHF Final Energy:  -383.93136117882761
    Total Energy =                       -383.9313611788276148
  Basis Set: 6-31G*
  Basis Set:
  Charge       = 0
  Multiplicity = 1
  Basis Set: 6-31G*
  Basis Set:

    Orbital Energies (a.u.)
    -----------------------

    Doubly Occupied:

       1A    -20.600211     2A    -20.538156     3A    -11.375946
       4A    -11.298070     5A    -11.242476     6A    -11.230959
       7A    -11.222079     8A    -11.214118     9A     -1.462353
      10A     -1.364195    11A     -1.087361    12A     -1.019680
      13A     -1.000903    14A     -0.889999    15A     -0.815250
      16A     -0.781098    17A     -0.698398    18A     -0.688937
      19A     -0.661112    20A     -0.633773    21A     -0.605729
      22A     -0.594740    23A     -0.579450    24A     -0.557622
      25A     -0.547308    26A     -0.537829    27A     -0.514618
      28A     -0.487628    29A     -0.478238    30A     -0.476115
      31A     -0.441001    32A     -0.431885

  @DF-RHF Final Energy:  -383.93136129729851

   => Energetics <=

    Nuclear Repulsion Energy =            384.7780246978170453
    One-Electron Energy =               -1285.2642996518561631
    Two-Electron Energy =                 516.5549136567408368
    DFT Exchange-Correlation Energy =       0.0000000000000000
    Empirical Dispersion Energy =           0.0000000000000000
    PCM Polarization Energy =               0.0000000000000000
    EFP Energy =                            0.0000000000000000
    Total Energy =                       -383.9313612972982810
    Molecular point group: c1
  Basis Set: 6-31G*
  Basis Set:

  -Total Gradient:
     Atom            X                  Y                   Z
    ------   -----------------  -----------------  -----------------
       1       -0.000233934868    -0.000401336913     0.000888687110
       2        0.000210308099     0.000456841987    -0.000766716761
       3        0.000001765777     0.000015341947    -0.000009536667
       4        0.000204217492     0.000153406813    -0.000985454814
       5        0.000002972798     0.000012193043     0.000001480897
       6       -0.000006741950    -0.000004787978    -0.000004811747
       7       -0.000000798330     0.000001486397     0.000003789846
       8       -0.000194565977    -0.000200097072     0.000906131271
       9        0.000004690067    -0.000025280267    -0.000027705185
      10        0.000001493091     0.000008849156     0.000003917461
      11        0.000011100087    -0.000015878101    -0.000004882862
      12        0.000005909886    -0.000013563499     0.000007405193
      13        0.000006980549    -0.000003380930    -0.000004826756
      14       -0.000003432036    -0.000006568630    -0.000006486056
      15       -0.000003037532     0.000012602957     0.000002592095
      16        0.000004155667     0.000001932224     0.000001927345
      17       -0.000010762455     0.000003713169    -0.000008900418
      18        0.000001980983     0.000002862456     0.000001687292
      19       -0.000006051541     0.000000845196    -0.000000963889
      20        0.000003750193     0.000000818044     0.000002666645

  **** Optimization is complete! (in 10 steps) ****
    Final optimized geometry and variables:
    Molecular point group: c1

    Geometry (in Angstrom), charge = 0, multiplicity = 1:

    O           -2.599009893353     1.062634902319     0.238581542992
    C           -1.928998204459     0.125084590909    -0.033305257408
    C           -2.487640260437    -1.105221113599    -0.711502912083
    O           -0.625897046853     0.148276188539     0.249822771599
    H           -2.341264297530    -1.992989746540    -0.106932630698
    H           -3.544063387317    -0.949841331855    -0.867339807227
    H           -2.003925183078    -1.270486467194    -1.667921577990
    C            0.211728554284    -0.989742823008     0.153472043596
    C            1.618279318531    -0.566248873013     0.538296927739
    H            0.198039427397    -1.382085322824    -0.857362683686
    H           -0.144180519263    -1.762600831722     0.825610018370
    C            2.234807258701     0.459022019969    -0.414645723470
    H            2.235860195704    -1.461794956335     0.566864649585
    H            1.593008499775    -0.166472313698     1.547725039762
    C            3.651472059065     0.858847174674    -0.004547579830
    H            2.253302879744     0.046962974642    -1.422009944964
    H            1.602448184166     1.339204722358    -0.449693185582
    H            4.067206350927     1.584764115797    -0.695829768114
    H            4.315933437553    -0.000720759851     0.012103029016
    H            3.660895717206     1.303623660709     0.986247456394

  Mulliken Charges: (a.u.)
   Center  Symbol    Alpha    Beta     Spin     Total
       1     O     4.26661  4.26661  0.00000 -0.53323
       2     C     2.61287  2.61287  0.00000  0.77425
       3     C     3.30929  3.30929  0.00000 -0.61857
       4     O     4.30359  4.30359  0.00000 -0.60718
       5     H     0.40392  0.40392  0.00000  0.19217
       6     H     0.38751  0.38751  0.00000  0.22498
       7     H     0.40198  0.40198  0.00000  0.19605
       8     C     3.00334  3.00334  0.00000 -0.00668
       9     C     3.16121  3.16121  0.00000 -0.32242
      10     H     0.42005  0.42005  0.00000  0.15991
      11     H     0.41595  0.41595  0.00000  0.16809
      12     C     3.15693  3.15693  0.00000 -0.31386
      13     H     0.41960  0.41960  0.00000  0.16080
      14     H     0.40919  0.40919  0.00000  0.18162
      15     C     3.24086  3.24086  0.00000 -0.48172
      16     H     0.42539  0.42539  0.00000  0.14922
      17     H     0.40377  0.40377  0.00000  0.19245
      18     H     0.41641  0.41641  0.00000  0.16717
      19     H     0.42283  0.42283  0.00000  0.15433
      20     H     0.41869  0.41869  0.00000  0.16262

   Total alpha = 32.00000, Total beta = 32.00000, Total charge = -0.00000
