  ==> Input File <==

--------------------------------------------------------------------------
set {
	reference rhf
	basis cc-pvtz
}

set_num_threads( 4 )
memory 2 gb

molecule MOL {
0 1

H	 -2.816458	 -0.841657	 -0.064679
N	 -1.878861	 -0.711874	 0.250184
C	 -1.341419	 0.551458	 -0.220231
H	 -1.333674	 -1.468530	 -0.105118
C	 -2.187207	 1.703403	 0.272023
H	 -0.311159	 0.725600	 0.087634
H	 -1.361859	 0.555210	 -1.304491
O	 -2.099052	 1.764150	 1.663514
H	 -1.833225	 2.635499	 -0.166231
H	 -3.220623	 1.554321	 -0.032535
C	 -2.890388	 2.744249	 2.248675
H	 -2.739101	 2.699357	 3.317545
H	 -2.616964	 3.737489	 1.898806
H	 -3.944783	 2.583264	 2.036782

	symmetry c1
}
set optking {
	frozen_dihedral = ("
		6 3 2 4
	")
}

ee = optimize('scf')
oeprop('DIPOLE', 'QUADRUPOLE', 'MULLIKEN_CHARGES')
f=open( 'psi4out.xyz', 'w' )
f.write( "14  " )
f.write( str(ee) + "\n" )
f.write( MOL.save_string_xyz() )
f.close()
--------------------------------------------------------------------------

    Molecular point group: c1
  Charge       = 0
  Multiplicity = 1
  Basis Set: CC-PVTZ
  Basis Set:
  @DF-RHF Final Energy:  -248.21914512019370
    Total Energy =                       -248.2191451201937866
    Molecular point group: c1
  Basis Set: CC-PVTZ
  Basis Set:
  Basis Set: CC-PVTZ
  Basis Set:
  @DF-RHF Final Energy:  -248.22113238269932
    Total Energy =                       -248.2211323826994089
  Basis Set: CC-PVTZ
  Basis Set:
  Basis Set: CC-PVTZ
  Basis Set:
  @DF-RHF Final Energy:  -248.22136507454778
    Total Energy =                       -248.2213650745479185
  Basis Set: CC-PVTZ
  Basis Set:
  Basis Set: CC-PVTZ
  Basis Set:
  @DF-RHF Final Energy:  -248.22137705202238
    Total Energy =                       -248.2213770520225466
  Basis Set: CC-PVTZ
  Basis Set:
  Charge       = 0
  Multiplicity = 1
  Basis Set: CC-PVTZ
  Basis Set:

    Orbital Energies (a.u.)
    -----------------------

    Doubly Occupied:

       1A    -20.544559     2A    -15.526261     3A    -11.265903
       4A    -11.259827     5A    -11.241578     6A     -1.381056
       7A     -1.178065     8A     -1.000285     9A     -0.904239
      10A     -0.819304    11A     -0.683830    12A     -0.667745
      13A     -0.650808    14A     -0.617604    15A     -0.594652
      16A     -0.558009    17A     -0.520511    18A     -0.501692
      19A     -0.465555    20A     -0.416699    21A     -0.384000

  @DF-RHF Final Energy:  -248.22137806222528

   => Energetics <=

    Nuclear Repulsion Energy =            193.5750767130985253
    One-Electron Energy =                -721.2285407208107699
    Two-Electron Energy =                 279.4320859454869606
    DFT Exchange-Correlation Energy =       0.0000000000000000
    Empirical Dispersion Energy =           0.0000000000000000
    PCM Polarization Energy =               0.0000000000000000
    EFP Energy =                            0.0000000000000000
    Total Energy =                       -248.2213780622253125
    Molecular point group: c1
  Basis Set: CC-PVTZ
  Basis Set:

  -Total Gradient:
     Atom            X                  Y                   Z
    ------   -----------------  -----------------  -----------------
       1        0.000020507023     0.000002208893     0.000017119864
       2        0.000502347164     0.000221396173     0.000952135287
       3        0.000190677547    -0.000450552565    -0.000863059168
       4       -0.000452679430    -0.000041700446    -0.000694459528
       5       -0.000014016868    -0.000061956679     0.000048614130
       6       -0.000258057212     0.000325076308     0.000637813989
       7       -0.000023715488    -0.000002757235    -0.000002513872
       8        0.000037210799    -0.000006358757    -0.000073112832
       9        0.000016939843     0.000013011570     0.000035586959
      10       -0.000026938248    -0.000007714390    -0.000038602116
      11        0.000019898081     0.000030376269    -0.000018776963
      12       -0.000001180456    -0.000011568765    -0.000006179428
      13       -0.000006361198    -0.000000694756     0.000006314633
      14       -0.000004631558    -0.000008765621    -0.000000880953

  **** Optimization is complete! (in 5 steps) ****
    Final optimized geometry and variables:
    Molecular point group: c1

    Geometry (in Angstrom), charge = 0, multiplicity = 1:

    H           -0.698540739432    -2.107259352971    -1.024924039584
    N            0.214747820451    -1.956617687854    -0.649858702097
    C            0.735872389935    -0.665214206948    -1.058778354560
    H            0.794053157165    -2.696757942422    -0.984510599673
    C           -0.114370292584     0.476800888075    -0.542142274180
    H            1.732279803557    -0.552153287786    -0.649353511469
    H            0.811068782625    -0.554829092236    -2.141312916344
    O            0.009572923547     0.586748321059     0.836554582009
    H            0.205391493179     1.401686824587    -1.022066800706
    H           -1.158195662715     0.315967794460    -0.817795307694
    C           -0.777657933995     1.577248203847     1.405841542726
    H           -0.593022906107     1.575801945737     2.470213854998
    H           -0.532903471344     2.561396072379     1.009953239693
    H           -1.836520342365     1.393337841222     1.235205480392

  Mulliken Charges: (a.u.)
   Center  Symbol    Alpha    Beta     Spin     Total
       1     H     0.43373  0.43373  0.00000  0.13254
       2     N     3.68244  3.68244  0.00000 -0.36488
       3     C     3.02173  3.02173  0.00000 -0.04347
       4     H     0.43008  0.43008  0.00000  0.13985
       5     C     2.96470  2.96470  0.00000  0.07060
       6     H     0.45476  0.45476  0.00000  0.09047
       7     H     0.47008  0.47008  0.00000  0.05984
       8     O     4.16573  4.16573  0.00000 -0.33146
       9     H     0.47198  0.47198  0.00000  0.05604
      10     H     0.47978  0.47978  0.00000  0.04044
      11     C     3.03201  3.03201  0.00000 -0.06403
      12     H     0.44636  0.44636  0.00000  0.10728
      13     H     0.47392  0.47392  0.00000  0.05216
      14     H     0.47269  0.47269  0.00000  0.05462

   Total alpha = 21.00000, Total beta = 21.00000, Total charge = -0.00000
