  ==> Input File <==

--------------------------------------------------------------------------
set {
	reference rhf
	basis 6-31G*
}

set_num_threads( 4 )
memory 2 gb

molecule MOL {
0 1

H	 -2.476473	 2.228837	 -2.041822
C	 -3.137564	 2.015981	 -1.192544
C	 -2.660244	 0.921717	 -0.272021
O	 -4.145411	 2.629334	 -1.051855
C	 -1.220012	 1.144545	 0.209990
H	 -3.351849	 0.848010	 0.559218
H	 -2.710208	 -0.011515	 -0.831697
C	 -0.252658	 0.041456	 -0.226725
H	 -0.873521	 2.100229	 -0.171974
H	 -1.211708	 1.231594	 1.295398
C	 1.180775	 0.282413	 0.250794
H	 -0.266029	 -0.034465	 -1.312038
H	 -0.597733	 -0.921000	 0.146291
C	 2.148627	 -0.814315	 -0.201312
H	 1.516199	 1.249228	 -0.115937
H	 1.192670	 0.346017	 1.338083
C	 3.580890	 -0.659131	 0.322722
H	 2.166869	 -0.852443	 -1.289387
H	 1.762857	 -1.776509	 0.128956
C	 4.324889	 0.564933	 -0.213704
H	 4.142010	 -1.551473	 0.056605
H	 3.564836	 -0.624694	 1.410140
H	 4.342616	 0.565491	 -1.300421
H	 3.866655	 1.493402	 0.110242
H	 5.353900	 0.572371	 0.132816

	symmetry c1
}
set optking {
	frozen_dihedral = ("
		6 3 5 8
	")
}

ee = optimize('scf')
oeprop('DIPOLE', 'QUADRUPOLE', 'MULLIKEN_CHARGES')
f=open( 'psi4out.xyz', 'w' )
f.write( "25  " )
f.write( str(ee) + "\n" )
f.write( MOL.save_string_xyz() )
f.close()
--------------------------------------------------------------------------

    Molecular point group: c1
  Charge       = 0
  Multiplicity = 1
  Basis Set: 6-31G*
  Basis Set:
  @DF-RHF Final Energy:  -387.11729248884001
    Total Energy =                       -387.1172924888397802
    Molecular point group: c1
  Basis Set: 6-31G*
  Basis Set:
  Basis Set: 6-31G*
  Basis Set:
  @DF-RHF Final Energy:  -387.11754124203463
    Total Energy =                       -387.1175412420345765
  Basis Set: 6-31G*
  Basis Set:
  Basis Set: 6-31G*
  Basis Set:
  @DF-RHF Final Energy:  -387.11735820273032
    Total Energy =                       -387.1173582027307702
  Basis Set: 6-31G*
  Basis Set:
  Basis Set: 6-31G*
  Basis Set:
  @DF-RHF Final Energy:  -387.11762553904032
    Total Energy =                       -387.1176255390404322
  Basis Set: 6-31G*
  Basis Set:
  @DF-RHF Final Energy:  -387.11764155937522
    Total Energy =                       -387.1176415593747606
  Basis Set: 6-31G*
  Basis Set:
  @DF-RHF Final Energy:  -387.11764648758020
    Total Energy =                       -387.1176464875806005
  Basis Set: 6-31G*
  Basis Set:
  Basis Set: 6-31G*
  Basis Set:
  @DF-RHF Final Energy:  -387.11765019774759
    Total Energy =                       -387.1176501977477074
  Basis Set: 6-31G*
  Basis Set:
  Basis Set: 6-31G*
  Basis Set:
  @DF-RHF Final Energy:  -387.11765151542431
    Total Energy =                       -387.1176515154247681
  Basis Set: 6-31G*
  Basis Set:
  Charge       = 0
  Multiplicity = 1
  Basis Set: 6-31G*
  Basis Set:

    Orbital Energies (a.u.)
    -----------------------

    Doubly Occupied:

       1A    -20.561588     2A    -11.326567     3A    -11.235537
       4A    -11.234520     5A    -11.227418     6A    -11.221643
       7A    -11.220137     8A    -11.219534     9A    -11.212232
      10A     -1.401994    11A     -1.104391    12A     -1.069917
      13A     -1.014874    14A     -0.945078    15A     -0.876307
      16A     -0.817359    17A     -0.794061    18A     -0.783140
      19A     -0.668712    20A     -0.662420    21A     -0.633738
      22A     -0.621325    23A     -0.602240    24A     -0.597334
      25A     -0.572160    26A     -0.556509    27A     -0.539764
      28A     -0.521096    29A     -0.509850    30A     -0.500332
      31A     -0.485637    32A     -0.478034    33A     -0.466728
      34A     -0.461123    35A     -0.448628    36A     -0.408336

  @DF-RHF Final Energy:  -387.11765154447403

   => Energetics <=

    Nuclear Repulsion Energy =            432.5576819996996392
    One-Electron Energy =               -1381.3501416836295448
    Two-Electron Energy =                 561.6748081394568999
    DFT Exchange-Correlation Energy =       0.0000000000000000
    Empirical Dispersion Energy =           0.0000000000000000
    PCM Polarization Energy =               0.0000000000000000
    EFP Energy =                            0.0000000000000000
    Total Energy =                       -387.1176515444730057
    Molecular point group: c1
  Basis Set: 6-31G*
  Basis Set:

  -Total Gradient:
     Atom            X                  Y                   Z
    ------   -----------------  -----------------  -----------------
       1       -0.000000910557    -0.000000689272     0.000008849672
       2        0.000000580677    -0.000021417985     0.000000462893
       3        0.000004680375    -0.000084787969    -0.000045216507
       4       -0.000010421024     0.000014000850    -0.000007012325
       5        0.000002372746    -0.000004748124     0.000022695642
       6       -0.000005784116     0.000083573059     0.000015384425
       7        0.000013199254     0.000012870773    -0.000001162574
       8       -0.000013618806     0.000051599563    -0.000051409973
       9       -0.000029305675    -0.000034634625    -0.000003150844
      10        0.000016613617    -0.000003463923     0.000038543007
      11        0.000016117483    -0.000005136607     0.000003776234
      12       -0.000009951078     0.000011963264     0.000014299944
      13        0.000009254415    -0.000003959392    -0.000013625094
      14       -0.000000853369    -0.000013094771     0.000025174446
      15        0.000030468427     0.000020385090     0.000000226408
      16       -0.000000192030    -0.000002775752    -0.000007799954
      17        0.000015570919    -0.000022644323    -0.000024844379
      18       -0.000003743649    -0.000020718225     0.000006028585
      19       -0.000011841530     0.000009915613     0.000014485446
      20       -0.000019943101     0.000005289769     0.000011040362
      21        0.000014500599     0.000009989270    -0.000012352225
      22        0.000006832997    -0.000018879273    -0.000003563145
      23        0.000002611811    -0.000006435765     0.000006400432
      24       -0.000027570210     0.000015751264    -0.000005163774
      25        0.000001331835     0.000008047486     0.000007933300

  **** Optimization is complete! (in 9 steps) ****
    Final optimized geometry and variables:
    Molecular point group: c1

    Geometry (in Angstrom), charge = 0, multiplicity = 1:

    H           -2.458779810389     1.594052858773    -1.724684454730
    C           -3.143010867379     1.322549634327    -0.911261626258
    C           -2.643682126631     0.237771194973     0.009492973082
    O           -4.193544621388     1.867181909897    -0.807562630157
    C           -1.186825648546     0.470480780464     0.474271297525
    H           -3.332639905777     0.167895764828     0.841777423590
    H           -2.711728017312    -0.698350272864    -0.542580423032
    C           -0.218477618524    -0.631054790486     0.037035092196
    H           -0.825170612410     1.425629076141     0.097599828766
    H           -1.169134738734     0.557063968509     1.555860089833
    C            1.215684949513    -0.395327013635     0.512947234476
    H           -0.230829754667    -0.709388544872    -1.049111911647
    H           -0.573672214864    -1.587993397473     0.414919480012
    C            2.177864186818    -1.501084183354     0.070348158079
    H            1.557832870956     0.567114944887     0.140971374111
    H            1.225757236948    -0.324838454372     1.599569713790
    C            3.608843371009    -1.353765652504     0.600069842391
    H            2.201555395547    -1.543732108212    -1.017487425818
    H            1.783822113605    -2.459278748048     0.402744939697
    C            4.360122636650    -0.131098575198     0.070128323246
    H            4.167054283711    -2.248006714430     0.334330445558
    H            3.587876958111    -1.321968234477     1.687492675159
    H            4.386879654822    -0.130164359872    -1.016306580061
    H            3.901954189754     0.798600537222     0.390863291410
    H            5.386164811559    -0.126446569830     0.424680732608

  Mulliken Charges: (a.u.)
   Center  Symbol    Alpha    Beta     Spin     Total
       1     H     0.43212  0.43212  0.00000  0.13575
       2     C     2.83152  2.83152  0.00000  0.33696
       3     C     3.21084  3.21084  0.00000 -0.42168
       4     O     4.23857  4.23857  0.00000 -0.47715
       5     C     3.16754  3.16754  0.00000 -0.33509
       6     H     0.39646  0.39646  0.00000  0.20708
       7     H     0.40464  0.40464  0.00000  0.19073
       8     C     3.15427  3.15427  0.00000 -0.30855
       9     H     0.41681  0.41681  0.00000  0.16639
      10     H     0.41036  0.41036  0.00000  0.17928
      11     C     3.15525  3.15525  0.00000 -0.31049
      12     H     0.42291  0.42291  0.00000  0.15418
      13     H     0.42000  0.42000  0.00000  0.15999
      14     C     3.15291  3.15291  0.00000 -0.30581
      15     H     0.42037  0.42037  0.00000  0.15926
      16     H     0.42242  0.42242  0.00000  0.15515
      17     C     3.15267  3.15267  0.00000 -0.30534
      18     H     0.42379  0.42379  0.00000  0.15241
      19     H     0.42168  0.42168  0.00000  0.15665
      20     C     3.24155  3.24155  0.00000 -0.48309
      21     H     0.42008  0.42008  0.00000  0.15985
      22     H     0.42278  0.42278  0.00000  0.15443
      23     H     0.42206  0.42206  0.00000  0.15589
      24     H     0.42013  0.42013  0.00000  0.15973
      25     H     0.41826  0.41826  0.00000  0.16347

   Total alpha = 36.00000, Total beta = 36.00000, Total charge = -0.00000
