  ==> Input File <==

--------------------------------------------------------------------------
set {
	reference rhf
	basis 6-31G*
}

set_num_threads( 4 )
memory 2 gb

molecule MOL {
0 1

O	 1.973631	 1.065506	 -0.661042
C	 1.705091	 0.115954	 0.001797
C	 0.381791	 -0.609817	 0.001258
O	 2.560489	 -0.444824	 0.847349
C	 -0.823008	 0.326187	 0.001381
H	 0.371250	 -1.265087	 -0.865474
H	 0.370908	 -1.265746	 0.867490
C	 -2.149452	 -0.435131	 -0.000098
H	 -0.770201	 0.977095	 -0.865636
H	 -0.771220	 0.975655	 0.869608
C	 -3.368779	 0.488503	 -0.000883
H	 -2.193746	 -1.087250	 -0.871175
H	 -2.195311	 -1.087803	 0.870418
C	 -4.693822	 -0.272754	 -0.001129
H	 -3.325798	 1.139422	 -0.871284
H	 -3.326423	 1.139959	 0.869145
H	 -4.781274	 -0.907928	 -0.878124
H	 -5.538651	 0.408946	 -0.001420
H	 -4.781694	 -0.907783	 0.875984
C	 3.846213	 0.140520	 0.943482
H	 4.350086	 0.109938	 -0.011874
H	 4.384960	 -0.448189	 1.669463
H	 3.772905	 1.166761	 1.273575

	symmetry c1
}
set optking {
	frozen_dihedral = ("
		1 2 3 6
	")
}

ee = optimize('scf')
oeprop('DIPOLE', 'QUADRUPOLE', 'MULLIKEN_CHARGES')
f=open( 'psi4out.xyz', 'w' )
f.write( "23  " )
f.write( str(ee) + "\n" )
f.write( MOL.save_string_xyz() )
f.close()
--------------------------------------------------------------------------

    Molecular point group: c1
  Charge       = 0
  Multiplicity = 1
  Basis Set: 6-31G*
  Basis Set:
  @DF-RHF Final Energy:  -422.97485751636503
    Total Energy =                       -422.9748575163648638
    Molecular point group: c1
  Basis Set: 6-31G*
  Basis Set:
  Basis Set: 6-31G*
  Basis Set:
  @DF-RHF Final Energy:  -422.97499918862678
    Total Energy =                       -422.9749991886264979
  Basis Set: 6-31G*
  Basis Set:
  Basis Set: 6-31G*
  Basis Set:
  @DF-RHF Final Energy:  -422.97527417142504
    Total Energy =                       -422.9752741714256672
  Basis Set: 6-31G*
  Basis Set:
  Basis Set: 6-31G*
  Basis Set:
  @DF-RHF Final Energy:  -422.97536048949581
    Total Energy =                       -422.9753604894967793
  Basis Set: 6-31G*
  Basis Set:
  Charge       = 0
  Multiplicity = 1
  Basis Set: 6-31G*
  Basis Set:

    Orbital Energies (a.u.)
    -----------------------

    Doubly Occupied:

       1A    -20.605533     2A    -20.543215     3A    -11.371997
       4A    -11.280853     5A    -11.234585     6A    -11.222382
       7A    -11.218915     8A    -11.217367     9A    -11.210228
      10A     -1.469737    11A     -1.361908    12A     -1.093906
      13A     -1.043558    14A     -0.986928    15A     -0.932985
      16A     -0.844048    17A     -0.795866    18A     -0.769716
      19A     -0.695949    20A     -0.682229    21A     -0.671787
      22A     -0.652575    23A     -0.608288    24A     -0.598698
      25A     -0.573852    26A     -0.566788    27A     -0.548758
      28A     -0.526470    29A     -0.523739    30A     -0.506370
      31A     -0.485350    32A     -0.471743    33A     -0.466851
      34A     -0.462440    35A     -0.454784    36A     -0.432793

  @DF-RHF Final Energy:  -422.97536109578806

   => Energetics <=

    Nuclear Repulsion Energy =            452.3497600501277134
    One-Electron Energy =               -1472.3838569805354837
    Two-Electron Energy =                 597.0587358346194833
    DFT Exchange-Correlation Energy =       0.0000000000000000
    Empirical Dispersion Energy =           0.0000000000000000
    PCM Polarization Energy =               0.0000000000000000
    EFP Energy =                            0.0000000000000000
    Total Energy =                       -422.9753610957882302
    Molecular point group: c1
  Basis Set: 6-31G*
  Basis Set:

  -Total Gradient:
     Atom            X                  Y                   Z
    ------   -----------------  -----------------  -----------------
       1        0.000303781857    -0.000648201494    -0.000679710336
       2       -0.000591989758     0.001117613239     0.000822458980
       3        0.000612619741    -0.001060092721     0.000306718372
       4        0.000059861748    -0.000040230317     0.000093410796
       5        0.000030552280     0.000001380420    -0.000057460053
       6       -0.000397124114     0.000698918312    -0.000492864274
       7        0.000010391337    -0.000016771580     0.000006878712
       8       -0.000000979412    -0.000015259772     0.000025408465
       9       -0.000011523413     0.000011797392    -0.000009000687
      10        0.000024679549    -0.000023420858     0.000007405504
      11        0.000006851038    -0.000001413816    -0.000008954262
      12        0.000010487805     0.000004766095     0.000006243975
      13       -0.000012817377    -0.000008819911     0.000005201289
      14       -0.000004617657     0.000002709229     0.000002019482
      15       -0.000003113894     0.000002870199    -0.000001896788
      16       -0.000002463879    -0.000002049873    -0.000002139044
      17        0.000001135470     0.000002771390     0.000000869920
      18       -0.000003073775    -0.000001119301     0.000000847149
      19        0.000001053063    -0.000000455018    -0.000000482201
      20       -0.000047670793    -0.000050795423    -0.000048103885
      21        0.000015020004     0.000008884155     0.000009106744
      22        0.000005535162     0.000005573646     0.000008308549
      23       -0.000006594984     0.000011346007     0.000005733595

  **** Optimization is complete! (in 5 steps) ****
    Final optimized geometry and variables:
    Molecular point group: c1

    Geometry (in Angstrom), charge = 0, multiplicity = 1:

    O            1.936737723498     1.029924562025    -0.746072785139
    C            1.718044681441     0.071271253492    -0.076516935668
    C            0.403174224286    -0.671028330608    -0.043944394519
    O            2.629087617026    -0.488356323997     0.706902374612
    C           -0.801790077646     0.271377783367    -0.083267771863
    H            0.391893289325    -1.312786838920    -0.922208370232
    H            0.377202239304    -1.315576910679     0.825635134347
    C           -2.130206218375    -0.484415127715    -0.130179957176
    H           -0.711822000039     0.921252204966    -0.946417314817
    H           -0.781593347195     0.916005178610     0.792431243077
    C           -3.345178445385     0.444310166972    -0.165051038401
    H           -2.147166409574    -1.129815787832    -1.007052389293
    H           -2.206379934146    -1.142477937101     0.733955726194
    C           -4.672192870092    -0.311783860716    -0.217127134694
    H           -3.269693263127     1.102056075753    -1.027954377973
    H           -3.330831010020     1.088250836378     0.711557851644
    H           -4.731891915141    -0.938806331162    -1.102254624820
    H           -5.514000775270     0.373188341635    -0.240169175391
    H           -4.792204821063    -0.954120863458     0.650786823002
    C            3.917475019134     0.099864755570     0.714182451778
    H            4.352733661729     0.073344508262    -0.274388901667
    H            4.506932506958    -0.489720415207     1.398898936473
    H            3.864410594666     1.124890365519     1.051522175381

  Mulliken Charges: (a.u.)
   Center  Symbol    Alpha    Beta     Spin     Total
       1     O     4.28699  4.28699  0.00000 -0.57399
       2     C     2.60444  2.60444  0.00000  0.79113
       3     C     3.20816  3.20816  0.00000 -0.41631
       4     O     4.30556  4.30556  0.00000 -0.61111
       5     C     3.15872  3.15872  0.00000 -0.31743
       6     H     0.40064  0.40064  0.00000  0.19872
       7     H     0.40033  0.40033  0.00000  0.19934
       8     C     3.15272  3.15272  0.00000 -0.30545
       9     H     0.40356  0.40356  0.00000  0.19288
      10     H     0.41758  0.41758  0.00000  0.16484
      11     C     3.15193  3.15193  0.00000 -0.30385
      12     H     0.42295  0.42295  0.00000  0.15410
      13     H     0.42343  0.42343  0.00000  0.15313
      14     C     3.23968  3.23968  0.00000 -0.47936
      15     H     0.42064  0.42064  0.00000  0.15873
      16     H     0.42198  0.42198  0.00000  0.15604
      17     H     0.42144  0.42144  0.00000  0.15712
      18     H     0.41837  0.41837  0.00000  0.16326
      19     H     0.42178  0.42178  0.00000  0.15644
      20     C     3.09346  3.09346  0.00000 -0.18692
      21     H     0.40887  0.40887  0.00000  0.18226
      22     H     0.40837  0.40837  0.00000  0.18327
      23     H     0.40842  0.40842  0.00000  0.18316

   Total alpha = 36.00000, Total beta = 36.00000, Total charge =  0.00000
