  ==> Input File <==

--------------------------------------------------------------------------
set {
	reference rhf
	basis cc-pvtz
}

set_num_threads( 4 )
memory 2 gb

molecule MOL {
0 1

H	 -1.835082	 1.385983	 0.000069
C	 -1.300516	 0.441153	 -0.000028
O	 -0.006604	 0.654344	 -0.000106
O	 -1.828920	 -0.612308	 0.000113
C	 0.454322	 1.931497	 -0.431674
C	 1.961919	 1.931723	 -0.343044
H	 0.017287	 2.692109	 0.199538
H	 0.113942	 2.102187	 -1.443093
H	 2.288321	 1.755913	 0.674071
H	 2.345598	 2.892294	 -0.665451
H	 2.385465	 1.163003	 -0.976801

	symmetry c1
}
set optking {
	frozen_dihedral = ("
		5 3 2 4
	")
}

ee = optimize('scf')
oeprop('DIPOLE', 'QUADRUPOLE', 'MULLIKEN_CHARGES')
f=open( 'psi4out.xyz', 'w' )
f.write( "11  " )
f.write( str(ee) + "\n" )
f.write( MOL.save_string_xyz() )
f.close()
--------------------------------------------------------------------------

    Molecular point group: c1
  Charge       = 0
  Multiplicity = 1
  Basis Set: CC-PVTZ
  Basis Set:
  @DF-RHF Final Energy:  -266.92149364605410
    Total Energy =                       -266.9214936460540457
    Molecular point group: c1
  Basis Set: CC-PVTZ
  Basis Set:
  Basis Set: CC-PVTZ
  Basis Set:
  @DF-RHF Final Energy:  -266.92248328826867
    Total Energy =                       -266.9224832882687224
  Basis Set: CC-PVTZ
  Basis Set:
  Basis Set: CC-PVTZ
  Basis Set:
  @DF-RHF Final Energy:  -266.92235730428990
    Total Energy =                       -266.9223573042900171
  Basis Set: CC-PVTZ
  Basis Set:
  Basis Set: CC-PVTZ
  Basis Set:
  @DF-RHF Final Energy:  -266.92271738458749
    Total Energy =                       -266.9227173845873722
  Basis Set: CC-PVTZ
  Basis Set:
  Basis Set: CC-PVTZ
  Basis Set:
  @DF-RHF Final Energy:  -266.92273444047703
    Total Energy =                       -266.9227344404771429
  Basis Set: CC-PVTZ
  Basis Set:
  Basis Set: CC-PVTZ
  Basis Set:
  @DF-RHF Final Energy:  -266.92273608056666
    Total Energy =                       -266.9227360805666649
  Basis Set: CC-PVTZ
  Basis Set:
  Charge       = 0
  Multiplicity = 1
  Basis Set: CC-PVTZ
  Basis Set:

    Orbital Energies (a.u.)
    -----------------------

    Doubly Occupied:

       1A    -20.604186     2A    -20.545462     3A    -11.371840
       4A    -11.304514     5A    -11.231860     6A     -1.476358
       7A     -1.383535     8A     -1.056291     9A     -0.890262
      10A     -0.847683    11A     -0.741116    12A     -0.696624
      13A     -0.669383    14A     -0.611335    15A     -0.574270
      16A     -0.562370    17A     -0.536028    18A     -0.519943
      19A     -0.461647    20A     -0.453321

  @DF-RHF Final Energy:  -266.92273629113697

   => Energetics <=

    Nuclear Repulsion Energy =            176.6711236240128926
    One-Electron Energy =                -714.1116640092861871
    Two-Electron Energy =                 270.5178040941362951
    DFT Exchange-Correlation Energy =       0.0000000000000000
    Empirical Dispersion Energy =           0.0000000000000000
    PCM Polarization Energy =               0.0000000000000000
    EFP Energy =                            0.0000000000000000
    Total Energy =                       -266.9227362911369710
    Molecular point group: c1
  Basis Set: CC-PVTZ
  Basis Set:

  -Total Gradient:
     Atom            X                  Y                   Z
    ------   -----------------  -----------------  -----------------
       1       -0.000006205070    -0.000007261764     0.000000863249
       2        0.000503122644    -0.000879016525     0.003428793505
       3        0.000276788633     0.001055118724     0.002127398420
       4       -0.000469826085     0.000417526354    -0.003119467830
       5       -0.000291684280    -0.000565540388    -0.002456928030
       6       -0.000007863190    -0.000019852907     0.000010868133
       7        0.000002920858    -0.000010473333     0.000008285182
       8        0.000006941101     0.000015654124    -0.000003659723
       9        0.000002491238    -0.000001115973     0.000004426220
      10       -0.000017673679    -0.000004140647     0.000000475809
      11        0.000000987828    -0.000000897663    -0.000001054935

  **** Optimization is complete! (in 7 steps) ****
    Final optimized geometry and variables:
    Molecular point group: c1

    Geometry (in Angstrom), charge = 0, multiplicity = 1:

    H           -1.697031981240     0.519104372661     0.419413597587
    C           -1.159668430580    -0.410728404863     0.226487308755
    O            0.136004218259    -0.246235986629     0.039652164770
    O           -1.690132847526    -1.455655020161     0.187967041886
    C            0.605355298345     1.041080349626    -0.318189542142
    C            2.104644032401     1.068566372337    -0.135975126121
    H            0.129039733780     1.790381708097     0.304967477262
    H            0.339395953980     1.238093999826    -1.349866381641
    H            2.366831044996     0.877862259629     0.896619936214
    H            2.491656203759     2.040202082390    -0.418620239733
    H            2.575733763229     0.315871537731    -0.754081063694

  Mulliken Charges: (a.u.)
   Center  Symbol    Alpha    Beta     Spin     Total
       1     H     0.47603  0.47603  0.00000  0.04795
       2     C     2.84481  2.84481  0.00000  0.31039
       3     O     4.12639  4.12639  0.00000 -0.25277
       4     O     4.17435  4.17435  0.00000 -0.34871
       5     C     2.97745  2.97745  0.00000  0.04510
       6     C     3.13257  3.13257  0.00000 -0.26514
       7     H     0.46283  0.46283  0.00000  0.07435
       8     H     0.45657  0.45657  0.00000  0.08686
       9     H     0.44844  0.44844  0.00000  0.10312
      10     H     0.45536  0.45536  0.00000  0.08927
      11     H     0.44520  0.44520  0.00000  0.10959

   Total alpha = 20.00000, Total beta = 20.00000, Total charge = -0.00000
