  ==> Input File <==

--------------------------------------------------------------------------
set {
	reference rhf
	basis 6-31G*
}

set_num_threads( 1 )
memory 2 gb

molecule MOL {
0 1

O	 -2.042549	 -1.228399	 -0.269030
C	 -1.653912	 -0.146171	 0.050137
C	 -0.332303	 0.024011	 0.778412
C	 -2.438579	 1.106236	 -0.272369
C	 -0.030082	 -1.197630	 1.660528
H	 0.476529	 0.177378	 0.069432
H	 -0.410614	 0.909434	 1.399554
C	 1.279749	 -1.053821	 2.436861
H	 0.014913	 -2.094146	 1.044641
H	 -0.854743	 -1.337003	 2.353096
C	 1.578313	 -2.263376	 3.321758
H	 2.099980	 -0.905338	 1.737862
H	 1.234690	 -0.157915	 3.051588
H	 1.663135	 -3.170966	 2.730878
H	 0.790335	 -2.417560	 4.053032
H	 2.510501	 -2.132397	 3.862032
H	 -3.277823	 0.863061	 -0.908988
H	 -1.806773	 1.843019	 -0.759671
H	 -2.802853	 1.554979	 0.648059

	symmetry c1
}
set optking {
	frozen_dihedral = ("
		11 8 5 9,
		9 5 3 2
	")
}

ee = energy('scf')
oeprop('DIPOLE', 'QUADRUPOLE', 'MULLIKEN_CHARGES')
f=open( 'psi4out.xyz', 'w' )
f.write( "19  " )
f.write( str(ee) + "\n" )
f.write( MOL.save_string_xyz() )
f.close()
--------------------------------------------------------------------------

    Molecular point group: c1

    Geometry (in Angstrom), charge = 0, multiplicity = 1:

       Center              X                  Y                   Z               Mass
    ------------   -----------------  -----------------  -----------------  -----------------
           O         -1.521034920949    -0.539627320882    -1.376378564255    15.994914619560
           C         -1.132397920949     0.542600679118    -1.057211564255    12.000000000000
           C          0.189211079051     0.712782679118    -0.328936564255    12.000000000000
           C         -1.917064920949     1.795007679118    -1.379717564255    12.000000000000
           C          0.491432079051    -0.508858320882     0.553179435745    12.000000000000
           H          0.998043079051     0.866149679118    -1.037916564255     1.007825032070
           H          0.110900079051     1.598205679118     0.292205435745     1.007825032070
           C          1.801263079051    -0.365049320882     1.329512435745    12.000000000000
           H          0.536427079051    -1.405374320882    -0.062707564255     1.007825032070
           H         -0.333228920949    -0.648231320882     1.245747435745     1.007825032070
           C          2.099827079051    -1.574604320882     2.214409435745    12.000000000000
           H          2.621494079051    -0.216566320882     0.630513435745     1.007825032070
           H          1.756204079051     0.530856679118     1.944239435745     1.007825032070
           H          2.184649079051    -2.482194320882     1.623529435745     1.007825032070
           H          1.311849079051    -1.728788320882     2.945683435745     1.007825032070
           H          3.032015079051    -1.443625320882     2.754683435745     1.007825032070
           H         -2.756308920949     1.551832679118    -2.016336564255     1.007825032070
           H         -1.285258920949     2.531790679118    -1.867019564255     1.007825032070
           H         -2.281338920949     2.243750679118    -0.459289564255     1.007825032070

  Charge       = 0
  Multiplicity = 1
  Basis Set: 6-31G*
  Basis Set:

    Orbital Energies (a.u.)
    -----------------------

    Doubly Occupied:

       1A    -20.549231     2A    -11.325897     3A    -11.230952
       4A    -11.229298     5A    -11.219002     6A    -11.218369
       7A    -11.210089     8A     -1.395233     9A     -1.084774
      10A     -1.028899    11A     -0.983877    12A     -0.885502
      13A     -0.799971    14A     -0.731583    15A     -0.658350
      16A     -0.650202    17A     -0.624362    18A     -0.610883
      19A     -0.579947    20A     -0.572099    21A     -0.554198
      22A     -0.530316    23A     -0.512488    24A     -0.490057
      25A     -0.474193    26A     -0.471264    27A     -0.466102
      28A     -0.399706

  @DF-RHF Final Energy:  -309.06525772695693

   => Energetics <=

    Nuclear Repulsion Energy =            301.3602418547586694
    One-Electron Energy =               -1015.8772194060617267
    Two-Electron Energy =                 405.4517198243455596
    DFT Exchange-Correlation Energy =       0.0000000000000000
    Empirical Dispersion Energy =           0.0000000000000000
    PCM Polarization Energy =               0.0000000000000000
    EFP Energy =                            0.0000000000000000
    Total Energy =                       -309.0652577269574977

  Mulliken Charges: (a.u.)
   Center  Symbol    Alpha    Beta     Spin     Total
       1     O     4.26149  4.26149  0.00000 -0.52298
       2     C     2.73564  2.73564  0.00000  0.52872
       3     C     3.20838  3.20838  0.00000 -0.41676
       4     C     3.28784  3.28784  0.00000 -0.57568
       5     C     3.15125  3.15125  0.00000 -0.30250
       6     H     0.40248  0.40248  0.00000  0.19504
       7     H     0.41554  0.41554  0.00000  0.16891
       8     C     3.15269  3.15269  0.00000 -0.30539
       9     H     0.40566  0.40566  0.00000  0.18868
      10     H     0.41908  0.41908  0.00000  0.16185
      11     C     3.23936  3.23936  0.00000 -0.47873
      12     H     0.42336  0.42336  0.00000  0.15329
      13     H     0.42472  0.42472  0.00000  0.15056
      14     H     0.41950  0.41950  0.00000  0.16100
      15     H     0.42075  0.42075  0.00000  0.15851
      16     H     0.41917  0.41917  0.00000  0.16166
      17     H     0.39677  0.39677  0.00000  0.20646
      18     H     0.40912  0.40912  0.00000  0.18176
      19     H     0.40720  0.40720  0.00000  0.18560

   Total alpha = 28.00000, Total beta = 28.00000, Total charge = -0.00000
