  ==> Input File <==

--------------------------------------------------------------------------
set {
	reference rhf
	basis 6-31G*
}

set_num_threads( 4 )
memory 2 gb

molecule MOL {
0 1

H	 -2.365627	 -1.312883	 -0.379134
C	 -1.358347	 -1.274295	 0.019669
C	 -0.681945	 0.000119	 -0.470601
H	 -0.826096	 -2.155117	 -0.321105
H	 -1.409554	 -1.292283	 1.100109
C	 -1.357790	 1.274691	 0.020220
N	 0.739525	 -0.000142	 0.006128
H	 -0.594190	 0.000341	 -1.545128
H	 -2.364980	 1.313977	 -0.378631
H	 -0.825080	 2.155361	 -0.320114
H	 -1.409060	 1.292170	 1.100671
O	 1.429275	 0.915539	 -0.319994
O	 1.090313	 -0.918866	 0.683102

	symmetry c1
}
set optking {
	frozen_dihedral = ("
		12 7 3 8
	")
}

ee = optimize('scf')
oeprop('DIPOLE', 'QUADRUPOLE', 'MULLIKEN_CHARGES')
f=open( 'psi4out.xyz', 'w' )
f.write( "13  " )
f.write( str(ee) + "\n" )
f.write( MOL.save_string_xyz() )
f.close()
--------------------------------------------------------------------------

    Molecular point group: c1
  Charge       = 0
  Multiplicity = 1
  Basis Set: 6-31G*
  Basis Set:
  @DF-RHF Final Energy:  -321.73695297834666
    Total Energy =                       -321.7369529783465509
    Molecular point group: c1
  Basis Set: 6-31G*
  Basis Set:
  Basis Set: 6-31G*
  Basis Set:
  @DF-RHF Final Energy:  -321.73699196187306
    Total Energy =                       -321.7369919618730023
  Basis Set: 6-31G*
  Basis Set:
  Basis Set: 6-31G*
  Basis Set:
  @DF-RHF Final Energy:  -321.73781281452875
    Total Energy =                       -321.7378128145287519
  Basis Set: 6-31G*
  Basis Set:
  Basis Set: 6-31G*
  Basis Set:
  @DF-RHF Final Energy:  -321.73779427531838
    Total Energy =                       -321.7377942753183220
  Basis Set: 6-31G*
  Basis Set:
  Basis Set: 6-31G*
  Basis Set:
  @DF-RHF Final Energy:  -321.73775393449318
    Total Energy =                       -321.7377539344932984
  Basis Set: 6-31G*
  Basis Set:
  Basis Set: 6-31G*
  Basis Set:
  @DF-RHF Final Energy:  -321.73789350041562
    Total Energy =                       -321.7378935004155096
  Basis Set: 6-31G*
  Basis Set:
  Charge       = 0
  Multiplicity = 1
  Basis Set: 6-31G*
  Basis Set:

    Orbital Energies (a.u.)
    -----------------------

    Doubly Occupied:

       1A    -20.602730     2A    -20.596373     3A    -15.844211
       4A    -11.307874     5A    -11.245250     6A    -11.240256
       7A     -1.629342     8A     -1.414410     9A     -1.142013
      10A     -0.969834    11A     -0.958751    12A     -0.812904
      13A     -0.759916    14A     -0.725348    15A     -0.720885
      16A     -0.642548    17A     -0.593566    18A     -0.587204
      19A     -0.571253    20A     -0.525360    21A     -0.521834
      22A     -0.481116    23A     -0.471609    24A     -0.446865

  @DF-RHF Final Energy:  -321.73789371965626

   => Energetics <=

    Nuclear Repulsion Energy =            256.7710390429352287
    One-Electron Energy =                -947.3949614937150727
    Two-Electron Energy =                 368.8860287311235879
    DFT Exchange-Correlation Energy =       0.0000000000000000
    Empirical Dispersion Energy =           0.0000000000000000
    PCM Polarization Energy =               0.0000000000000000
    EFP Energy =                            0.0000000000000000
    Total Energy =                       -321.7378937196563129
    Molecular point group: c1
  Basis Set: 6-31G*
  Basis Set:

  -Total Gradient:
     Atom            X                  Y                   Z
    ------   -----------------  -----------------  -----------------
       1       -0.000003637174     0.000011861000     0.000011664433
       2        0.000006110921    -0.000020357464    -0.000005420791
       3       -0.000116188808     0.001706618194     0.000332711041
       4       -0.000013903693     0.000014647038    -0.000012982241
       5        0.000001708589    -0.000013007341     0.000022124857
       6        0.000000544979    -0.000020410968     0.000008066469
       7        0.000436524944    -0.000977906070    -0.001403042312
       8        0.000024194292    -0.001277155116     0.000003388479
       9       -0.000006796784     0.000001085676     0.000000131861
      10        0.000001665407     0.000005617943    -0.000008881608
      11        0.000004609276    -0.000000922886    -0.000006545362
      12       -0.000352936819     0.000584196429     0.001047091973
      13        0.000018104868    -0.000014266436     0.000011693201

  **** Optimization is complete! (in 7 steps) ****
    Final optimized geometry and variables:
    Molecular point group: c1

    Geometry (in Angstrom), charge = 0, multiplicity = 1:

    H           -2.392174521991    -1.286235256703    -0.402765968714
    C           -1.389076378441    -1.286815726844     0.009561113067
    C           -0.683890562101    -0.022876349603    -0.452626857108
    H           -0.877912829852    -2.176193894854    -0.331989831416
    H           -1.459612752605    -1.326779683379     1.088833831965
    C           -1.361021146476     1.261354886064     0.016581317693
    N            0.747825112542     0.000568316887     0.013913592852
    H           -0.587044603717    -0.019465868279    -1.530309547373
    H           -2.377822079322     1.278680904857    -0.357890176210
    H           -0.840277519400     2.134402543635    -0.348489012615
    H           -1.398371866602     1.300195937488     1.100003800762
    O            1.400675722343     0.939320558612    -0.329612202463
    O            1.146818373651    -0.897542912046     0.686707629939

  Mulliken Charges: (a.u.)
   Center  Symbol    Alpha    Beta     Spin     Total
       1     H     0.41256  0.41256  0.00000  0.17488
       2     C     3.24150  3.24150  0.00000 -0.48300
       3     C     3.02619  3.02619  0.00000 -0.05238
       4     H     0.39974  0.39974  0.00000  0.20052
       5     H     0.40340  0.40340  0.00000  0.19321
       6     C     3.24916  3.24916  0.00000 -0.49832
       7     N     3.21745  3.21745  0.00000  0.56510
       8     H     0.38631  0.38631  0.00000  0.22737
       9     H     0.40817  0.40817  0.00000  0.18366
      10     H     0.39099  0.39099  0.00000  0.21802
      11     H     0.40682  0.40682  0.00000  0.18635
      12     O     4.23029  4.23029  0.00000 -0.46058
      13     O     4.22742  4.22742  0.00000 -0.45484

   Total alpha = 24.00000, Total beta = 24.00000, Total charge = -0.00000
