  ==> Input File <==

--------------------------------------------------------------------------
set {
	reference rhf
	basis 6-31G*
}

set_num_threads( 1 )
memory 2 gb

molecule MOL {
0 1

O	 -2.042549	 -1.228399	 -0.269030
C	 -1.653912	 -0.146171	 0.050137
C	 -0.332303	 0.024011	 0.778412
C	 -2.438579	 1.106236	 -0.272369
C	 0.845713	 -0.001731	 -0.208243
H	 -0.323783	 0.953829	 1.340327
H	 -0.235459	 -0.796807	 1.480410
C	 0.561996	 0.791157	 -1.484905
H	 1.083223	 -1.031115	 -0.470996
H	 1.722387	 0.402715	 0.288756
C	 1.735155	 0.774716	 -2.464004
H	 -0.322344	 0.386867	 -1.972674
H	 0.324276	 1.819249	 -1.222068
H	 1.975262	 -0.238858	 -2.772337
H	 2.626160	 1.203298	 -2.014706
H	 1.507009	 1.346774	 -3.357719
H	 -3.277823	 0.863061	 -0.908988
H	 -1.806773	 1.843019	 -0.759671
H	 -2.802853	 1.554979	 0.648059

	symmetry c1
}
set optking {
	frozen_dihedral = ("
		11 8 5 9,
		5 3 2 4
	")
}

ee = energy('scf')
oeprop('DIPOLE', 'QUADRUPOLE', 'MULLIKEN_CHARGES')
f=open( 'psi4out.xyz', 'w' )
f.write( "19  " )
f.write( str(ee) + "\n" )
f.write( MOL.save_string_xyz() )
f.close()
--------------------------------------------------------------------------

    Molecular point group: c1

    Geometry (in Angstrom), charge = 0, multiplicity = 1:

       Center              X                  Y                   Z               Mass
    ------------   -----------------  -----------------  -----------------  -----------------
           O         -1.567165185011    -1.421252642067     0.303585978760    15.994914619560
           C         -1.178528185011    -0.339024642067     0.622752978760    12.000000000000
           C          0.143080814989    -0.168842642067     1.351027978760    12.000000000000
           C         -1.963195185011     0.913382357933     0.300246978760    12.000000000000
           C          1.321096814989    -0.194584642067     0.364372978760    12.000000000000
           H          0.151600814989     0.760975357933     1.912942978760     1.007825032070
           H          0.239924814989    -0.989660642067     2.053025978760     1.007825032070
           C          1.037379814989     0.598303357933    -0.912289021240    12.000000000000
           H          1.558606814989    -1.223968642067     0.101619978760     1.007825032070
           H          2.197770814989     0.209861357933     0.861371978760     1.007825032070
           C          2.210538814989     0.581862357933    -1.891388021240    12.000000000000
           H          0.153039814989     0.194013357933    -1.400058021240     1.007825032070
           H          0.799659814989     1.626395357933    -0.649452021240     1.007825032070
           H          2.450645814989    -0.431711642067    -2.199721021240     1.007825032070
           H          3.101543814989     1.010444357933    -1.442090021240     1.007825032070
           H          1.982392814989     1.153920357933    -2.785103021240     1.007825032070
           H         -2.802439185011     0.670207357933    -0.336372021240     1.007825032070
           H         -1.331389185011     1.650165357933    -0.187055021240     1.007825032070
           H         -2.327469185011     1.362125357933     1.220674978760     1.007825032070

  Charge       = 0
  Multiplicity = 1
  Basis Set: 6-31G*
  Basis Set:

    Orbital Energies (a.u.)
    -----------------------

    Doubly Occupied:

       1A    -20.546913     2A    -11.324075     3A    -11.230357
       4A    -11.228852     5A    -11.226122     6A    -11.225913
       7A    -11.215485     8A     -1.393151     9A     -1.094901
      10A     -1.024635    11A     -0.986046    12A     -0.890286
      13A     -0.813976    14A     -0.727972    15A     -0.663704
      16A     -0.635891    17A     -0.628915    18A     -0.617356
      19A     -0.579572    20A     -0.572016    21A     -0.563925
      22A     -0.535218    23A     -0.515661    24A     -0.500364
      25A     -0.485197    26A     -0.471302    27A     -0.461712
      28A     -0.397108

  @DF-RHF Final Energy:  -309.05888785532255

   => Energetics <=

    Nuclear Repulsion Energy =            312.4523773929964250
    One-Electron Energy =               -1037.9093138455477856
    Two-Electron Energy =                 416.3980485972288648
    DFT Exchange-Correlation Energy =       0.0000000000000000
    Empirical Dispersion Energy =           0.0000000000000000
    PCM Polarization Energy =               0.0000000000000000
    EFP Energy =                            0.0000000000000000
    Total Energy =                       -309.0588878553225527

  Mulliken Charges: (a.u.)
   Center  Symbol    Alpha    Beta     Spin     Total
       1     O     4.26281  4.26281  0.00000 -0.52562
       2     C     2.74343  2.74343  0.00000  0.51314
       3     C     3.20028  3.20028  0.00000 -0.40057
       4     C     3.28929  3.28929  0.00000 -0.57858
       5     C     3.15187  3.15187  0.00000 -0.30374
       6     H     0.41647  0.41647  0.00000  0.16706
       7     H     0.39933  0.39933  0.00000  0.20134
       8     C     3.16891  3.16891  0.00000 -0.33783
       9     H     0.40939  0.40939  0.00000  0.18122
      10     H     0.41637  0.41637  0.00000  0.16726
      11     C     3.23837  3.23837  0.00000 -0.47673
      12     H     0.41214  0.41214  0.00000  0.17572
      13     H     0.42312  0.42312  0.00000  0.15376
      14     H     0.41788  0.41788  0.00000  0.16424
      15     H     0.42096  0.42096  0.00000  0.15808
      16     H     0.41747  0.41747  0.00000  0.16505
      17     H     0.39795  0.39795  0.00000  0.20410
      18     H     0.40633  0.40633  0.00000  0.18734
      19     H     0.40763  0.40763  0.00000  0.18474

   Total alpha = 28.00000, Total beta = 28.00000, Total charge = -0.00000
