                              Psi4 1.0.54 Driver

  ==> Input File <==

--------------------------------------------------------------------------
set {
	reference rhf
	basis cc-pvtz
}

set_num_threads( 4 )
memory 2 gb

molecule MOL {
0 1

H	 2.667601	 -0.332798	 -0.892200
N	 1.692040	 -0.130350	 -0.906508
C	 1.291090	 0.543904	 0.311878
C	 0.921633	 -1.338017	 -1.125268
H	 1.871202	 1.452098	 0.421445
H	 1.457686	 -0.069902	 1.199069
C	 -0.184297	 0.891856	 0.232909
H	 1.234028	 -1.793505	 -2.057089
H	 1.064886	 -2.070723	 -0.328876
C	 -0.553270	 -0.987598	 -1.202353
H	 -0.333253	 1.631171	 -0.559439
H	 -0.499794	 1.342996	 1.166212
N	 -0.976577	 -0.298712	 -0.000000
H	 -1.135558	 -1.895422	 -1.306835
H	 -0.727645	 -0.377761	 -2.093579
C	 -2.391156	 -0.021003	 -0.000000
H	 -2.853954	 -0.458728	 -0.875714
H	 -2.853954	 -0.458728	 0.875714
H	 -2.614037	 1.049773	 -0.000000

	symmetry c1
}
set optking {
	frozen_dihedral = ("
		7 13 16 19
	")
}

ee,wfn = optimize('scf', return_wfn=True)
oeprop( wfn, 'DIPOLE', 'QUADRUPOLE', 'MULLIKEN_CHARGES')
f=open( 'psi4out.xyz', 'w' )
f.write( "19  " )
f.write( str(ee) + "\n" )
f.write( MOL.save_string_xyz() )
f.close()
--------------------------------------------------------------------------

    Molecular point group: c1
  Charge       = 0
  Multiplicity = 1
  Basis Set: CC-PVTZ
  Basis Set:
  @DF-RHF Final Energy:  -305.30252932505806
    Total Energy =                       -305.3025293250577761
    Molecular point group: c1
  Basis Set: CC-PVTZ
  Basis Set:
  Basis Set: CC-PVTZ
  Basis Set:
  @DF-RHF Final Energy:  -305.30296080696024
    Total Energy =                       -305.3029608069598453
  Basis Set: CC-PVTZ
  Basis Set:
  Basis Set: CC-PVTZ
  Basis Set:
  @DF-RHF Final Energy:  -305.30306491265003
    Total Energy =                       -305.3030649126500862
  Basis Set: CC-PVTZ
  Basis Set:
  Basis Set: CC-PVTZ
  Basis Set:
  @DF-RHF Final Energy:  -305.30306730273662
    Total Energy =                       -305.3030673027366788
  Basis Set: CC-PVTZ
  Basis Set:
  Charge       = 0
  Multiplicity = 1
  Basis Set: CC-PVTZ
  Basis Set:

    Orbital Energies (a.u.)
    -----------------------

    Doubly Occupied:

       1A    -15.533476     2A    -15.530603     3A    -11.236484
       4A    -11.236459     5A    -11.235622     6A    -11.235604
       7A    -11.232868     8A     -1.246153     9A     -1.185116
      10A     -1.023400    11A     -0.964842    12A     -0.860990
      13A     -0.859170    14A     -0.756972    15A     -0.691851
      16A     -0.631796    17A     -0.624195    18A     -0.606077
      19A     -0.605587    20A     -0.581621    21A     -0.544212
      22A     -0.535036    23A     -0.512809    24A     -0.488367
      25A     -0.466953    26A     -0.457046    27A     -0.365342
      28A     -0.342271

  @DF-RHF Final Energy:  -305.30306762077356

   => Energetics <=

    Nuclear Repulsion Energy =            339.7459910808381096
    One-Electron Energy =               -1086.9162703532920204
    Two-Electron Energy =                 441.8672116516801225
    DFT Exchange-Correlation Energy =       0.0000000000000000
    Empirical Dispersion Energy =           0.0000000000000000
    PCM Polarization Energy =               0.0000000000000000
    EFP Energy =                            0.0000000000000000
    Total Energy =                       -305.3030676207737315
    Molecular point group: c1
  Basis Set: CC-PVTZ
  Basis Set:

  -Total Gradient:
     Atom            X                  Y                   Z
    ------   -----------------  -----------------  -----------------
       1       -0.000000357492    -0.000001849626     0.000003565018
       2       -0.000009210388     0.000005609667    -0.000004300793
       3        0.000006344540    -0.000001438387     0.000005912346
       4        0.000007379455    -0.000004183993    -0.000009043101
       5        0.000008089746     0.000001826989    -0.000001107156
       6       -0.000003872128     0.000003905111     0.000000410478
       7        0.000026921963     0.000231636366    -0.001081252273
       8        0.000011067748    -0.000003255693    -0.000004042108
       9       -0.000008539858     0.000002445669    -0.000003580541
      10        0.000001024483    -0.000004393674    -0.000022765381
      11       -0.000005824918    -0.000008162902     0.000002922524
      12        0.000002171060    -0.000005056305    -0.000002406441
      13       -0.000028148415    -0.000325405921     0.001939829849
      14        0.000004741456     0.000004453176     0.000003200132
      15        0.000000763679    -0.000002453416     0.000008388350
      16       -0.000074849609     0.000149278609    -0.002288631375
      17        0.000010256878    -0.000009258964     0.000006285039
      18        0.000015109932    -0.000003634756    -0.000001630168
      19        0.000036931871    -0.000030061951     0.001448245600

  **** Optimization is complete! (in 5 steps) ****
    Final optimized geometry and variables:
    Molecular point group: c1

    Geometry (in Angstrom), charge = 0, multiplicity = 1:

    H            2.708518106467    -0.203360357170    -0.488156720816
    N            1.737793597785     0.020630150068    -0.512613008740
    C            1.341009156711     0.711735010217     0.697351417572
    C            0.942684680816    -1.170944483042    -0.729642372717
    H            1.940338989668     1.607584547351     0.806897990679
    H            1.485268299863     0.099972588257     1.590015045501
    C           -0.125361748126     1.092421353019     0.602844031831
    H            1.254344027884    -1.641666045248    -1.654322883492
    H            1.060970309768    -1.899658673023     0.074688387612
    C           -0.523722508998    -0.789998177597    -0.825086916185
    H           -0.249573355663     1.834179558293    -0.191354634056
    H           -0.435492994690     1.553104633858     1.533385184605
    N           -0.942988021385    -0.079883927414     0.366615843629
    H           -1.119577621061    -1.689306767780    -0.923670801003
    H           -0.676032186224    -0.190141057285    -1.727082362278
    C           -2.368788440762     0.200678238706     0.402798970710
    H           -2.872615178697    -0.202446121970    -0.467769997201
    H           -2.829864747645    -0.235448567655     1.282945976765
    H           -2.567848809908     1.267865173850     0.427593046809

  Mulliken Charges: (a.u.)
   Center  Symbol    Alpha    Beta     Spin     Total
       1     H     0.43998  0.43998  0.00000  0.12003
       2     N     3.64279  3.64279  0.00000 -0.28557
       3     C     3.04206  3.04206  0.00000 -0.08412
       4     C     3.04203  3.04203  0.00000 -0.08405
       5     H     0.45274  0.45274  0.00000  0.09452
       6     H     0.46603  0.46603  0.00000  0.06793
       7     C     3.03524  3.03524  0.00000 -0.07048
       8     H     0.45273  0.45273  0.00000  0.09454
       9     H     0.46608  0.46608  0.00000  0.06785
      10     C     3.03489  3.03489  0.00000 -0.06979
      11     H     0.46846  0.46846  0.00000  0.06309
      12     H     0.45358  0.45358  0.00000  0.09284
      13     N     3.61738  3.61738  0.00000 -0.23476
      14     H     0.45371  0.45371  0.00000  0.09258
      15     H     0.46860  0.46860  0.00000  0.06279
      16     C     3.09141  3.09141  0.00000 -0.18281
      17     H     0.45968  0.45968  0.00000  0.08064
      18     H     0.45042  0.45042  0.00000  0.09916
      19     H     0.46220  0.46220  0.00000  0.07560

   Total alpha = 28.00000, Total beta = 28.00000, Total charge =  0.00000

*** Psi4 exiting successfully. Buy a developer a beer!
