  ==> Input File <==

--------------------------------------------------------------------------
set {
	reference rhf
	basis 6-31G*
}

set_num_threads( 4 )
memory 2 gb

molecule MOL {
0 1

O	 3.221680	 1.124933	 -0.106960
C	 2.701189	 0.057885	 -0.047330
C	 1.251348	 -0.232511	 -0.351341
O	 3.347903	 -1.046386	 0.304773
C	 0.467000	 1.007716	 -0.774127
H	 1.234428	 -1.004096	 -1.113942
H	 0.819082	 -0.684442	 0.537817
C	 -1.028871	 0.749818	 -0.984724
H	 0.901553	 1.414517	 -1.682310
H	 0.592213	 1.771579	 -0.014353
C	 -1.365518	 -0.173255	 -2.159337
H	 -1.516549	 1.708488	 -1.145484
H	 -1.458763	 0.342582	 -0.070743
C	 -2.870957	 -0.310900	 -2.395360
H	 -0.893659	 0.210619	 -3.062558
H	 -0.944672	 -1.162022	 -1.991405
C	 -3.219336	 -1.235167	 -3.563475
H	 -3.298039	 0.673789	 -2.577632
H	 -3.344869	 -0.684574	 -1.489008
C	 -4.724494	 -1.364174	 -3.794899
H	 -2.745734	 -0.863777	 -4.469793
H	 -2.796992	 -2.221134	 -3.381060
H	 -4.939445	 -2.025300	 -4.628755
H	 -5.171491	 -0.398723	 -4.014661
H	 -5.223120	 -1.765960	 -2.917281
C	 4.728119	 -1.109107	 -0.004993
H	 4.882018	 -1.033965	 -1.071845
H	 5.068212	 -2.067527	 0.355250
H	 5.265056	 -0.311663	 0.488280

	symmetry c1
}
set optking {
	frozen_dihedral = ("
		1 2 4 26
	")
}

ee = optimize('scf')
oeprop('DIPOLE', 'QUADRUPOLE', 'MULLIKEN_CHARGES')
f=open( 'psi4out.xyz', 'w' )
f.write( "29  " )
f.write( str(ee) + "\n" )
f.write( MOL.save_string_xyz() )
f.close()
--------------------------------------------------------------------------

    Molecular point group: c1
  Charge       = 0
  Multiplicity = 1
  Basis Set: 6-31G*
  Basis Set:
  @DF-RHF Final Energy:  -501.03883039431730
    Total Energy =                       -501.0388303943166193
    Molecular point group: c1
  Basis Set: 6-31G*
  Basis Set:
  Basis Set: 6-31G*
  Basis Set:
  @DF-RHF Final Energy:  -501.03548749645063
    Total Energy =                       -501.0354874964513101
  Basis Set: 6-31G*
  Basis Set:
  Basis Set: 6-31G*
  Basis Set:
  @DF-RHF Final Energy:  -501.03926257934961
    Total Energy =                       -501.0392625793490424
  Basis Set: 6-31G*
  Basis Set:
  Basis Set: 6-31G*
  Basis Set:
  @DF-RHF Final Energy:  -501.03933296456285
    Total Energy =                       -501.0393329645627318
  Basis Set: 6-31G*
  Basis Set:
  @DF-RHF Final Energy:  -501.03934413439970
    Total Energy =                       -501.0393441343992436
  @DF-RHF Final Energy:  -501.03933100316715
    Total Energy =                       -501.0393310031673764
  @DF-RHF Final Energy:  -501.03934794205304
    Total Energy =                       -501.0393479420533822
  Basis Set: 6-31G*
  Basis Set:
  @DF-RHF Final Energy:  -501.03711261174544
    Total Energy =                       -501.0371126117445328
  Basis Set: 6-31G*
  Basis Set:
  Basis Set: 6-31G*
  Basis Set:
  @DF-RHF Final Energy:  -501.03927218160595
    Total Energy =                       -501.0392721816065205
  Basis Set: 6-31G*
  Basis Set:
  Basis Set: 6-31G*
  Basis Set:
  @DF-RHF Final Energy:  -501.03934864045846
    Total Energy =                       -501.0393486404583427
  Basis Set: 6-31G*
  Basis Set:
  Charge       = 0
  Multiplicity = 1
  Basis Set: 6-31G*
  Basis Set:

    Orbital Energies (a.u.)
    -----------------------

    Doubly Occupied:

       1A    -20.598954     2A    -20.547476     3A    -11.372628
       4A    -11.282798     5A    -11.234991     6A    -11.219273
       7A    -11.217822     8A    -11.216373     9A    -11.216201
      10A    -11.214749    11A    -11.209329    12A     -1.465981
      13A     -1.363293    14A     -1.098227    15A     -1.066788
      16A     -1.018805    17A     -0.976853    18A     -0.929801
      19A     -0.862479    20A     -0.799756    21A     -0.790854
      22A     -0.763161    23A     -0.700105    24A     -0.680203
      25A     -0.671718    26A     -0.651552    27A     -0.628454
      28A     -0.606136    29A     -0.596015    30A     -0.582463
      31A     -0.568736    32A     -0.546675    33A     -0.536170
      34A     -0.530912    35A     -0.513393    36A     -0.511505
      37A     -0.498240    38A     -0.478081    39A     -0.470348
      40A     -0.462554    41A     -0.460424    42A     -0.453185
      43A     -0.441328    44A     -0.434256

  @DF-RHF Final Energy:  -501.03934861289770

   => Energetics <=

    Nuclear Repulsion Energy =            610.1570371584704162
    One-Electron Energy =               -1891.4146815052727106
    Two-Electron Energy =                 780.2182957339048244
    DFT Exchange-Correlation Energy =       0.0000000000000000
    Empirical Dispersion Energy =           0.0000000000000000
    PCM Polarization Energy =               0.0000000000000000
    EFP Energy =                            0.0000000000000000
    Total Energy =                       -501.0393486128975837
    Molecular point group: c1
  Basis Set: 6-31G*
  Basis Set:

  -Total Gradient:
     Atom            X                  Y                   Z
    ------   -----------------  -----------------  -----------------
       1       -0.002717344826     0.002136911901     0.008432045982
       2        0.003581617556    -0.004997790984    -0.015716964725
       3       -0.000131514892     0.000069024164     0.000341706860
       4        0.000371933934     0.006086785338     0.012962714789
       5        0.000003371080     0.000017153267    -0.000036438040
       6        0.000013193123    -0.000020950285    -0.000039401459
       7        0.000021315445     0.000028536878    -0.000046261804
       8        0.000000193246    -0.000010261079     0.000006566412
       9        0.000004000287    -0.000009212111     0.000010921272
      10       -0.000004677331     0.000016712429     0.000006992643
      11       -0.000006272380    -0.000020081455     0.000015008983
      12       -0.000003536223    -0.000005320728    -0.000000887501
      13        0.000006080749    -0.000001057270     0.000001789490
      14        0.000000123208     0.000016010624    -0.000011662748
      15       -0.000002907414     0.000002170473     0.000009980813
      16        0.000001026523    -0.000004430443    -0.000003990424
      17        0.000000379893     0.000014543786    -0.000011810657
      18        0.000004742686     0.000005132057    -0.000008362244
      19       -0.000005487227     0.000009302778    -0.000003118465
      20        0.000000179483    -0.000020317330     0.000015755719
      21       -0.000008013574     0.000008260508    -0.000001587600
      22        0.000008195488     0.000003330715    -0.000007153228
      23        0.000000077335    -0.000006727029     0.000005117980
      24        0.000007579072    -0.000001905476    -0.000004377681
      25       -0.000007446395     0.000003782451     0.000002971116
      26       -0.001156186248    -0.003298535481    -0.005876316690
      27        0.000008684494    -0.000013020884    -0.000019290578
      28        0.000000274781     0.000010273078    -0.000012783786
      29        0.000010418131    -0.000018319895    -0.000011164428

  **** Optimization is complete! (in 11 steps) ****
    Final optimized geometry and variables:
    Molecular point group: c1

    Geometry (in Angstrom), charge = 0, multiplicity = 1:

    O            2.979886093709     1.353733756954     0.997603804899
    C            2.457460950964     0.294625578549     1.119894179209
    C            1.003047878604    -0.001427119596     0.848436639383
    O            3.087092984007    -0.775103378622     1.606021927755
    C            0.194654495596     1.238691541641     0.473949895292
    H            0.976160860255    -0.754046526527     0.065930250708
    H            0.599900472501    -0.483084337132     1.735008328442
    C           -1.302104656870     0.967439080307     0.287682859802
    H            0.605515959390     1.674789138251    -0.431379692860
    H            0.325820753724     1.984096662269     1.251302857992
    C           -1.652130192799     0.072357184355    -0.904581196801
    H           -1.804711472874     1.923777806851     0.163194266489
    H           -1.707666654322     0.530179740018     1.198843228235
    C           -3.160410801836    -0.075562622458    -1.114920799350
    H           -1.202283222352     0.485371205928    -1.806187460237
    H           -1.217810844640    -0.915923150542    -0.771441057042
    C           -3.522087930880    -0.973891546726    -2.299112713521
    H           -3.601102598961     0.908719583898    -1.263844972501
    H           -3.612511337548    -0.477019094715    -0.209336639090
    C           -5.030126124658    -1.117455802452    -2.501394633300
    H           -3.073288731144    -0.572753661344    -3.205386340171
    H           -3.083040552469    -1.958425350796    -2.151652861575
    H           -5.254569695269    -1.760662326276    -3.346689091852
    H           -5.494225388377    -0.152992495910    -2.687383831679
    H           -5.504308303653    -1.547429010162    -1.623594539819
    C            4.483261998030    -0.857267127211     1.383212990775
    H            4.699366802230    -0.788137794593     0.325213246684
    H            4.788604503467    -1.821486568647     1.758701098099
    H            5.005738569683    -0.070526989902     1.907067597468

  Mulliken Charges: (a.u.)
   Center  Symbol    Alpha    Beta     Spin     Total
       1     O     4.27948  4.27948  0.00000 -0.55896
       2     C     2.60478  2.60478  0.00000  0.79043
       3     C     3.21118  3.21118  0.00000 -0.42237
       4     O     4.30986  4.30986  0.00000 -0.61973
       5     C     3.15400  3.15400  0.00000 -0.30799
       6     H     0.40124  0.40124  0.00000  0.19752
       7     H     0.39959  0.39959  0.00000  0.20083
       8     C     3.15653  3.15653  0.00000 -0.31306
       9     H     0.41246  0.41246  0.00000  0.17509
      10     H     0.40944  0.40944  0.00000  0.18113
      11     C     3.15505  3.15505  0.00000 -0.31009
      12     H     0.41819  0.41819  0.00000  0.16362
      13     H     0.42358  0.42358  0.00000  0.15284
      14     C     3.15030  3.15030  0.00000 -0.30060
      15     H     0.42272  0.42272  0.00000  0.15456
      16     H     0.42390  0.42390  0.00000  0.15220
      17     C     3.15145  3.15145  0.00000 -0.30291
      18     H     0.42323  0.42323  0.00000  0.15355
      19     H     0.42385  0.42385  0.00000  0.15229
      20     C     3.23935  3.23935  0.00000 -0.47871
      21     H     0.42285  0.42285  0.00000  0.15430
      22     H     0.42356  0.42356  0.00000  0.15288
      23     H     0.41924  0.41924  0.00000  0.16152
      24     H     0.42149  0.42149  0.00000  0.15702
      25     H     0.42176  0.42176  0.00000  0.15647
      26     C     3.09328  3.09328  0.00000 -0.18656
      27     H     0.41523  0.41523  0.00000  0.16955
      28     H     0.40750  0.40750  0.00000  0.18500
      29     H     0.40490  0.40490  0.00000  0.19020

   Total alpha = 44.00000, Total beta = 44.00000, Total charge =  0.00000
