  ==> Input File <==

--------------------------------------------------------------------------
set {
	reference rhf
	basis cc-pvtz
}

set_num_threads( 4 )
memory 2 gb

molecule MOL {
0 1

H	 -0.490025	 -1.644036	 -0.001662
N	 -0.625934	 -0.663929	 -0.000707
C	 -1.978629	 -0.158667	 0.004240
C	 0.468494	 0.129045	 -0.002160
H	 -2.520431	 -0.491633	 -0.873013
H	 -1.938887	 0.917207	 0.001359
H	 -2.512871	 -0.487056	 0.887860
C	 1.785715	 -0.615093	 0.000603
O	 0.413285	 1.323206	 0.000532
H	 1.866994	 -1.243310	 -0.878792
H	 2.591506	 0.100263	 0.006422
H	 1.860358	 -1.250360	 0.875522

	symmetry c1
}
set optking {
	frozen_dihedral = ("
		3 2 4 9
	")
}

ee = optimize('scf')
oeprop('DIPOLE', 'QUADRUPOLE', 'MULLIKEN_CHARGES')
f=open( 'psi4out.xyz', 'w' )
f.write( "12  " )
f.write( str(ee) + "\n" )
f.write( MOL.save_string_xyz() )
f.close()
--------------------------------------------------------------------------

    Molecular point group: c1
  Charge       = 0
  Multiplicity = 1
  Basis Set: CC-PVTZ
  Basis Set:
  @DF-RHF Final Energy:  -247.10098488755739
    Total Energy =                       -247.1009848875570469
    Molecular point group: c1
  Basis Set: CC-PVTZ
  Basis Set:
  Basis Set: CC-PVTZ
  Basis Set:
  @DF-RHF Final Energy:  -247.10096198045034
    Total Energy =                       -247.1009619804505064
  Basis Set: CC-PVTZ
  Basis Set:
  Charge       = 0
  Multiplicity = 1
  Basis Set: CC-PVTZ
  Basis Set:

    Orbital Energies (a.u.)
    -----------------------

    Doubly Occupied:

       1A    -20.506607     2A    -15.574915     3A    -11.336926
       4A    -11.252389     5A    -11.228081     6A     -1.388446
       7A     -1.231040     8A     -1.016705     9A     -0.932878
      10A     -0.788214    11A     -0.690990    12A     -0.651710
      13A     -0.635347    14A     -0.586897    15A     -0.582944
      16A     -0.555558    17A     -0.544811    18A     -0.511436
      19A     -0.417222    20A     -0.389315

  @DF-RHF Final Energy:  -247.10098773018558

   => Energetics <=

    Nuclear Repulsion Energy =            181.6361902135943183
    One-Electron Energy =                -695.8294977769146499
    Two-Electron Energy =                 267.0923198331346953
    DFT Exchange-Correlation Energy =       0.0000000000000000
    Empirical Dispersion Energy =           0.0000000000000000
    PCM Polarization Energy =               0.0000000000000000
    EFP Energy =                            0.0000000000000000
    Total Energy =                       -247.1009877301856363
    Molecular point group: c1
  Basis Set: CC-PVTZ
  Basis Set:

  -Total Gradient:
     Atom            X                  Y                   Z
    ------   -----------------  -----------------  -----------------
       1        0.000004755196    -0.000004287624    -0.000009985325
       2        0.000035684420     0.000042399782     0.000014021839
       3       -0.000030533021     0.000011311701    -0.000002305792
       4       -0.000009152064    -0.000095561864     0.000003121556
       5        0.000000546430     0.000000709060     0.000002244200
       6       -0.000001292778     0.000006140216    -0.000000674200
       7        0.000004417447    -0.000002088992    -0.000002264039
       8        0.000010182065     0.000012066601     0.000000888015
       9       -0.000029120820     0.000044269252    -0.000004782089
      10        0.000006870169    -0.000006631520     0.000000480184
      11        0.000002855683    -0.000003302770    -0.000001350592
      12        0.000004787273    -0.000005023840     0.000000606243

  **** Optimization is complete! (in 3 steps) ****
    Final optimized geometry and variables:
    Molecular point group: c1

    Geometry (in Angstrom), charge = 0, multiplicity = 1:

    H           -0.489926290283    -1.644144609307    -0.000619758756
    N           -0.625946021897    -0.663961702094     0.000106875750
    C           -1.978564225281    -0.158576797076     0.001392488267
    C            0.468573167802     0.129071099281    -0.000133632523
    H           -2.518449791273    -0.491924705022    -0.876952345088
    H           -1.938996219806     0.917412101723    -0.002064337641
    H           -2.515095646365    -0.486303834663     0.883927953365
    C            1.786091121851    -0.615105723032    -0.002017970034
    O            0.412835251674     1.323125099619     0.000707517231
    H            1.864707985671    -1.242954481302    -0.881974615883
    H            2.591935035539     0.100303611795     0.001592519793
    H            1.863467006554    -1.250749373398     0.872415447027

  Mulliken Charges: (a.u.)
   Center  Symbol    Alpha    Beta     Spin     Total
       1     H     0.41027  0.41027  0.00000  0.17946
       2     N     3.62195  3.62195  0.00000 -0.24390
       3     C     3.08603  3.08603  0.00000 -0.17206
       4     C     2.83655  2.83655  0.00000  0.32690
       5     H     0.45569  0.45569  0.00000  0.08863
       6     H     0.43100  0.43100  0.00000  0.13799
       7     H     0.45570  0.45570  0.00000  0.08859
       8     C     3.15348  3.15348  0.00000 -0.30696
       9     O     4.21564  4.21564  0.00000 -0.43128
      10     H     0.45001  0.45001  0.00000  0.09999
      11     H     0.43353  0.43353  0.00000  0.13295
      12     H     0.45015  0.45015  0.00000  0.09970

   Total alpha = 20.00000, Total beta = 20.00000, Total charge =  0.00000
