  ==> Input File <==

--------------------------------------------------------------------------
set {
	reference rhf
	basis 6-31G*
}

set_num_threads( 4 )
memory 2 gb

molecule MOL {
0 1

H	 2.591676	 2.013956	 0.335017
O	 3.341076	 1.666752	 -0.126416
C	 3.569581	 0.339145	 0.272707
C	 4.601933	 -0.378616	 -0.589729
H	 3.922564	 0.395597	 1.294417
H	 2.635584	 -0.221480	 0.284041
C	 4.178734	 -0.554564	 -2.050144
H	 5.535125	 0.176792	 -0.544553
H	 4.792387	 -1.355421	 -0.148200
C	 5.211893	 -1.325757	 -2.876379
H	 4.015189	 0.423142	 -2.494791
H	 3.224868	 -1.080780	 -2.089832
C	 4.798840	 -1.604335	 -4.326249
H	 6.154575	 -0.781567	 -2.869010
H	 5.407577	 -2.276746	 -2.385433
C	 4.673854	 -0.360921	 -5.210997
H	 5.534918	 -2.272188	 -4.768943
H	 3.855449	 -2.148214	 -4.333012
C	 4.363730	 -0.697055	 -6.671227
H	 5.601224	 0.208151	 -5.163536
H	 3.894656	 0.293888	 -4.828401
C	 4.232103	 0.542622	 -7.555275
H	 5.146908	 -1.340314	 -7.066622
H	 3.442518	 -1.274025	 -6.719792
H	 5.149562	 1.124421	 -7.553786
H	 4.014390	 0.271506	 -8.583737
H	 3.431436	 1.189445	 -7.207545

	symmetry c1
}
set optking {
	frozen_dihedral = ("
		4 3 2 1
	")
}

ee = optimize('scf')
oeprop('DIPOLE', 'QUADRUPOLE', 'MULLIKEN_CHARGES')
f=open( 'psi4out.xyz', 'w' )
f.write( "27  " )
f.write( str(ee) + "\n" )
f.write( MOL.save_string_xyz() )
f.close()
--------------------------------------------------------------------------

    Molecular point group: c1
  Charge       = 0
  Multiplicity = 1
  Basis Set: 6-31G*
  Basis Set:
  @DF-RHF Final Energy:  -388.28038965330944
    Total Energy =                       -388.2803896533094985
    Molecular point group: c1
  Basis Set: 6-31G*
  Basis Set:
  Basis Set: 6-31G*
  Basis Set:
  @DF-RHF Final Energy:  -388.28189610713042
    Total Energy =                       -388.2818961071307058
  Basis Set: 6-31G*
  Basis Set:
  Basis Set: 6-31G*
  Basis Set:
  @DF-RHF Final Energy:  -388.28231025702388
    Total Energy =                       -388.2823102570234823
  Basis Set: 6-31G*
  Basis Set:
  Basis Set: 6-31G*
  Basis Set:
  @DF-RHF Final Energy:  -388.28231650565141
    Total Energy =                       -388.2823165056518064
  Basis Set: 6-31G*
  Basis Set:
  Basis Set: 6-31G*
  Basis Set:
  @DF-RHF Final Energy:  -388.28231659756830
    Total Energy =                       -388.2823165975684105
  Basis Set: 6-31G*
  Basis Set:
  Basis Set: 6-31G*
  Basis Set:
  @DF-RHF Final Energy:  -388.28232074878809
    Total Energy =                       -388.2823207487876971
  Basis Set: 6-31G*
  Basis Set:
  Charge       = 0
  Multiplicity = 1
  Basis Set: 6-31G*
  Basis Set:

    Orbital Energies (a.u.)
    -----------------------

    Doubly Occupied:

       1A    -20.553066     2A    -11.267937     3A    -11.211726
       4A    -11.210684     5A    -11.209095     6A    -11.208525
       7A    -11.207188     8A    -11.205851     9A    -11.204680
      10A     -1.359620    11A     -1.087768    12A     -1.055985
      13A     -1.007627    14A     -0.942660    15A     -0.879267
      16A     -0.810815    17A     -0.793914    18A     -0.770519
      19A     -0.705410    20A     -0.643867    21A     -0.634582
      22A     -0.618339    23A     -0.586628    24A     -0.577897
      25A     -0.572335    26A     -0.546252    27A     -0.536645
      28A     -0.515292    29A     -0.506558    30A     -0.488673
      31A     -0.476363    32A     -0.473139    33A     -0.459578
      34A     -0.452591    35A     -0.442508    36A     -0.439509
      37A     -0.423172

  @DF-RHF Final Energy:  -388.28232093150342

   => Energetics <=

    Nuclear Repulsion Energy =            460.1638837017994206
    One-Electron Energy =               -1438.7198740165574691
    Two-Electron Energy =                 590.2736693832544006
    DFT Exchange-Correlation Energy =       0.0000000000000000
    Empirical Dispersion Energy =           0.0000000000000000
    PCM Polarization Energy =               0.0000000000000000
    EFP Energy =                            0.0000000000000000
    Total Energy =                       -388.2823209315035911
    Molecular point group: c1
  Basis Set: 6-31G*
  Basis Set:

  -Total Gradient:
     Atom            X                  Y                   Z
    ------   -----------------  -----------------  -----------------
       1       -0.000405942156    -0.000204958460    -0.000505611176
       2        0.000369800728     0.000298165122     0.000513728537
       3        0.000301820252     0.000120117130     0.000212331110
       4       -0.000274073275    -0.000140767745    -0.000250159520
       5        0.000004034576    -0.000014594177    -0.000005022990
       6       -0.000007091298    -0.000025718324     0.000038198441
       7       -0.000003711091    -0.000009398499     0.000012190303
       8        0.000018858914    -0.000008388413     0.000004467270
       9       -0.000003721618    -0.000000069256    -0.000028906255
      10       -0.000021132505    -0.000028507747    -0.000009195103
      11       -0.000014975876     0.000013498260    -0.000013386884
      12        0.000000750693    -0.000003274146     0.000009796174
      13        0.000031561338     0.000026963740     0.000001092760
      14       -0.000009103497    -0.000003600725     0.000001693503
      15        0.000001498864    -0.000024465830    -0.000023480857
      16        0.000006914665    -0.000004279044     0.000005313450
      17        0.000012917774    -0.000003733367     0.000011914714
      18        0.000004013590     0.000007967583     0.000009656766
      19       -0.000004935441    -0.000003443629    -0.000001380616
      20        0.000005703781    -0.000002970893     0.000000825659
      21       -0.000005638047     0.000011480435     0.000015898240
      22       -0.000006108872    -0.000000202632     0.000001718194
      23        0.000000859573     0.000005245424    -0.000000839110
      24        0.000000356546    -0.000005109946    -0.000001202770
      25       -0.000000520432    -0.000002037641     0.000001141926
      26       -0.000001209223     0.000000161447     0.000000349617
      27       -0.000000927963     0.000001921332    -0.000001131394

  **** Optimization is complete! (in 7 steps) ****
    Final optimized geometry and variables:
    Molecular point group: c1

    Geometry (in Angstrom), charge = 0, multiplicity = 1:

    H           -1.607411279810     2.305192620745     3.369854908219
    O           -0.868988267085     1.875453795357     2.962901903281
    C           -0.751866395977     0.564174591418     3.456049260766
    C            0.272177690439    -0.183659427560     2.619082301721
    H           -0.437391344678     0.578884000599     4.497974314878
    H           -1.711823404140     0.051452489045     3.410508693010
    C           -0.142234031647    -0.357252364244     1.156973858652
    H            1.215381384316     0.353952693149     2.673608880783
    H            0.437656923707    -1.158009398788     3.075141177166
    C            0.912545889765    -1.100477078042     0.332860276577
    H           -0.335155350291     0.620584169114     0.732132520498
    H           -1.082087387146    -0.907275500548     1.114496146888
    C            0.510596698204    -1.380252722410    -1.119920848542
    H            1.842438078577    -0.534155803492     0.344470021699
    H            1.131300621127    -2.050310647540     0.817522983764
    C            0.358358209747    -0.133710575485    -1.995730685723
    H            1.262516141345    -2.028384758109    -1.565895622845
    H           -0.420466409320    -1.945009712949    -1.132215256094
    C            0.049794177305    -0.465875591610    -3.457197018031
    H            1.274998220862     0.452519080781    -1.947477627837
    H           -0.431162536682     0.503011759419    -1.604939782289
    C           -0.107914681020     0.777060237934    -4.332437866688
    H            0.843220489757    -1.091992304722    -3.859995853902
    H           -0.860933851376    -1.059304285073    -3.506824948131
    H            0.798840054370     1.375462576546    -4.330283239176
    H           -0.324739090785     0.509246026557    -5.362100480270
    H           -0.918573283319     1.406809497196    -3.976753589627

  Mulliken Charges: (a.u.)
   Center  Symbol    Alpha    Beta     Spin     Total
       1     H     0.28050  0.28050  0.00000  0.43899
       2     O     4.36983  4.36983  0.00000 -0.73967
       3     C     2.99728  2.99728  0.00000  0.00543
       4     C     3.15984  3.15984  0.00000 -0.31968
       5     H     0.42859  0.42859  0.00000  0.14282
       6     H     0.43305  0.43305  0.00000  0.13391
       7     C     3.15694  3.15694  0.00000 -0.31388
       8     H     0.41481  0.41481  0.00000  0.17039
       9     H     0.42423  0.42423  0.00000  0.15154
      10     C     3.15338  3.15338  0.00000 -0.30676
      11     H     0.40517  0.40517  0.00000  0.18967
      12     H     0.42834  0.42834  0.00000  0.14333
      13     C     3.15274  3.15274  0.00000 -0.30547
      14     H     0.42331  0.42331  0.00000  0.15338
      15     H     0.42440  0.42440  0.00000  0.15120
      16     C     3.15264  3.15264  0.00000 -0.30528
      17     H     0.42305  0.42305  0.00000  0.15389
      18     H     0.42506  0.42506  0.00000  0.14987
      19     C     3.15100  3.15100  0.00000 -0.30199
      20     H     0.42435  0.42435  0.00000  0.15131
      21     H     0.42069  0.42069  0.00000  0.15863
      22     C     3.23896  3.23896  0.00000 -0.47791
      23     H     0.42388  0.42388  0.00000  0.15224
      24     H     0.42387  0.42387  0.00000  0.15226
      25     H     0.42189  0.42189  0.00000  0.15622
      26     H     0.42034  0.42034  0.00000  0.15932
      27     H     0.42187  0.42187  0.00000  0.15625

   Total alpha = 37.00000, Total beta = 37.00000, Total charge =  0.00000
