                              Psi4 1.0.54 Driver

  ==> Input File <==

--------------------------------------------------------------------------
set {
	reference rhf
	basis cc-pvtz
}

set_num_threads( 4 )
memory 2 gb

molecule MOL {
0 1

H	 -0.967118	 -3.634613	 -0.871074
O	 -1.172284	 -2.780190	 -0.522382
C	 -0.067193	 -2.040413	 -0.543330
C	 -0.310616	 -0.658853	 0.000791
O	 0.962483	 -2.459138	 -0.946328
C	 0.926581	 0.227233	 0.000178
H	 -0.711530	 -0.776367	 1.002383
H	 -1.110390	 -0.220589	 -0.587429
C	 2.220156	 -0.582071	 -0.000088
H	 0.899945	 0.878221	 -0.866390
H	 0.900542	 0.878581	 0.866486
C	 3.466689	 0.296012	 -0.000457
H	 2.239073	 -1.234095	 -0.869382
H	 2.239505	 -1.233985	 0.869270
H	 3.493549	 0.935857	 -0.875887
H	 4.368821	 -0.304526	 -0.001199
H	 3.494559	 0.935166	 0.875458

	symmetry c1
}
set optking {
	frozen_dihedral = ("
		7 4 6 10
	")
}

ee,wfn = optimize('scf', return_wfn=True)
oeprop( wfn, 'DIPOLE', 'QUADRUPOLE', 'MULLIKEN_CHARGES')
f=open( 'psi4out.xyz', 'w' )
f.write( "17  " )
f.write( str(ee) + "\n" )
f.write( MOL.save_string_xyz() )
f.close()
--------------------------------------------------------------------------

    Molecular point group: c1
  Charge       = 0
  Multiplicity = 1
  Basis Set: CC-PVTZ
  Basis Set:
  @DF-RHF Final Energy:  -345.01764188298199
    Total Energy =                       -345.0176418829817067
    Molecular point group: c1
  Basis Set: CC-PVTZ
  Basis Set:
  Basis Set: CC-PVTZ
  Basis Set:
  @DF-RHF Final Energy:  -345.03453907251736
    Total Energy =                       -345.0345390725175321
  Basis Set: CC-PVTZ
  Basis Set:
  Basis Set: CC-PVTZ
  Basis Set:
  @DF-RHF Final Energy:  -345.03808461517752
    Total Energy =                       -345.0380846151772403
  Basis Set: CC-PVTZ
  Basis Set:
  Basis Set: CC-PVTZ
  Basis Set:
  @DF-RHF Final Energy:  -345.03903248514888
    Total Energy =                       -345.0390324851489368
  Basis Set: CC-PVTZ
  Basis Set:
  @DF-RHF Final Energy:  -345.03999179503927
    Total Energy =                       -345.0399917950389863
  @DF-RHF Final Energy:  -345.04054564694815
    Total Energy =                       -345.0405456469481464
  @DF-RHF Final Energy:  -345.04085453581115
    Total Energy =                       -345.0408545358110359
  @DF-RHF Final Energy:  -345.04110182469412
    Total Energy =                       -345.0411018246941808
  @DF-RHF Final Energy:  -345.04142767184157
    Total Energy =                       -345.0414276718415181
  @DF-RHF Final Energy:  -345.04153555622491
    Total Energy =                       -345.0415355562249715
  @DF-RHF Final Energy:  -345.04158293383193
    Total Energy =                       -345.0415829338320464
  @DF-RHF Final Energy:  -345.04159560050465
    Total Energy =                       -345.0415956005044791
  Basis Set: CC-PVTZ
  Basis Set:
  @DF-RHF Final Energy:  -345.04160248100214
    Total Energy =                       -345.0416024810023146
  Basis Set: CC-PVTZ
  Basis Set:
  Basis Set: CC-PVTZ
  Basis Set:
  @DF-RHF Final Energy:  -345.04160608062068
    Total Energy =                       -345.0416060806208520
  Basis Set: CC-PVTZ
  Basis Set:
  Basis Set: CC-PVTZ
  Basis Set:
  @DF-RHF Final Energy:  -345.04160745620180
    Total Energy =                       -345.0416074562020299
  Basis Set: CC-PVTZ
  Basis Set:
  Charge       = 0
  Multiplicity = 1
  Basis Set: CC-PVTZ
  Basis Set:

    Orbital Energies (a.u.)
    -----------------------

    Doubly Occupied:

       1A    -20.606123     2A    -20.538149     3A    -11.374681
       4A    -11.239283     5A    -11.226956     6A    -11.215057
       7A    -11.208483     8A     -1.478547     9A     -1.368694
      10A     -1.088992    11A     -1.017244    12A     -0.913685
      13A     -0.834127    14A     -0.787536    15A     -0.706430
      16A     -0.687290    17A     -0.656374    18A     -0.634861
      19A     -0.589399    20A     -0.587469    21A     -0.574933
      22A     -0.539190    23A     -0.513680    24A     -0.489306
      25A     -0.480286    26A     -0.471984    27A     -0.467096
      28A     -0.440476

  @DF-RHF Final Energy:  -345.04160753445632

   => Energetics <=

    Nuclear Repulsion Energy =            311.9195986439164585
    One-Electron Energy =               -1088.4497486965735789
    Two-Electron Energy =                 431.4885425182007452
    DFT Exchange-Correlation Energy =       0.0000000000000000
    Empirical Dispersion Energy =           0.0000000000000000
    PCM Polarization Energy =               0.0000000000000000
    EFP Energy =                            0.0000000000000000
    Total Energy =                       -345.0416075344563183
    Molecular point group: c1
  Basis Set: CC-PVTZ
  Basis Set:

  -Total Gradient:
     Atom            X                  Y                   Z
    ------   -----------------  -----------------  -----------------
       1       -0.000000486731     0.000002696544     0.000001715499
       2       -0.000008198318    -0.000033316233     0.000028413759
       3       -0.000017653263     0.000050710450    -0.000042403357
       4        0.004308632545    -0.005505714016     0.002523732267
       5        0.000023655071    -0.000017139122    -0.000004074649
       6        0.003010242777    -0.004846353827    -0.004248827975
       7       -0.004052998031     0.005322694495    -0.001413772315
       8       -0.000003965363     0.000005803306     0.000017715359
       9       -0.000004001359     0.000017310697    -0.000008925865
      10       -0.003251684998     0.004998762379     0.003158211170
      11       -0.000005056646     0.000017923017    -0.000012237797
      12        0.000003027295    -0.000006821194     0.000002217016
      13        0.000000355390    -0.000006711651    -0.000002151928
      14       -0.000002871322    -0.000001122673    -0.000000175574
      15       -0.000000211225    -0.000001304455    -0.000000147796
      16        0.000001994366     0.000001544039     0.000000988965
      17       -0.000000780191     0.000001038240    -0.000000276781

  **** Optimization is complete! (in 16 steps) ****
    Final optimized geometry and variables:
    Molecular point group: c1

    Geometry (in Angstrom), charge = 0, multiplicity = 1:

    H           -1.485087675024    -2.676585530989     0.137014691975
    O           -1.558281392975    -1.827969748176     0.548166657575
    C           -0.988727382414    -0.929071755442    -0.246813636705
    C           -1.116348439577     0.474627766984     0.278759814835
    O           -0.483389833130    -1.229905807532    -1.273747457539
    C            0.122206675995     1.377043415311     0.126099103304
    H           -1.476641784736     0.470486514110     1.296983229056
    H           -1.928962755718     0.904967422514    -0.300610036719
    C            1.481980499300     0.702975692472     0.284806633843
    H            0.063857110634     1.926986613395    -0.805729300004
    H            0.031021013783     2.140019241258     0.894250257761
    C            2.626393756963     1.711002459063     0.289750780244
    H            1.633225106368    -0.011472242183    -0.512607055031
    H            1.495775260717     0.140613523434     1.215833971885
    H            2.650991053072     2.276233516795    -0.635948919394
    H            3.582801074828     1.212933721342     0.396849947510
    H            2.527800344398     2.418463719319     1.106482260620

  Mulliken Charges: (a.u.)
   Center  Symbol    Alpha    Beta     Spin     Total
       1     H     0.38066  0.38066  0.00000  0.23867
       2     O     4.16067  4.16067  0.00000 -0.32134
       3     C     2.79476  2.79476  0.00000  0.41048
       4     C     3.11259  3.11259  0.00000 -0.22518
       5     O     4.20034  4.20034  0.00000 -0.40067
       6     C     3.08377  3.08377  0.00000 -0.16754
       7     H     0.43399  0.43399  0.00000  0.13203
       8     H     0.43855  0.43855  0.00000  0.12290
       9     C     3.09657  3.09657  0.00000 -0.19313
      10     H     0.44737  0.44737  0.00000  0.10526
      11     H     0.45155  0.45155  0.00000  0.09691
      12     C     3.15119  3.15119  0.00000 -0.30238
      13     H     0.43620  0.43620  0.00000  0.12759
      14     H     0.45438  0.45438  0.00000  0.09124
      15     H     0.45383  0.45383  0.00000  0.09234
      16     H     0.44705  0.44705  0.00000  0.10590
      17     H     0.45654  0.45654  0.00000  0.08692

   Total alpha = 28.00000, Total beta = 28.00000, Total charge = -0.00000

*** Psi4 exiting successfully. Buy a developer a beer!
