  ==> Input File <==

--------------------------------------------------------------------------
set {
	reference rhf
	basis 6-31G*
}

set_num_threads( 4 )
memory 2 gb

molecule MOL {
0 1

H	 2.176868	 -0.646004	 -0.217325
O	 1.337496	 -0.537251	 0.205931
C	 0.702312	 0.627605	 -0.264544
C	 -0.714990	 0.596302	 0.266387
H	 0.682322	 0.642550	 -1.350929
H	 1.215941	 1.520383	 0.085680
O	 -1.405996	 -0.526611	 -0.195820
H	 -1.257453	 1.468809	 -0.075599
H	 -0.688972	 0.618407	 1.353696
H	 -1.952054	 -0.251303	 -0.921106

	symmetry c1
}
set optking {
	frozen_dihedral = ("
		10 7 4 3
	")
}

ee = optimize('scf')
oeprop('DIPOLE', 'QUADRUPOLE', 'MULLIKEN_CHARGES')
f=open( 'psi4out.xyz', 'w' )
f.write( "10  " )
f.write( str(ee) + "\n" )
f.write( MOL.save_string_xyz() )
f.close()
--------------------------------------------------------------------------

    Molecular point group: c1
  Charge       = 0
  Multiplicity = 1
  Basis Set: 6-31G*
  Basis Set:
  @DF-RHF Final Energy:  -228.91539241078470
    Total Energy =                       -228.9153924107845626
    Molecular point group: c1
  Basis Set: 6-31G*
  Basis Set:
  Basis Set: 6-31G*
  Basis Set:
  @DF-RHF Final Energy:  -228.91726907126818
    Total Energy =                       -228.9172690712681799
  Basis Set: 6-31G*
  Basis Set:
  Basis Set: 6-31G*
  Basis Set:
  @DF-RHF Final Energy:  -228.91747751725313
    Total Energy =                       -228.9174775172531042
  Basis Set: 6-31G*
  Basis Set:
  Basis Set: 6-31G*
  Basis Set:
  @DF-RHF Final Energy:  -228.91749931370489
    Total Energy =                       -228.9174993137049512
  Basis Set: 6-31G*
  Basis Set:
  Basis Set: 6-31G*
  Basis Set:
  @DF-RHF Final Energy:  -228.91750032955750
    Total Energy =                       -228.9175003295574697
  Basis Set: 6-31G*
  Basis Set:
  Charge       = 0
  Multiplicity = 1
  Basis Set: 6-31G*
  Basis Set:

    Orbital Energies (a.u.)
    -----------------------

    Doubly Occupied:

       1A    -20.553734     2A    -20.552438     3A    -11.271028
       4A    -11.270247     5A     -1.371189     6A     -1.351222
       7A     -1.001037     8A     -0.838173     9A     -0.721388
      10A     -0.682215    11A     -0.646685    12A     -0.594347
      13A     -0.571890    14A     -0.520998    15A     -0.490845
      16A     -0.442664    17A     -0.430500

  @DF-RHF Final Energy:  -228.91750042597681

   => Energetics <=

    Nuclear Repulsion Energy =            133.1552804445722131
    One-Electron Energy =                -577.5243636100672120
    Two-Electron Energy =                 215.4515827395182157
    DFT Exchange-Correlation Energy =       0.0000000000000000
    Empirical Dispersion Energy =           0.0000000000000000
    PCM Polarization Energy =               0.0000000000000000
    EFP Energy =                            0.0000000000000000
    Total Energy =                       -228.9175004259767832
    Molecular point group: c1
  Basis Set: 6-31G*
  Basis Set:

  -Total Gradient:
     Atom            X                  Y                   Z
    ------   -----------------  -----------------  -----------------
       1       -0.000004913642     0.000016908878    -0.000002130671
       2       -0.000023952434    -0.000013024943     0.000011542817
       3        0.000347594189    -0.000552071084     0.000769675489
       4       -0.000685517344     0.000850127819    -0.000842709518
       5       -0.000005610176     0.000001903174    -0.000010530461
       6       -0.000009068801    -0.000001874659    -0.000004720901
       7        0.001537967355    -0.000617401909    -0.000950098251
       8        0.000002918292    -0.000000495515     0.000005710576
       9       -0.000002420991     0.000000627213     0.000000571227
      10       -0.001156996451     0.000315301030     0.001022689695

  **** Optimization is complete! (in 6 steps) ****
    Final optimized geometry and variables:
    Molecular point group: c1

    Geometry (in Angstrom), charge = 0, multiplicity = 1:

    H            2.250507723603    -0.610498684319    -0.144594188525
    O            1.408119512256    -0.521560694162     0.277141094525
    C            0.719343607656     0.569215885644    -0.264422609013
    C           -0.698122948064     0.559672638966     0.270276848310
    H            0.694996852220     0.519049500092    -1.351752389880
    H            1.196926526041     1.507942796860     0.017034474132
    O           -1.443470418251    -0.524066358954    -0.216674601523
    H           -1.176927921319     1.506307427157     0.029484735375
    H           -0.659681485258     0.472069641554     1.348871281339
    H           -1.997447921936    -0.241492821048    -0.928396460217

  Mulliken Charges: (a.u.)
   Center  Symbol    Alpha    Beta     Spin     Total
       1     H     0.27987  0.27987  0.00000  0.44027
       2     O     4.36394  4.36394  0.00000 -0.72789
       3     C     2.99734  2.99734  0.00000  0.00533
       4     C     3.00460  3.00460  0.00000 -0.00920
       5     H     0.43320  0.43320  0.00000  0.13360
       6     H     0.43398  0.43398  0.00000  0.13205
       7     O     4.36492  4.36492  0.00000 -0.72984
       8     H     0.43163  0.43163  0.00000  0.13673
       9     H     0.40924  0.40924  0.00000  0.18151
      10     H     0.28128  0.28128  0.00000  0.43743

   Total alpha = 17.00000, Total beta = 17.00000, Total charge =  0.00000
