  ==> Input File <==

--------------------------------------------------------------------------
set {
	reference rhf
	basis 6-31G*
}

set_num_threads( 1 )
memory 2 gb

molecule MOL {
0 1

H	 1.227250	 -1.488031	 1.696561
O	 0.550699	 -0.922573	 1.352720
C	 1.135793	 0.118896	 0.612333
C	 0.031547	 1.023609	 0.088541
H	 1.699777	 -0.281668	 -0.228120
H	 1.832128	 0.681689	 1.229976
C	 -1.134819	 0.293262	 -0.585751
H	 0.474374	 1.714721	 -0.623187
H	 -0.338529	 1.620940	 0.920081
C	 -1.917817	 -0.639439	 0.339494
H	 -0.758119	 -0.268455	 -1.433105
H	 -1.813832	 1.041889	 -0.986690
H	 -2.777680	 -1.057197	 -0.174994
H	 -1.310268	 -1.471279	 0.680599
H	 -2.283753	 -0.111424	 1.216626

	symmetry c1
}
set optking {
	frozen_dihedral = ("
		8 4 7 11,
		1 2 3 4
	")
}

ee = energy('scf')
oeprop('DIPOLE', 'QUADRUPOLE', 'MULLIKEN_CHARGES')
f=open( 'psi4out.xyz', 'w' )
f.write( "15  " )
f.write( str(ee) + "\n" )
f.write( MOL.save_string_xyz() )
f.close()
--------------------------------------------------------------------------

    Molecular point group: c1

    Geometry (in Angstrom), charge = 0, multiplicity = 1:

       Center              X                  Y                   Z               Mass
    ------------   -----------------  -----------------  -----------------  -----------------
           H          1.468842233302    -1.423009172131     1.299551207427     1.007825032070
           O          0.792291233302    -0.857551172131     0.955710207427    15.994914619560
           C          1.377385233302     0.183917827869     0.215323207427    12.000000000000
           C          0.273139233302     1.088630827869    -0.308468792573    12.000000000000
           H          1.941369233302    -0.216646172131    -0.625129792573     1.007825032070
           H          2.073720233302     0.746710827869     0.832966207427     1.007825032070
           C         -0.893226766698     0.358283827869    -0.982760792573    12.000000000000
           H          0.715966233302     1.779742827869    -1.020196792573     1.007825032070
           H         -0.096936766698     1.685961827869     0.523071207427     1.007825032070
           C         -1.676224766698    -0.574417172131    -0.057515792573    12.000000000000
           H         -0.516526766698    -0.203433172131    -1.830114792573     1.007825032070
           H         -1.572239766698     1.106910827869    -1.383699792573     1.007825032070
           H         -2.536087766698    -0.992175172131    -0.572003792573     1.007825032070
           H         -1.068675766698    -1.406257172131     0.283589207427     1.007825032070
           H         -2.042160766698    -0.046402172131     0.819616207427     1.007825032070

  Charge       = 0
  Multiplicity = 1
  Basis Set: 6-31G*
  Basis Set:

    Orbital Energies (a.u.)
    -----------------------

    Doubly Occupied:

       1A    -20.554982     2A    -11.269711     3A    -11.212673
       4A    -11.207617     5A    -11.183292     6A     -1.364668
       7A     -1.059457     8A     -0.967558     9A     -0.857686
      10A     -0.775878    11A     -0.709045    12A     -0.652138
      13A     -0.599603    14A     -0.573500    15A     -0.544450
      16A     -0.530791    17A     -0.517293    18A     -0.464757
      19A     -0.463158    20A     -0.441801    21A     -0.425371

  @DF-RHF Final Energy:  -232.13502662881598

   => Energetics <=

    Nuclear Repulsion Energy =            195.7572166384179013
    One-Electron Energy =                -703.0335757007713937
    Two-Electron Energy =                 275.1413324335375137
    DFT Exchange-Correlation Energy =       0.0000000000000000
    Empirical Dispersion Energy =           0.0000000000000000
    PCM Polarization Energy =               0.0000000000000000
    EFP Energy =                            0.0000000000000000
    Total Energy =                       -232.1350266288159787

  Mulliken Charges: (a.u.)
   Center  Symbol    Alpha    Beta     Spin     Total
       1     H     0.28059  0.28059  0.00000  0.43883
       2     O     4.36872  4.36872  0.00000 -0.73745
       3     C     2.99414  2.99414  0.00000  0.01172
       4     C     3.16460  3.16460  0.00000 -0.32920
       5     H     0.43237  0.43237  0.00000  0.13526
       6     H     0.42871  0.42871  0.00000  0.14257
       7     C     3.15151  3.15151  0.00000 -0.30301
       8     H     0.42187  0.42187  0.00000  0.15625
       9     H     0.41859  0.41859  0.00000  0.16283
      10     C     3.23683  3.23683  0.00000 -0.47366
      11     H     0.42550  0.42550  0.00000  0.14901
      12     H     0.42248  0.42248  0.00000  0.15504
      13     H     0.43077  0.43077  0.00000  0.13845
      14     H     0.39605  0.39605  0.00000  0.20789
      15     H     0.42727  0.42727  0.00000  0.14547

   Total alpha = 21.00000, Total beta = 21.00000, Total charge =  0.00000
