                              Psi4 1.0.54 Driver

  ==> Input File <==

--------------------------------------------------------------------------
set {
	reference rhf
	basis cc-pvtz
}

set_num_threads( 4 )
memory 2 gb

molecule MOL {
0 1

H	 -4.204544	 0.638886	 -0.118856
O	 -3.489883	 0.078539	 -0.358578
C	 -2.302264	 0.528872	 0.237390
C	 -1.175688	 -0.398187	 -0.171891
H	 -2.079104	 1.545552	 -0.079366
H	 -2.399606	 0.537494	 1.321032
C	 0.196029	 0.106276	 0.266738
H	 -1.201873	 -0.515469	 -1.250677
H	 -1.365975	 -1.378728	 0.252664
C	 1.330220	 -0.826136	 -0.155230
H	 0.359542	 1.097229	 -0.145561
H	 0.212134	 0.218135	 1.348778
C	 2.719700	 -0.407669	 0.328325
H	 1.339388	 -0.911200	 -1.239363
H	 1.119001	 -1.821953	 0.224128
C	 3.241564	 0.893452	 -0.276737
H	 3.418299	 -1.204729	 0.093035
H	 2.711776	 -0.323368	 1.411960
H	 3.254204	 0.841071	 -1.360784
H	 2.634460	 1.745075	 0.005842
H	 4.254264	 1.092401	 0.054971

	symmetry c1
}
set optking {
	frozen_dihedral = ("
		2 3 4 8
	")
}

ee,wfn = optimize('scf', return_wfn=True)
oeprop( wfn, 'DIPOLE', 'QUADRUPOLE', 'MULLIKEN_CHARGES')
f=open( 'psi4out.xyz', 'w' )
f.write( "21  " )
f.write( str(ee) + "\n" )
f.write( MOL.save_string_xyz() )
f.close()
--------------------------------------------------------------------------

    Molecular point group: c1
  Charge       = 0
  Multiplicity = 1
  Basis Set: CC-PVTZ
  Basis Set:
  @DF-RHF Final Energy:  -310.33280172112376
    Total Energy =                       -310.3328017211236443
    Molecular point group: c1
  Basis Set: CC-PVTZ
  Basis Set:
  Basis Set: CC-PVTZ
  Basis Set:
  @DF-RHF Final Energy:  -310.33282920297955
    Total Energy =                       -310.3328292029798376
  Basis Set: CC-PVTZ
  Basis Set:
  Basis Set: CC-PVTZ
  Basis Set:
  @DF-RHF Final Energy:  -310.33284050589867
    Total Energy =                       -310.3328405058987300
  Basis Set: CC-PVTZ
  Basis Set:
  Charge       = 0
  Multiplicity = 1
  Basis Set: CC-PVTZ
  Basis Set:

    Orbital Energies (a.u.)
    -----------------------

    Doubly Occupied:

       1A    -20.545420     2A    -11.264951     3A    -11.213187
       4A    -11.213054     5A    -11.211239     6A    -11.208809
       7A    -11.206000     8A     -1.363343     9A     -1.087387
      10A     -1.034382    11A     -0.955603    12A     -0.876452
      13A     -0.807652    14A     -0.779495    15A     -0.696672
      16A     -0.662208    17A     -0.621992    18A     -0.609253
      19A     -0.589263    20A     -0.569760    21A     -0.538466
      22A     -0.520765    23A     -0.511458    24A     -0.488641
      25A     -0.479432    26A     -0.460690    27A     -0.456206
      28A     -0.444286    29A     -0.437106

  @DF-RHF Final Energy:  -310.33283960666364

   => Energetics <=

    Nuclear Repulsion Energy =            312.8866558490812508
    One-Electron Energy =               -1040.7326474864839838
    Two-Electron Energy =                 417.5131520307388087
    DFT Exchange-Correlation Energy =       0.0000000000000000
    Empirical Dispersion Energy =           0.0000000000000000
    PCM Polarization Energy =               0.0000000000000000
    EFP Energy =                            0.0000000000000000
    Total Energy =                       -310.3328396066638675
    Molecular point group: c1
  Basis Set: CC-PVTZ
  Basis Set:

  -Total Gradient:
     Atom            X                  Y                   Z
    ------   -----------------  -----------------  -----------------
       1        0.000234306795    -0.000142837249    -0.000066047436
       2        0.000024651847     0.000836261265    -0.000921906771
       3       -0.000503305584    -0.001209693605     0.001315928800
       4        0.001316125413     0.001847622364    -0.000409125226
       5        0.000023876243    -0.000017398667     0.000006954506
       6        0.000028104545    -0.000004871508    -0.000077243873
       7       -0.000004786850     0.000020051059    -0.000013208710
       8       -0.001044373312    -0.001313311779     0.000286536231
       9       -0.000017261169    -0.000025429916    -0.000094947501
      10       -0.000011442221     0.000033135009    -0.000073702295
      11       -0.000054474536    -0.000096739857     0.000024025285
      12       -0.000022066272    -0.000001970942    -0.000014779766
      13       -0.000040484770     0.000051195070     0.000069220173
      14       -0.000007826192     0.000026060354     0.000002288235
      15        0.000010079941     0.000023074311    -0.000029360977
      16        0.000032134592     0.000002731438    -0.000011618685
      17       -0.000036344522     0.000006405955     0.000028139367
      18        0.000000069172     0.000027841609    -0.000010923419
      19       -0.000010146581     0.000009908553     0.000006444133
      20        0.000086550444    -0.000055853067    -0.000000538960
      21       -0.000003386986    -0.000016180396    -0.000016133113

  **** Optimization is complete! (in 4 steps) ****
    Final optimized geometry and variables:
    Molecular point group: c1

    Geometry (in Angstrom), charge = 0, multiplicity = 1:

    H           -4.223358280578     0.578682765307    -0.033401258670
    O           -3.500140601023     0.049850335739    -0.314432982498
    C           -2.311083818318     0.506189726935     0.274036862040
    C           -1.178168496656    -0.401687731460    -0.161556587263
    H           -2.105036891169     1.528399190231    -0.036972455528
    H           -2.393799009018     0.504744280780     1.358587596316
    C            0.192564899492     0.100625923468     0.279822636220
    H           -1.219310400790    -0.501413159549    -1.241257401036
    H           -1.357428452032    -1.394228756092     0.240529065732
    C            1.326206867228    -0.835105412140    -0.135467775457
    H            0.358489749843     1.090022678486    -0.134333847084
    H            0.205344240270     0.215139314459     1.361802947678
    C            2.714633579155    -0.419404392204     0.353501649576
    H            1.339588085428    -0.922169607140    -1.219363235944
    H            1.110876376445    -1.829567624819     0.244869559660
    C            3.249259728531     0.871440582459    -0.262128624879
    H            3.409912136492    -1.223176783950     0.131922753967
    H            2.699655334485    -0.323184407753     1.436041269967
    H            3.266411245460     0.807948067550    -1.345455743798
    H            2.647611261237     1.730498871523     0.008993643610
    H            4.261934341772     1.065860777188     0.072261805561

  Mulliken Charges: (a.u.)
   Center  Symbol    Alpha    Beta     Spin     Total
       1     H     0.39747  0.39747  0.00000  0.20506
       2     O     4.19443  4.19443  0.00000 -0.38887
       3     C     2.96308  2.96308  0.00000  0.07385
       4     C     3.08446  3.08446  0.00000 -0.16892
       5     H     0.47634  0.47634  0.00000  0.04732
       6     H     0.47374  0.47374  0.00000  0.05252
       7     C     3.10281  3.10281  0.00000 -0.20563
       8     H     0.44953  0.44953  0.00000  0.10093
       9     H     0.45202  0.45202  0.00000  0.09596
      10     C     3.09433  3.09433  0.00000 -0.18867
      11     H     0.45279  0.45279  0.00000  0.09442
      12     H     0.45601  0.45601  0.00000  0.08797
      13     C     3.08989  3.08989  0.00000 -0.17977
      14     H     0.45301  0.45301  0.00000  0.09399
      15     H     0.44888  0.44888  0.00000  0.10224
      16     C     3.15222  3.15222  0.00000 -0.30443
      17     H     0.44845  0.44845  0.00000  0.10310
      18     H     0.45512  0.45512  0.00000  0.08976
      19     H     0.45460  0.45460  0.00000  0.09080
      20     H     0.45427  0.45427  0.00000  0.09147
      21     H     0.44655  0.44655  0.00000  0.10689

   Total alpha = 29.00000, Total beta = 29.00000, Total charge = -0.00000

*** Psi4 exiting successfully. Buy a developer a beer!
