                              Psi4 1.0.54 Driver

  ==> Input File <==

--------------------------------------------------------------------------
set {
	reference rhf
	basis cc-pvtz
}

set_num_threads( 4 )
memory 2 gb

molecule MOL {
0 1

H	 -2.644180	 -0.653737	 1.272255
C	 -2.092774	 -0.380414	 0.391915
O	 -0.808934	 -0.154049	 0.752536
F	 -2.163230	 -1.351640	 -0.507133
F	 -2.627232	 0.691260	 -0.169301
C	 0.164440	 -0.187881	 -0.222502
C	 1.346771	 -0.974211	 0.338797
Cl	 0.679767	 1.448680	 -0.671551
H	 -0.167195	 -0.678108	 -1.121024
F	 2.305365	 -1.055922	 -0.548584
F	 0.953059	 -2.193303	 0.621853
F	 1.827292	 -0.436521	 1.426105

	symmetry c1
}
set optking {
	frozen_dihedral = ("
		6 3 2 4
	")
}

ee,wfn = optimize('scf', return_wfn=True)
oeprop( wfn, 'DIPOLE', 'QUADRUPOLE', 'MULLIKEN_CHARGES')
f=open( 'psi4out.xyz', 'w' )
f.write( "12  " )
f.write( str(ee) + "\n" )
f.write( MOL.save_string_xyz() )
f.close()
--------------------------------------------------------------------------

    Molecular point group: c1
  Charge       = 0
  Multiplicity = 1
  Basis Set: CC-PVTZ
  Basis Set:
  @DF-RHF Final Energy: -1146.61880062382852
    Total Energy =                      -1146.6188006238285197
    Molecular point group: c1
  Basis Set: CC-PVTZ
  Basis Set:
  Basis Set: CC-PVTZ
  Basis Set:
  @DF-RHF Final Energy: -1146.61891512076045
    Total Energy =                      -1146.6189151207613577
  Basis Set: CC-PVTZ
  Basis Set:
  Basis Set: CC-PVTZ
  Basis Set:
  @DF-RHF Final Energy: -1146.61910006126323
    Total Energy =                      -1146.6191000612625430
  Basis Set: CC-PVTZ
  Basis Set:
  Basis Set: CC-PVTZ
  Basis Set:
  @DF-RHF Final Energy: -1146.61911769249855
    Total Energy =                      -1146.6191176924990032
  Basis Set: CC-PVTZ
  Basis Set:
  @DF-RHF Final Energy: -1146.61912938953810
    Total Energy =                      -1146.6191293895376475
  @DF-RHF Final Energy: -1146.61913919368772
    Total Energy =                      -1146.6191391936877153
  @DF-RHF Final Energy: -1146.61914775153764
    Total Energy =                      -1146.6191477515380939
  @DF-RHF Final Energy: -1146.61914502421087
    Total Energy =                      -1146.6191450242104111
  Basis Set: CC-PVTZ
  Basis Set:
  @DF-RHF Final Energy: -1146.61915326369990
    Total Energy =                      -1146.6191532636994452
  Basis Set: CC-PVTZ
  Basis Set:
  Basis Set: CC-PVTZ
  Basis Set:
  @DF-RHF Final Energy: -1146.61915681714163
    Total Energy =                      -1146.6191568171420840
  Basis Set: CC-PVTZ
  Basis Set:
  Basis Set: CC-PVTZ
  Basis Set:
  @DF-RHF Final Energy: -1146.61916866143724
    Total Energy =                      -1146.6191686614361060
  Basis Set: CC-PVTZ
  Basis Set:
  Charge       = 0
  Multiplicity = 1
  Basis Set: CC-PVTZ
  Basis Set:

    Orbital Energies (a.u.)
    -----------------------

    Doubly Occupied:

       1A   -104.855184     2A    -26.355328     3A    -26.354657
       4A    -26.353560     5A    -26.348673     6A    -26.338064
       7A    -20.641202     8A    -11.520669     9A    -11.484923
      10A    -11.400432    11A    -10.580726    12A     -8.047516
      13A     -8.045538    14A     -8.045465    15A     -1.768390
      16A     -1.725417    17A     -1.663344    18A     -1.661778
      19A     -1.645071    20A     -1.486951    21A     -1.177029
      22A     -1.054921    23A     -0.991260    24A     -0.924182
      25A     -0.865161    26A     -0.858915    27A     -0.853190
      28A     -0.826525    29A     -0.820873    30A     -0.796885
      31A     -0.734659    32A     -0.733441    33A     -0.714307
      34A     -0.705207    35A     -0.685881    36A     -0.681827
      37A     -0.665726    38A     -0.664647    39A     -0.646256
      40A     -0.641441    41A     -0.599585    42A     -0.580834
      43A     -0.523757    44A     -0.476475    45A     -0.469060

  @DF-RHF Final Energy: -1146.61916928265669

   => Energetics <=

    Nuclear Repulsion Energy =            735.9957553864808233
    One-Electron Energy =               -3055.1999926621952000
    Two-Electron Energy =                1172.5850679930576916
    DFT Exchange-Correlation Energy =       0.0000000000000000
    Empirical Dispersion Energy =           0.0000000000000000
    PCM Polarization Energy =               0.0000000000000000
    EFP Energy =                            0.0000000000000000
    Total Energy =                      -1146.6191692826564577
    Molecular point group: c1
  Basis Set: CC-PVTZ
  Basis Set:

  -Total Gradient:
     Atom            X                  Y                   Z
    ------   -----------------  -----------------  -----------------
       1        0.000053011426     0.000112906437    -0.000003079058
       2       -0.000040344414    -0.003369739864     0.001982906223
       3       -0.000161778961     0.004069255247    -0.000731411409
       4        0.000150424728     0.001768714231    -0.001492994154
       5       -0.000117066280    -0.000219745566     0.000005796177
       6        0.000133270651    -0.002397216704     0.000187040647
       7       -0.000013160289     0.000061182179     0.000010303377
       8        0.000003003612    -0.000020983368     0.000002730327
       9       -0.000024472855     0.000030075342     0.000026263197
      10        0.000002358485     0.000019983547    -0.000020780308
      11        0.000032868720     0.000019324389     0.000013677138
      12       -0.000018114800    -0.000073755899     0.000019547823

  **** Optimization is complete! (in 12 steps) ****
    Final optimized geometry and variables:
    Molecular point group: c1

    Geometry (in Angstrom), charge = 0, multiplicity = 1:

    H           -2.689302923811    -0.427057603077     1.194820413381
    C           -2.144586119551    -0.104870266738     0.326627597338
    O           -0.839394678071     0.015458805158     0.670693500083
    F           -2.302872029569    -0.972999983121    -0.661590337796
    F           -2.628072409359     1.046374335682    -0.104030145790
    C            0.140110448759     0.033162993293    -0.294172566081
    C            1.359507106724    -0.663808018988     0.304077147576
    CL           0.561995511796     1.688380542312    -0.781989999294
    H           -0.145971400131    -0.497467527180    -1.183483451883
    F            2.336919919282    -0.700797670486    -0.565255589325
    F            1.038855272934    -1.901369642420     0.603383625447
    F            1.785230220872    -0.078270857684     1.389010989135

  Mulliken Charges: (a.u.)
   Center  Symbol    Alpha    Beta     Spin     Total
       1     H     0.45349  0.45349  0.00000  0.09302
       2     C     2.73875  2.73875  0.00000  0.52251
       3     O     4.15482  4.15482  0.00000 -0.30963
       4     F     4.61916  4.61916  0.00000 -0.23833
       5     F     4.61145  4.61145  0.00000 -0.22291
       6     C     2.94308  2.94308  0.00000  0.11384
       7     C     2.66901  2.66901  0.00000  0.66199
       8    CL     8.57480  8.57480  0.00000 -0.14960
       9     H     0.42736  0.42736  0.00000  0.14527
      10     F     4.60198  4.60198  0.00000 -0.20396
      11     F     4.60599  4.60599  0.00000 -0.21197
      12     F     4.60012  4.60012  0.00000 -0.20023

   Total alpha = 45.00000, Total beta = 45.00000, Total charge =  0.00000

*** Psi4 exiting successfully. Buy a developer a beer!
