  ==> Input File <==

--------------------------------------------------------------------------
set {
	reference rhf
	basis 6-31G*
}

set_num_threads( 4 )
memory 2 gb

molecule MOL {
0 1

H	 -3.161837	 0.500524	 -0.000234
C	 -2.367097	 -0.232926	 -0.000000
O	 -1.158440	 0.455814	 -0.000122
H	 -2.468853	 -0.861886	 -0.882833
H	 -2.468942	 -0.861421	 0.883154
C	 -0.029776	 -0.365156	 0.000148
C	 -0.271111	 -1.530598	 -0.943337
H	 0.169136	 -0.729534	 1.008891
H	 0.847025	 0.202002	 -0.315224
C	 0.918729	 -2.487227	 -1.006758
H	 -1.160702	 -2.059914	 -0.616055
H	 -0.487505	 -1.134962	 -1.930933
H	 1.136934	 -2.913710	 -0.031605
H	 0.719508	 -3.308390	 -1.687088
H	 1.815236	 -1.981985	 -1.355197

	symmetry c1
}
set optking {
	frozen_dihedral = ("
		8 6 3 2
	")
}

ee = optimize('scf')
oeprop('DIPOLE', 'QUADRUPOLE', 'MULLIKEN_CHARGES')
f=open( 'psi4out.xyz', 'w' )
f.write( "15  " )
f.write( str(ee) + "\n" )
f.write( MOL.save_string_xyz() )
f.close()
--------------------------------------------------------------------------

    Molecular point group: c1
  Charge       = 0
  Multiplicity = 1
  Basis Set: 6-31G*
  Basis Set:
  @DF-RHF Final Energy:  -232.12317780090123
    Total Energy =                       -232.1231778009011464
    Molecular point group: c1
  Basis Set: 6-31G*
  Basis Set:
  Basis Set: 6-31G*
  Basis Set:
  @DF-RHF Final Energy:  -232.12358816423577
    Total Energy =                       -232.1235881642359686
  Basis Set: 6-31G*
  Basis Set:
  Basis Set: 6-31G*
  Basis Set:
  @DF-RHF Final Energy:  -232.13058412903726
    Total Energy =                       -232.1305841290372882
  Basis Set: 6-31G*
  Basis Set:
  Basis Set: 6-31G*
  Basis Set:
  @DF-RHF Final Energy:  -232.13342014589739
    Total Energy =                       -232.1334201458972757
  Basis Set: 6-31G*
  Basis Set:
  @DF-RHF Final Energy:  -232.13386212986114
    Total Energy =                       -232.1338621298610860
  Basis Set: 6-31G*
  Basis Set:
  @DF-RHF Final Energy:  -232.13400353033003
    Total Energy =                       -232.1340035303299487
  Basis Set: 6-31G*
  Basis Set:
  Basis Set: 6-31G*
  Basis Set:
  @DF-RHF Final Energy:  -232.13401957368407
    Total Energy =                       -232.1340195736842134
  Basis Set: 6-31G*
  Basis Set:
  Basis Set: 6-31G*
  Basis Set:
  @DF-RHF Final Energy:  -232.13402144923677
    Total Energy =                       -232.1340214492366272
  Basis Set: 6-31G*
  Basis Set:
  Charge       = 0
  Multiplicity = 1
  Basis Set: 6-31G*
  Basis Set:

    Orbital Energies (a.u.)
    -----------------------

    Doubly Occupied:

       1A    -20.550354     2A    -11.266015     3A    -11.262462
       4A    -11.220827     5A    -11.217229     6A     -1.372039
       7A     -1.058577     8A     -0.961114     9A     -0.885943
      10A     -0.801069    11A     -0.670077    12A     -0.658996
      13A     -0.629644    14A     -0.605732    15A     -0.563727
      16A     -0.532068    17A     -0.526860    18A     -0.499500
      19A     -0.489180    20A     -0.447476    21A     -0.406559

  @DF-RHF Final Energy:  -232.13402164908467

   => Energetics <=

    Nuclear Repulsion Energy =            192.0901178566988392
    One-Electron Energy =                -695.1973798778369655
    Two-Electron Energy =                 270.9732403720531124
    DFT Exchange-Correlation Energy =       0.0000000000000000
    Empirical Dispersion Energy =           0.0000000000000000
    PCM Polarization Energy =               0.0000000000000000
    EFP Energy =                            0.0000000000000000
    Total Energy =                       -232.1340216490850139
    Molecular point group: c1
  Basis Set: 6-31G*
  Basis Set:

  -Total Gradient:
     Atom            X                  Y                   Z
    ------   -----------------  -----------------  -----------------
       1       -0.000011562056    -0.000005278730    -0.000001113479
       2       -0.000136467200    -0.000129356587    -0.003883326144
       3        0.000977436296     0.001125291588     0.005816485499
       4        0.000005696424     0.000001542658     0.000002686794
       5       -0.000000931882    -0.000003723532    -0.000002342258
       6       -0.003862788084    -0.004526982816    -0.002499657715
       7        0.000009063614     0.000004321617    -0.000012973465
       8        0.003024211729     0.003540068305     0.000590474197
       9       -0.000004082565    -0.000011108226    -0.000004527693
      10       -0.000006302859    -0.000000673762     0.000004180336
      11        0.000002034174     0.000007122261     0.000001375481
      12        0.000002078688    -0.000003343334    -0.000006749472
      13       -0.000000108066     0.000005714673    -0.000000863981
      14       -0.000002605089    -0.000000913355     0.000003315358
      15        0.000004326877    -0.000002680763    -0.000006963458

  **** Optimization is complete! (in 9 steps) ****
    Final optimized geometry and variables:
    Molecular point group: c1

    Geometry (in Angstrom), charge = 0, multiplicity = 1:

    H           -2.527958763976     1.592496491321     0.572234221111
    C           -1.855651728974     0.757185963466     0.429856606731
    O           -0.566097588067     1.280373205819     0.368123038347
    H           -2.134978943613     0.241696330215    -0.483719518614
    H           -1.975675927503     0.070444165350     1.266694719996
    C            0.499046360406     0.370290692561     0.368327706570
    C            0.365483906042    -0.817524527638    -0.579024070321
    H            0.694623430170     0.035335226022     1.387830924299
    H            1.362962301993     0.955678112482     0.074428895586
    C            1.657255361195    -1.634292244957    -0.629646627939
    H           -0.451247998960    -1.463417698229    -0.271334817933
    H            0.121625894025    -0.448923034762    -1.571840294474
    H            1.920891998702    -2.015793906476     0.352762925054
    H            1.552977314174    -2.484339953896    -1.295407635741
    H            2.489618012643    -1.034936765393    -0.986438115455

  Mulliken Charges: (a.u.)
   Center  Symbol    Alpha    Beta     Spin     Total
       1     H     0.41232  0.41232  0.00000  0.17535
       2     C     3.08117  3.08117  0.00000 -0.16235
       3     O     4.30993  4.30993  0.00000 -0.61985
       4     H     0.42747  0.42747  0.00000  0.14505
       5     H     0.43215  0.43215  0.00000  0.13569
       6     C     2.97745  2.97745  0.00000  0.04509
       7     C     3.17701  3.17701  0.00000 -0.35402
       8     H     0.43175  0.43175  0.00000  0.13650
       9     H     0.41782  0.41782  0.00000  0.16437
      10     C     3.24574  3.24574  0.00000 -0.49147
      11     H     0.41913  0.41913  0.00000  0.16173
      12     H     0.41463  0.41463  0.00000  0.17074
      13     H     0.41957  0.41957  0.00000  0.16086
      14     H     0.41529  0.41529  0.00000  0.16942
      15     H     0.41856  0.41856  0.00000  0.16287

   Total alpha = 21.00000, Total beta = 21.00000, Total charge = -0.00000
