  ==> Input File <==

--------------------------------------------------------------------------
set {
	reference rhf
	basis 6-31G*
}

set_num_threads( 4 )
memory 2 gb

molecule MOL {
0 1

H	 -1.836216	 1.387520	 -0.000064
C	 -1.301823	 0.443321	 -0.000031
O	 -0.003969	 0.658512	 0.000451
O	 -1.829879	 -0.616434	 -0.000857
C	 0.850537	 -0.484732	 0.000380
C	 0.522280	 -1.296939	 1.234433
H	 1.879131	 -0.151097	 0.000811
H	 0.681292	 -1.046949	 -0.907675
H	 0.689990	 -0.715414	 2.133730
H	 1.152949	 -2.178985	 1.272968
H	 -0.513631	 -1.615681	 1.220999

	symmetry c1
}
set optking {
	frozen_dihedral = ("
		7 5 3 2
	")
}

ee = optimize('scf')
oeprop('DIPOLE', 'QUADRUPOLE', 'MULLIKEN_CHARGES')
f=open( 'psi4out.xyz', 'w' )
f.write( "11  " )
f.write( str(ee) + "\n" )
f.write( MOL.save_string_xyz() )
f.close()
--------------------------------------------------------------------------

    Molecular point group: c1
  Charge       = 0
  Multiplicity = 1
  Basis Set: 6-31G*
  Basis Set:
  @DF-RHF Final Energy:  -266.81890246079331
    Total Energy =                       -266.8189024607934812
    Molecular point group: c1
  Basis Set: 6-31G*
  Basis Set:
  Basis Set: 6-31G*
  Basis Set:
  @DF-RHF Final Energy:  -266.82540591408463
    Total Energy =                       -266.8254059140845129
  Basis Set: 6-31G*
  Basis Set:
  Basis Set: 6-31G*
  Basis Set:
  @DF-RHF Final Energy:  -266.82454986431662
    Total Energy =                       -266.8245498643166229
  Basis Set: 6-31G*
  Basis Set:
  Basis Set: 6-31G*
  Basis Set:
  @DF-RHF Final Energy:  -266.82493813744378
    Total Energy =                       -266.8249381374438371
  Basis Set: 6-31G*
  Basis Set:
  Basis Set: 6-31G*
  Basis Set:
  @DF-RHF Final Energy:  -266.82617596533646
    Total Energy =                       -266.8261759653365743
  Basis Set: 6-31G*
  Basis Set:
  Basis Set: 6-31G*
  Basis Set:
  @DF-RHF Final Energy:  -266.82623623239067
    Total Energy =                       -266.8262362323907269
  Basis Set: 6-31G*
  Basis Set:
  Basis Set: 6-31G*
  Basis Set:
  @DF-RHF Final Energy:  -266.82623973550392
    Total Energy =                       -266.8262397355040321
  Basis Set: 6-31G*
  Basis Set:
  Charge       = 0
  Multiplicity = 1
  Basis Set: 6-31G*
  Basis Set:

    Orbital Energies (a.u.)
    -----------------------

    Doubly Occupied:

       1A    -20.612392     2A    -20.556809     3A    -11.379178
       4A    -11.294028     5A    -11.220897     6A     -1.474611
       7A     -1.374250     8A     -1.047875     9A     -0.914278
      10A     -0.795442    11A     -0.739440    12A     -0.683299
      13A     -0.656191    14A     -0.625850    15A     -0.575319
      16A     -0.542034    17A     -0.530569    18A     -0.503514
      19A     -0.458396    20A     -0.450294

  @DF-RHF Final Energy:  -266.82624007398874

   => Energetics <=

    Nuclear Repulsion Energy =            182.8371888698890473
    One-Electron Energy =                -726.4575237738656597
    Two-Electron Energy =                 276.7940948299880120
    DFT Exchange-Correlation Energy =       0.0000000000000000
    Empirical Dispersion Energy =           0.0000000000000000
    PCM Polarization Energy =               0.0000000000000000
    EFP Energy =                            0.0000000000000000
    Total Energy =                       -266.8262400739886289
    Molecular point group: c1
  Basis Set: 6-31G*
  Basis Set:

  -Total Gradient:
     Atom            X                  Y                   Z
    ------   -----------------  -----------------  -----------------
       1       -0.000004370034    -0.000013733981     0.000009443347
       2       -0.000079486252     0.000094428660     0.004343956690
       3        0.000147768594    -0.000170268949    -0.005512429238
       4       -0.000012405607     0.000023921448     0.000006667783
       5        0.000062836832    -0.000111908099    -0.003598276600
       6       -0.000004120322     0.000008327715     0.000021435176
       7       -0.000107179651     0.000145412408     0.004751313608
       8       -0.000000863398     0.000014581409    -0.000015394913
       9       -0.000001881644    -0.000010947500    -0.000000960387
      10       -0.000020191441     0.000012306980    -0.000007375705
      11        0.000019892928     0.000007879911     0.000001620240

  **** Optimization is complete! (in 8 steps) ****
    Final optimized geometry and variables:
    Molecular point group: c1

    Geometry (in Angstrom), charge = 0, multiplicity = 1:

    H           -1.406940649018     1.751025249702    -0.228714902756
    C           -0.945878736714     0.769849716418    -0.273887860283
    O            0.363338212783     0.892432053928    -0.248190817704
    O           -1.557792404738    -0.240924706335    -0.354499500047
    C            1.181542582513    -0.278765542372    -0.197797560502
    C            0.969514364587    -1.111615199126     1.056889672107
    H            2.185897984794     0.116940452639    -0.186376219102
    H            1.022990122612    -0.858583435189    -1.096268354037
    H            1.080658386392    -0.492967520403     1.941418678191
    H            1.727685933812    -1.887989732180     1.093207852666
    H           -0.003287442613    -1.579762799565     1.073938883884

  Mulliken Charges: (a.u.)
   Center  Symbol    Alpha    Beta     Spin     Total
       1     H     0.41128  0.41128  0.00000  0.17744
       2     C     2.72587  2.72587  0.00000  0.54826
       3     O     4.29397  4.29397  0.00000 -0.58794
       4     O     4.26424  4.26424  0.00000 -0.52849
       5     C     3.00316  3.00316  0.00000 -0.00632
       6     C     3.26355  3.26355  0.00000 -0.52710
       7     H     0.40724  0.40724  0.00000  0.18552
       8     H     0.40713  0.40713  0.00000  0.18574
       9     H     0.41416  0.41416  0.00000  0.17168
      10     H     0.41642  0.41642  0.00000  0.16715
      11     H     0.39297  0.39297  0.00000  0.21406

   Total alpha = 20.00000, Total beta = 20.00000, Total charge = -0.00000
