  ==> Input File <==

--------------------------------------------------------------------------
set {
	reference rhf
	basis 6-31G*
}

set_num_threads( 4 )
memory 2 gb

molecule MOL {
0 1

H	 -3.420663	 1.227371	 -1.044276
O	 -3.452007	 0.283848	 -0.965577
C	 -3.181085	 -0.079926	 0.364119
C	 -1.765924	 0.277073	 0.805136
H	 -3.327791	 -1.152017	 0.410903
H	 -3.905698	 0.375695	 1.036898
C	 -0.677594	 -0.417312	 -0.014550
H	 -1.637766	 1.358238	 0.744969
H	 -1.659588	 0.017670	 1.857098
C	 0.738335	 -0.034840	 0.421385
H	 -0.814977	 -0.178223	 -1.064632
H	 -0.802730	 -1.495410	 0.071702
C	 1.822265	 -0.738362	 -0.399735
H	 0.853533	 1.043532	 0.342250
H	 0.871597	 -0.279636	 1.474438
C	 3.258060	 -0.455774	 0.057203
H	 1.718003	 -0.459167	 -1.447053
H	 1.651028	 -1.811884	 -0.354513
C	 3.755412	 0.958648	 -0.246862
H	 3.920202	 -1.169180	 -0.427471
H	 3.339232	 -0.645180	 1.125725
H	 3.674254	 1.180948	 -1.307586
H	 4.798363	 1.069229	 0.033964
H	 3.192197	 1.712493	 0.293203

	symmetry c1
}
set optking {
	frozen_dihedral = ("
		20 16 13 17
	")
}

ee = optimize('scf')
oeprop('DIPOLE', 'QUADRUPOLE', 'MULLIKEN_CHARGES')
f=open( 'psi4out.xyz', 'w' )
f.write( "24  " )
f.write( str(ee) + "\n" )
f.write( MOL.save_string_xyz() )
f.close()
--------------------------------------------------------------------------

    Molecular point group: c1
  Charge       = 0
  Multiplicity = 1
  Basis Set: 6-31G*
  Basis Set:
  @DF-RHF Final Energy:  -349.24750308287156
    Total Energy =                       -349.2475030828720719
    Molecular point group: c1
  Basis Set: 6-31G*
  Basis Set:
  Basis Set: 6-31G*
  Basis Set:
  @DF-RHF Final Energy:  -349.24744949790221
    Total Energy =                       -349.2474494979019255
  Basis Set: 6-31G*
  Basis Set:
  Basis Set: 6-31G*
  Basis Set:
  @DF-RHF Final Energy:  -349.24754169122224
    Total Energy =                       -349.2475416912221249
  Basis Set: 6-31G*
  Basis Set:
  Basis Set: 6-31G*
  Basis Set:
  @DF-RHF Final Energy:  -349.24754016445797
    Total Energy =                       -349.2475401644578596
  Basis Set: 6-31G*
  Basis Set:
  Basis Set: 6-31G*
  Basis Set:
  @DF-RHF Final Energy:  -349.24754331562752
    Total Energy =                       -349.2475433156270697
  Basis Set: 6-31G*
  Basis Set:
  Charge       = 0
  Multiplicity = 1
  Basis Set: 6-31G*
  Basis Set:

    Orbital Energies (a.u.)
    -----------------------

    Doubly Occupied:

       1A    -20.553581     2A    -11.267708     3A    -11.217476
       4A    -11.214009     5A    -11.212448     6A    -11.211577
       7A    -11.211086     8A    -11.207502     9A     -1.360180
      10A     -1.088503    11A     -1.048311    12A     -0.985819
      13A     -0.914896    14A     -0.849753    15A     -0.800523
      16A     -0.777498    17A     -0.679063    18A     -0.653691
      19A     -0.624484    20A     -0.620164    21A     -0.597326
      22A     -0.584204    23A     -0.558110    24A     -0.539992
      25A     -0.514698    26A     -0.510370    27A     -0.498256
      28A     -0.472933    29A     -0.467581    30A     -0.459554
      31A     -0.455765    32A     -0.450772    33A     -0.418953

  @DF-RHF Final Energy:  -349.24754331192594

   => Energetics <=

    Nuclear Repulsion Energy =            384.3218124886284386
    One-Electron Energy =               -1235.0851372373876984
    Two-Electron Energy =                 501.5157814368332083
    DFT Exchange-Correlation Energy =       0.0000000000000000
    Empirical Dispersion Energy =           0.0000000000000000
    PCM Polarization Energy =               0.0000000000000000
    EFP Energy =                            0.0000000000000000
    Total Energy =                       -349.2475433119260515
    Molecular point group: c1
  Basis Set: 6-31G*
  Basis Set:

  -Total Gradient:
     Atom            X                  Y                   Z
    ------   -----------------  -----------------  -----------------
       1        0.000000791476    -0.000002235699     0.000001228938
       2        0.000009439419    -0.000008338696    -0.000006286614
       3       -0.000004393673     0.000022824628     0.000001944510
       4       -0.000004429541    -0.000012599291     0.000001778233
       5        0.000001900732     0.000001686714     0.000001313396
       6       -0.000002398969     0.000001429998     0.000001252515
       7       -0.000001084676    -0.000003521579     0.000012050162
       8       -0.000000035039    -0.000001866898     0.000004017238
       9       -0.000000903865    -0.000006158189     0.000000712996
      10       -0.000001167930     0.000010968200    -0.000007925690
      11       -0.000000181950    -0.000004099475    -0.000005354694
      12        0.000000279839     0.000000222714     0.000000584673
      13        0.000293349860    -0.001156162963    -0.000146377170
      14        0.000002596277     0.000001713533    -0.000000272208
      15       -0.000003968473    -0.000003308020    -0.000002489940
      16        0.000052869793     0.000893426207    -0.000794561730
      17       -0.000254448151     0.000834219943     0.000244541479
      18        0.000000116282     0.000001029358    -0.000002157709
      19        0.000002525171    -0.000002170121    -0.000000254024
      20       -0.000093658386    -0.000567107478     0.000696273532
      21        0.000000486240     0.000001091827     0.000002167526
      22        0.000000413485     0.000000349678    -0.000001787268
      23        0.000000064218     0.000001823868    -0.000000772143
      24        0.000001837870    -0.000003218259     0.000000373993

  **** Optimization is complete! (in 6 steps) ****
    Final optimized geometry and variables:
    Molecular point group: c1

    Geometry (in Angstrom), charge = 0, multiplicity = 1:

    H           -3.404942264879     1.256817501863    -1.024761781800
    O           -3.445045550766     0.313010905658    -0.954296553639
    C           -3.184274784231    -0.064386671376     0.373643721801
    C           -1.768252439956     0.276181773288     0.824813109377
    H           -3.340589738347    -1.135417377718     0.410393494221
    H           -3.908292092200     0.391781234428     1.046627628617
    C           -0.681915998011    -0.418689382752     0.002888934666
    H           -1.630891424561     1.356796087986     0.776274236282
    H           -1.668913508357     0.005167123714     1.874534319555
    C            0.735071894924    -0.048867130103     0.445991796899
    H           -0.814678956409    -0.170467637685    -1.045630726373
    H           -0.814231930806    -1.496642094168     0.080213878780
    C            1.818023029554    -0.755988573005    -0.374080175652
    H            0.858816809865     1.029150506243     0.373228115821
    H            0.862542166552    -0.300181873276     1.498097632572
    C            3.253280176146    -0.449251535726     0.070447177965
    H            1.702192388260    -0.486725262127    -1.422695551143
    H            1.654748097479    -1.829733087435    -0.313386602466
    C            3.722297905098     0.972906487996    -0.240769214106
    H            3.925295363007    -1.155147876783    -0.411430597279
    H            3.344134609210    -0.633705166938     1.139210633204
    H            3.650793572146     1.182506177082    -1.304618822663
    H            4.758209470045     1.111371898858     0.053474331463
    H            3.133253450239     1.718383550292     0.283386360462

  Mulliken Charges: (a.u.)
   Center  Symbol    Alpha    Beta     Spin     Total
       1     H     0.28339  0.28339  0.00000  0.43323
       2     O     4.36829  4.36829  0.00000 -0.73658
       3     C     2.99615  2.99615  0.00000  0.00769
       4     C     3.16904  3.16904  0.00000 -0.33808
       5     H     0.41632  0.41632  0.00000  0.16736
       6     H     0.42815  0.42815  0.00000  0.14369
       7     C     3.15181  3.15181  0.00000 -0.30363
       8     H     0.42835  0.42835  0.00000  0.14330
       9     H     0.42234  0.42234  0.00000  0.15533
      10     C     3.15337  3.15337  0.00000 -0.30675
      11     H     0.41202  0.41202  0.00000  0.17595
      12     H     0.42363  0.42363  0.00000  0.15274
      13     C     3.15239  3.15239  0.00000 -0.30477
      14     H     0.42334  0.42334  0.00000  0.15331
      15     H     0.42533  0.42533  0.00000  0.14933
      16     C     3.15284  3.15284  0.00000 -0.30569
      17     H     0.42358  0.42358  0.00000  0.15285
      18     H     0.42186  0.42186  0.00000  0.15628
      19     C     3.24063  3.24063  0.00000 -0.48126
      20     H     0.42091  0.42091  0.00000  0.15818
      21     H     0.42383  0.42383  0.00000  0.15233
      22     H     0.42205  0.42205  0.00000  0.15591
      23     H     0.41953  0.41953  0.00000  0.16093
      24     H     0.42083  0.42083  0.00000  0.15833

   Total alpha = 33.00000, Total beta = 33.00000, Total charge = -0.00000
