                              Psi4 1.0.54 Driver

  ==> Input File <==

--------------------------------------------------------------------------
set {
	reference rhf
	basis cc-pvtz
}

set_num_threads( 4 )
memory 2 gb

molecule MOL {
0 1

H	 2.867672	 -0.456275	 0.875795
C	 2.403497	 -0.020426	 0.000000
N	 0.989899	 -0.304564	 0.000000
H	 2.867672	 -0.456275	 -0.875795
H	 2.620366	 1.051270	 0.000000
C	 0.447371	 -0.413614	 1.338409
C	 0.661519	 -1.479007	 -0.781293
H	 0.919996	 -1.228034	 1.896165
H	 0.639093	 0.507195	 1.877001
C	 -1.048261	 -0.657235	 1.275368
H	 1.010368	 -1.339912	 -1.797995
H	 1.150250	 -2.373560	 -0.382970
C	 -0.839616	 -1.695254	 -0.789870
H	 -1.446270	 -0.831351	 2.265267
H	 -1.541509	 0.216374	 0.853927
O	 -1.343630	 -1.787497	 0.509594
H	 -1.086808	 -2.619689	 -1.292804
H	 -1.322066	 -0.875359	 -1.318181

	symmetry c1
}
set optking {
	frozen_dihedral = ("
		6 3 2 5
	")
}

ee,wfn = optimize('scf', return_wfn=True)
oeprop( wfn, 'DIPOLE', 'QUADRUPOLE', 'MULLIKEN_CHARGES')
f=open( 'psi4out.xyz', 'w' )
f.write( "18  " )
f.write( str(ee) + "\n" )
f.write( MOL.save_string_xyz() )
f.close()
--------------------------------------------------------------------------

    Molecular point group: c1
  Charge       = 0
  Multiplicity = 1
  Basis Set: CC-PVTZ
  Basis Set:
  @DF-RHF Final Energy:  -325.14169018048057
    Total Energy =                       -325.1416901804803388
    Molecular point group: c1
  Basis Set: CC-PVTZ
  Basis Set:
  Basis Set: CC-PVTZ
  Basis Set:
  @DF-RHF Final Energy:  -325.14238858835046
    Total Energy =                       -325.1423885883505136
  Basis Set: CC-PVTZ
  Basis Set:
  Basis Set: CC-PVTZ
  Basis Set:
  @DF-RHF Final Energy:  -325.14248010236884
    Total Energy =                       -325.1424801023686086
  Basis Set: CC-PVTZ
  Basis Set:
  Basis Set: CC-PVTZ
  Basis Set:
  @DF-RHF Final Energy:  -325.14248333785395
    Total Energy =                       -325.1424833378538892
  Basis Set: CC-PVTZ
  Basis Set:
  Charge       = 0
  Multiplicity = 1
  Basis Set: CC-PVTZ
  Basis Set:

    Orbital Energies (a.u.)
    -----------------------

    Doubly Occupied:

       1A    -20.547256     2A    -15.544197     3A    -11.263975
       4A    -11.263926     5A    -11.242477     6A    -11.242356
       7A    -11.238809     8A     -1.386283     9A     -1.231921
      10A     -1.038581    11A     -0.981523    12A     -0.883205
      13A     -0.870114    14A     -0.775145    15A     -0.684787
      16A     -0.645877    17A     -0.644307    18A     -0.632457
      19A     -0.630831    20A     -0.573776    21A     -0.556569
      22A     -0.545927    23A     -0.525917    24A     -0.500778
      25A     -0.482842    26A     -0.453520    27A     -0.410196
      28A     -0.355894

  @DF-RHF Final Energy:  -325.14248360872119

   => Energetics <=

    Nuclear Repulsion Energy =            341.7183087405027777
    One-Electron Energy =               -1119.4146889597436711
    Two-Electron Energy =                 452.5538966105196437
    DFT Exchange-Correlation Energy =       0.0000000000000000
    Empirical Dispersion Energy =           0.0000000000000000
    PCM Polarization Energy =               0.0000000000000000
    EFP Energy =                            0.0000000000000000
    Total Energy =                       -325.1424836087211929
    Molecular point group: c1
  Basis Set: CC-PVTZ
  Basis Set:

  -Total Gradient:
     Atom            X                  Y                   Z
    ------   -----------------  -----------------  -----------------
       1        0.000021261105     0.000001408749    -0.000015489271
       2        0.000276215611    -0.001378718933     0.006360196827
       3       -0.001039307261     0.005135794853    -0.001373263352
       4        0.000018274572    -0.000003659006    -0.000004739594
       5       -0.000021198889    -0.000038659565    -0.005001698037
       6        0.000733894597    -0.003725936229    -0.000042432933
       7        0.000005878558     0.000028516819     0.000073868377
       8        0.000016910495    -0.000008576109     0.000002399130
       9        0.000000453224    -0.000003583211    -0.000002061038
      10       -0.000016698464     0.000004365422     0.000009351403
      11       -0.000003947887     0.000000320280     0.000006531524
      12        0.000009179490    -0.000010720897     0.000000590898
      13       -0.000023169747     0.000007150061    -0.000020305732
      14       -0.000000874761    -0.000003427180    -0.000000606199
      15        0.000000671653     0.000001457015    -0.000000577703
      16        0.000018099327    -0.000006078714     0.000004360329
      17        0.000001550364    -0.000001102932     0.000006392680
      18        0.000002808007     0.000001449573    -0.000002517307

  **** Optimization is complete! (in 5 steps) ****
    Final optimized geometry and variables:
    Molecular point group: c1

    Geometry (in Angstrom), charge = 0, multiplicity = 1:

    H            2.754910020284     0.442810772698     0.591655574896
    C            2.228851053680     0.890719534177    -0.250377836206
    N            0.807677392395     0.605814852059    -0.245381610931
    H            2.676889211565     0.504101651295    -1.157289447355
    H            2.403795063560     1.960453139707    -0.256500766828
    C            0.276266278389     0.505772747264     1.099609506696
    C            0.466564999820    -0.587184791777    -0.997522027075
    H            0.748381455295    -0.312416671326     1.651152853438
    H            0.484231848726     1.424923630347     1.636383635219
    C           -1.222260508808     0.278054614582     1.057352034358
    H            0.805827009071    -0.474032133190    -2.020165776248
    H            0.948336821895    -1.478279716758    -0.583636853100
    C           -1.036821522596    -0.789554221145    -0.994033852314
    H           -1.609415677555     0.118717144666     2.054169535081
    H           -1.711702401931     1.152353308859     0.632862614881
    O           -1.537480175179    -0.857578273482     0.308015203869
    H           -1.294602437662    -1.718884538931    -1.482705649074
    H           -1.512687102869     0.027291745007    -1.533183350615

  Mulliken Charges: (a.u.)
   Center  Symbol    Alpha    Beta     Spin     Total
       1     H     0.46511  0.46511  0.00000  0.06978
       2     C     3.09340  3.09340  0.00000 -0.18679
       3     N     3.61956  3.61956  0.00000 -0.23911
       4     H     0.45576  0.45576  0.00000  0.08849
       5     H     0.44873  0.44873  0.00000  0.10255
       6     C     3.04250  3.04250  0.00000 -0.08500
       7     C     3.03967  3.03967  0.00000 -0.07935
       8     H     0.46794  0.46794  0.00000  0.06412
       9     H     0.45378  0.45378  0.00000  0.09245
      10     C     2.98393  2.98393  0.00000  0.03215
      11     H     0.45403  0.45403  0.00000  0.09194
      12     H     0.46925  0.46925  0.00000  0.06151
      13     C     2.98445  2.98445  0.00000  0.03110
      14     H     0.45002  0.45002  0.00000  0.09996
      15     H     0.46767  0.46767  0.00000  0.06466
      16     O     4.18647  4.18647  0.00000 -0.37294
      17     H     0.44989  0.44989  0.00000  0.10023
      18     H     0.46787  0.46787  0.00000  0.06426

   Total alpha = 28.00000, Total beta = 28.00000, Total charge =  0.00000

*** Psi4 exiting successfully. Buy a developer a beer!
