  ==> Input File <==

--------------------------------------------------------------------------
set {
	reference rhf
	basis 6-31G*
}

set_num_threads( 4 )
memory 2 gb

molecule MOL {
0 1

H	 -2.646374	 -0.642757	 1.268656
C	 -2.083525	 -0.384536	 0.393091
O	 -0.807605	 -0.127164	 0.768327
F	 -2.118945	 -1.383102	 -0.486752
F	 -2.621877	 0.670592	 -0.209486
C	 0.209381	 -0.568720	 -0.058386
C	 1.243988	 -1.245120	 0.831687
Cl	 0.935673	 0.783037	 -0.942958
H	 -0.134208	 -1.286046	 -0.783068
F	 2.242325	 -1.705255	 0.107988
F	 0.676179	 -2.266259	 1.441856
F	 1.721817	 -0.431366	 1.741334

	symmetry c1
}
set optking {
	frozen_dihedral = ("
		6 3 2 4
	")
}

ee = optimize('scf')
oeprop('DIPOLE', 'QUADRUPOLE', 'MULLIKEN_CHARGES')
f=open( 'psi4out.xyz', 'w' )
f.write( "12  " )
f.write( str(ee) + "\n" )
f.write( MOL.save_string_xyz() )
f.close()
--------------------------------------------------------------------------

    Molecular point group: c1
  Charge       = 0
  Multiplicity = 1
  Basis Set: 6-31G*
  Basis Set:
  @DF-RHF Final Energy: -1146.30851317804922
    Total Energy =                      -1146.3085131780489974
    Molecular point group: c1
  Basis Set: 6-31G*
  Basis Set:
  Basis Set: 6-31G*
  Basis Set:
  @DF-RHF Final Energy: -1146.30887688096050
    Total Energy =                      -1146.3088768809593603
  Basis Set: 6-31G*
  Basis Set:
  Basis Set: 6-31G*
  Basis Set:
  @DF-RHF Final Energy: -1146.31031067418598
    Total Energy =                      -1146.3103106741855299
  Basis Set: 6-31G*
  Basis Set:
  Basis Set: 6-31G*
  Basis Set:
  @DF-RHF Final Energy: -1146.31048005446519
    Total Energy =                      -1146.3104800544667796
  Basis Set: 6-31G*
  Basis Set:
  @DF-RHF Final Energy: -1146.31062679230763
    Total Energy =                      -1146.3106267923076302
  @DF-RHF Final Energy: -1146.31084763324043
    Total Energy =                      -1146.3108476332404280
  @DF-RHF Final Energy: -1146.31089824984110
    Total Energy =                      -1146.3108982498411024
  Basis Set: 6-31G*
  Basis Set:
  @DF-RHF Final Energy: -1146.31095290296048
    Total Energy =                      -1146.3109529029602527
  Basis Set: 6-31G*
  Basis Set:
  Basis Set: 6-31G*
  Basis Set:
  @DF-RHF Final Energy: -1146.31096569878628
    Total Energy =                      -1146.3109656987874132
  Basis Set: 6-31G*
  Basis Set:
  Basis Set: 6-31G*
  Basis Set:
  @DF-RHF Final Energy: -1146.31096676339803
    Total Energy =                      -1146.3109667633980280
  Basis Set: 6-31G*
  Basis Set:
  Charge       = 0
  Multiplicity = 1
  Basis Set: 6-31G*
  Basis Set:

    Orbital Energies (a.u.)
    -----------------------

    Doubly Occupied:

       1A   -104.841748     2A    -26.360494     3A    -26.359483
       4A    -26.357889     5A    -26.354955     6A    -26.338244
       7A    -20.647716     8A    -11.528516     9A    -11.491022
      10A    -11.401015    11A    -10.576572    12A     -8.045908
      13A     -8.042403    14A     -8.042294    15A     -1.761728
      16A     -1.718726    17A     -1.658107    18A     -1.656758
      19A     -1.639289    20A     -1.483454    21A     -1.177341
      22A     -1.055119    23A     -0.986365    24A     -0.918906
      25A     -0.858702    26A     -0.850915    27A     -0.846693
      28A     -0.820342    29A     -0.817303    30A     -0.793139
      31A     -0.729614    32A     -0.726260    33A     -0.705778
      34A     -0.696258    35A     -0.679706    36A     -0.675109
      37A     -0.660039    38A     -0.658432    39A     -0.640934
      40A     -0.637141    41A     -0.601659    42A     -0.575836
      43A     -0.517967    44A     -0.474360    45A     -0.468181

  @DF-RHF Final Energy: -1146.31096685906573

   => Energetics <=

    Nuclear Repulsion Energy =            734.6441258727984405
    One-Electron Energy =               -3052.1533448664677053
    Two-Electron Energy =                1171.1982521346035355
    DFT Exchange-Correlation Energy =       0.0000000000000000
    Empirical Dispersion Energy =           0.0000000000000000
    PCM Polarization Energy =               0.0000000000000000
    EFP Energy =                            0.0000000000000000
    Total Energy =                      -1146.3109668590659567
    Molecular point group: c1
  Basis Set: 6-31G*
  Basis Set:

  -Total Gradient:
     Atom            X                  Y                   Z
    ------   -----------------  -----------------  -----------------
       1       -0.000003864157    -0.000004915611    -0.000003020964
       2       -0.000881538266    -0.004079534658     0.002167284199
       3        0.000688993661     0.004588642921    -0.001487189466
       4        0.000518272572     0.002046065789    -0.001351137554
       5       -0.000007156719    -0.000007749288    -0.000000621245
       6       -0.000313245307    -0.002536950777     0.000683962099
       7        0.000028354790    -0.000009348168     0.000001544505
       8        0.000004949140    -0.000000592154     0.000005467567
       9       -0.000002801564    -0.000011245284    -0.000002327178
      10        0.000004207705     0.000014687468    -0.000016367985
      11       -0.000027558051    -0.000012957078     0.000009813315
      12       -0.000008613843     0.000013896798    -0.000007407255

  **** Optimization is complete! (in 11 steps) ****
    Final optimized geometry and variables:
    Molecular point group: c1

    Geometry (in Angstrom), charge = 0, multiplicity = 1:

    H           -2.806288550546    -0.208736516981     0.895431560609
    C           -2.162588136814     0.170614903308     0.124694596445
    O           -0.874910986795     0.132798671853     0.567669837397
    F           -2.308806102651    -0.544890663114    -0.986819658345
    F           -2.505104414396     1.416058772003    -0.166471988377
    C            0.160024572668    -0.211016860525    -0.271491226594
    C            1.287429994541    -0.693295237062     0.632546779483
    CL           0.702013963243     1.156036403323    -1.268871095639
    H           -0.103771143005    -1.008812055005    -0.941244021038
    F            2.320329514489    -1.070616850981    -0.089997657961
    F            0.866529557049    -1.739189898644     1.317287287063
    F            1.677578718778     0.227024908920     1.479201233315

  Mulliken Charges: (a.u.)
   Center  Symbol    Alpha    Beta     Spin     Total
       1     H     0.40635  0.40635  0.00000  0.18730
       2     C     2.55749  2.55749  0.00000  0.88502
       3     O     4.31003  4.31003  0.00000 -0.62007
       4     F     4.68555  4.68555  0.00000 -0.37110
       5     F     4.67642  4.67642  0.00000 -0.35284
       6     C     3.03878  3.03878  0.00000 -0.07757
       7     C     2.43232  2.43232  0.00000  1.13535
       8    CL     8.50604  8.50604  0.00000 -0.01207
       9     H     0.36683  0.36683  0.00000  0.26633
      10     F     4.67457  4.67457  0.00000 -0.34914
      11     F     4.67787  4.67787  0.00000 -0.35575
      12     F     4.66773  4.66773  0.00000 -0.33546

   Total alpha = 45.00000, Total beta = 45.00000, Total charge = -0.00000
