                              Psi4 1.0.54 Driver

  ==> Input File <==

--------------------------------------------------------------------------
set {
	reference rhf
	basis cc-pvtz
}

set_num_threads( 4 )
memory 2 gb

molecule MOL {
0 1

O	 1.246914	 1.243542	 0.553493
C	 0.860843	 0.273204	 -0.013120
C	 -0.623368	 -0.117453	 -0.005652
C	 1.847711	 -0.606208	 -0.755244
C	 -0.892588	 -1.253841	 -1.002900
C	 -1.473463	 1.100646	 -0.372896
C	 -0.981836	 -0.579025	 1.418506
H	 -0.609333	 -0.970024	 -2.010649
H	 -1.950451	 -1.487353	 -1.013175
H	 -0.360848	 -2.161259	 -0.746463
H	 -1.232203	 1.461623	 -1.364827
H	 -2.524364	 0.834451	 -0.354500
H	 -1.312381	 1.914833	 0.318657
H	 -2.035706	 -0.826342	 1.468082
H	 -0.425078	 -1.458934	 1.716857
H	 -0.788494	 0.205047	 2.140903
H	 1.783291	 -0.396189	 -1.817084
H	 2.844825	 -0.371955	 -0.415600
H	 1.648759	 -1.660260	 -0.618768

	symmetry c1
}
set optking {
	frozen_dihedral = ("
		1 2 3 5
	")
}

ee,wfn = optimize('scf', return_wfn=True)
oeprop( wfn, 'DIPOLE', 'QUADRUPOLE', 'MULLIKEN_CHARGES')
f=open( 'psi4out.xyz', 'w' )
f.write( "19  " )
f.write( str(ee) + "\n" )
f.write( MOL.save_string_xyz() )
f.close()
--------------------------------------------------------------------------

    Molecular point group: c1
  Charge       = 0
  Multiplicity = 1
  Basis Set: CC-PVTZ
  Basis Set:
  @DF-RHF Final Energy:  -309.17129870961196
    Total Energy =                       -309.1712987096117331
    Molecular point group: c1
  Basis Set: CC-PVTZ
  Basis Set:
  Basis Set: CC-PVTZ
  Basis Set:
  @DF-RHF Final Energy:  -309.17177000411175
    Total Energy =                       -309.1717700041115791
  Basis Set: CC-PVTZ
  Basis Set:
  Basis Set: CC-PVTZ
  Basis Set:
  @DF-RHF Final Energy:  -309.17281447703118
    Total Energy =                       -309.1728144770310109
  Basis Set: CC-PVTZ
  Basis Set:
  Basis Set: CC-PVTZ
  Basis Set:
  @DF-RHF Final Energy:  -309.17285219422217
    Total Energy =                       -309.1728521942222301
  Basis Set: CC-PVTZ
  Basis Set:
  @DF-RHF Final Energy:  -309.17306384954986
    Total Energy =                       -309.1730638495499761
  @DF-RHF Final Energy:  -309.17308329274931
    Total Energy =                       -309.1730832927495385
  @DF-RHF Final Energy:  -309.17311611291291
    Total Energy =                       -309.1731161129125667
  Basis Set: CC-PVTZ
  Basis Set:
  @DF-RHF Final Energy:  -309.17313320679943
    Total Energy =                       -309.1731332067992071
  Basis Set: CC-PVTZ
  Basis Set:
  Basis Set: CC-PVTZ
  Basis Set:
  @DF-RHF Final Energy:  -309.17313681009693
    Total Energy =                       -309.1731368100970485
  Basis Set: CC-PVTZ
  Basis Set:
  Basis Set: CC-PVTZ
  Basis Set:
  @DF-RHF Final Energy:  -309.17313849607166
    Total Energy =                       -309.1731384960720561
  Basis Set: CC-PVTZ
  Basis Set:
  Charge       = 0
  Multiplicity = 1
  Basis Set: CC-PVTZ
  Basis Set:

    Orbital Energies (a.u.)
    -----------------------

    Doubly Occupied:

       1A    -20.536354     2A    -11.318508     3A    -11.245519
       4A    -11.226109     5A    -11.219959     6A    -11.217268
       7A    -11.211350     8A     -1.398276     9A     -1.109128
      10A     -1.004707    11A     -0.943259    12A     -0.939245
      13A     -0.834087    14A     -0.705683    15A     -0.666866
      16A     -0.633703    17A     -0.623981    18A     -0.589465
      19A     -0.586799    20A     -0.573024    21A     -0.552275
      22A     -0.546745    23A     -0.523698    24A     -0.514887
      25A     -0.503077    26A     -0.472850    27A     -0.462886
      28A     -0.393777

  @DF-RHF Final Energy:  -309.17313887320034

   => Energetics <=

    Nuclear Repulsion Energy =            326.8143576042915015
    One-Electron Energy =               -1066.8680263095302507
    Two-Electron Energy =                 430.8805298320382917
    DFT Exchange-Correlation Energy =       0.0000000000000000
    Empirical Dispersion Energy =           0.0000000000000000
    PCM Polarization Energy =               0.0000000000000000
    EFP Energy =                            0.0000000000000000
    Total Energy =                       -309.1731388732005144
    Molecular point group: c1
  Basis Set: CC-PVTZ
  Basis Set:

  -Total Gradient:
     Atom            X                  Y                   Z
    ------   -----------------  -----------------  -----------------
       1        0.000120776874    -0.000576410476     0.000925630313
       2       -0.000107008250     0.000584028742    -0.001046108055
       3       -0.000129141984     0.000523356376    -0.000480700278
       4       -0.000015138350     0.000001402158     0.000014407886
       5        0.000135021515    -0.000527248170     0.000595555430
       6       -0.000009544949     0.000005940816    -0.000001170527
       7        0.000002953925    -0.000002178577     0.000000514967
       8       -0.000004240071    -0.000001265563     0.000005461881
       9       -0.000001617351     0.000002582141     0.000002900202
      10        0.000000557700     0.000001304541    -0.000001642084
      11        0.000001333777     0.000006287604    -0.000006795892
      12       -0.000001244738     0.000002958820    -0.000008858783
      13       -0.000007802547    -0.000005376070     0.000006714090
      14       -0.000002602158    -0.000003532140     0.000000354032
      15        0.000004983182    -0.000002133177     0.000004835639
      16       -0.000001457499     0.000002444458    -0.000000287031
      17       -0.000011426751     0.000000674494    -0.000013154692
      18        0.000026707348     0.000012036995    -0.000001626432
      19       -0.000001109671    -0.000024872971     0.000003969332

  **** Optimization is complete! (in 11 steps) ****
    Final optimized geometry and variables:
    Molecular point group: c1

    Geometry (in Angstrom), charge = 0, multiplicity = 1:

    O            1.197218565808     1.256740407176     0.583925943315
    C            0.866118551656     0.265590880085     0.017498162093
    C           -0.620174987718    -0.135519003431    -0.014018830852
    C            1.908524161232    -0.622808353995    -0.624124791333
    C           -0.921408451682    -1.290249450857    -0.975695215055
    C           -1.444197697591     1.094843978978    -0.414079087600
    C           -0.985142253908    -0.559403288440     1.419245717628
    H           -0.674357910463    -1.038691387270    -2.000685076433
    H           -1.980096570177    -1.518321095509    -0.945122165383
    H           -0.387886682346    -2.194998966191    -0.712485528275
    H           -1.203676373824     1.417102819789    -1.421634448308
    H           -2.501826510495     0.858382472816    -0.384725555165
    H           -1.254714398562     1.920624828030     0.255358508957
    H           -2.031858273767    -0.836656261557     1.469127089150
    H           -0.401382355484    -1.415898661529     1.740955403566
    H           -0.808726420726     0.249221100925     2.114857113872
    H            1.728089073006    -0.723583068829    -1.687298075673
    H            2.883142997378    -0.190186112379    -0.460338948702
    H            1.876475076670    -1.618070504247    -0.196328705146

  Mulliken Charges: (a.u.)
   Center  Symbol    Alpha    Beta     Spin     Total
       1     O     4.18137  4.18137  0.00000 -0.36274
       2     C     2.84629  2.84629  0.00000  0.30743
       3     C     3.00574  3.00574  0.00000 -0.01148
       4     C     3.16303  3.16303  0.00000 -0.32605
       5     C     3.16558  3.16558  0.00000 -0.33116
       6     C     3.15347  3.15347  0.00000 -0.30694
       7     C     3.15354  3.15354  0.00000 -0.30708
       8     H     0.44539  0.44539  0.00000  0.10922
       9     H     0.44253  0.44253  0.00000  0.11493
      10     H     0.44568  0.44568  0.00000  0.10863
      11     H     0.45023  0.45023  0.00000  0.09954
      12     H     0.45080  0.45080  0.00000  0.09839
      13     H     0.43493  0.43493  0.00000  0.13013
      14     H     0.44901  0.44901  0.00000  0.10198
      15     H     0.44966  0.44966  0.00000  0.10068
      16     H     0.43705  0.43705  0.00000  0.12589
      17     H     0.44710  0.44710  0.00000  0.10581
      18     H     0.43171  0.43171  0.00000  0.13658
      19     H     0.44688  0.44688  0.00000  0.10624

   Total alpha = 28.00000, Total beta = 28.00000, Total charge = -0.00000

*** Psi4 exiting successfully. Buy a developer a beer!
