  ==> Input File <==

--------------------------------------------------------------------------
set {
	reference rhf
	basis cc-pvtz
}

set_num_threads( 4 )
memory 2 gb

molecule MOL {
0 1

H	 3.174133	 -1.907669	 -3.569453
C	 2.683440	 -1.979973	 -2.606073
C	 1.430821	 -1.111844	 -2.561943
H	 2.442336	 -3.024107	 -2.436683
H	 3.399186	 -1.679681	 -1.848082
C	 0.709545	 -1.182973	 -1.224157
H	 0.741904	 -1.411221	 -3.343948
H	 1.701555	 -0.078838	 -2.767315
N	 -0.485981	 -0.367837	 -1.222125
H	 0.416614	 -2.210278	 -1.029206
H	 1.401410	 -0.902842	 -0.424199
C	 -1.215959	 -0.382435	 0.027143
H	 -0.253236	 0.572341	 -1.465464
C	 -2.451944	 0.502410	 -0.038737
H	 -1.518274	 -1.405843	 0.228189
H	 -0.593767	 -0.073347	 0.872376
C	 -3.752217	 -0.292550	 0.005776
H	 -2.407325	 1.093801	 -0.946480
H	 -2.431979	 1.206234	 0.790023
H	 -3.817783	 -0.982946	 -0.828547
H	 -4.612613	 0.364348	 -0.042306
H	 -3.830160	 -0.871666	 0.919868

	symmetry c1
}
set optking {
	frozen_dihedral = ("
		15 12 14 18
	")
}

ee = optimize('scf')
oeprop('DIPOLE', 'QUADRUPOLE', 'MULLIKEN_CHARGES')
f=open( 'psi4out.xyz', 'w' )
f.write( "22  " )
f.write( str(ee) + "\n" )
f.write( MOL.save_string_xyz() )
f.close()
--------------------------------------------------------------------------

    Molecular point group: c1
  Charge       = 0
  Multiplicity = 1
  Basis Set: CC-PVTZ
  Basis Set:
  @DF-RHF Final Energy:  -290.48416271315011
    Total Energy =                       -290.4841627131499990
    Molecular point group: c1
  Basis Set: CC-PVTZ
  Basis Set:
  Basis Set: CC-PVTZ
  Basis Set:
  @DF-RHF Final Energy:  -290.48453958915786
    Total Energy =                       -290.4845395891578619
  Basis Set: CC-PVTZ
  Basis Set:
  Basis Set: CC-PVTZ
  Basis Set:
  @DF-RHF Final Energy:  -290.48464103352040
    Total Energy =                       -290.4846410335200630
  Basis Set: CC-PVTZ
  Basis Set:
  Basis Set: CC-PVTZ
  Basis Set:
  @DF-RHF Final Energy:  -290.48464375724456
    Total Energy =                       -290.4846437572444415
  Basis Set: CC-PVTZ
  Basis Set:
  Charge       = 0
  Multiplicity = 1
  Basis Set: CC-PVTZ
  Basis Set:

    Orbital Energies (a.u.)
    -----------------------

    Doubly Occupied:

       1A    -15.528825     2A    -11.236356     3A    -11.236002
       4A    -11.211993     5A    -11.211572     6A    -11.207660
       7A    -11.204474     8A     -1.206990     9A     -1.058437
      10A     -1.024874    11A     -0.927377    12A     -0.869838
      13A     -0.811729    14A     -0.794251    15A     -0.663624
      16A     -0.633406    17A     -0.615291    18A     -0.608453
      19A     -0.573350    20A     -0.563347    21A     -0.540196
      22A     -0.525218    23A     -0.507906    24A     -0.487816
      25A     -0.476240    26A     -0.475337    27A     -0.466859
      28A     -0.451053    29A     -0.360819

  @DF-RHF Final Energy:  -290.48464399098469

   => Energetics <=

    Nuclear Repulsion Energy =            315.0645399965886213
    One-Electron Energy =               -1016.1397877257588789
    Two-Electron Energy =                 410.5906037381852229
    DFT Exchange-Correlation Energy =       0.0000000000000000
    Empirical Dispersion Energy =           0.0000000000000000
    PCM Polarization Energy =               0.0000000000000000
    EFP Energy =                            0.0000000000000000
    Total Energy =                       -290.4846439909850915
    Molecular point group: c1
  Basis Set: CC-PVTZ
  Basis Set:

  -Total Gradient:
     Atom            X                  Y                   Z
    ------   -----------------  -----------------  -----------------
       1       -0.000003664759     0.000001799594     0.000000821102
       2       -0.000004941842     0.000000229264     0.000003290725
       3        0.000006682937     0.000001102244     0.000000505485
       4        0.000000408838    -0.000001829938     0.000000026426
       5       -0.000000266994     0.000000748690     0.000000217239
       6       -0.000000055674     0.000006184140    -0.000014977263
       7       -0.000000706435    -0.000000810802    -0.000003299727
       8        0.000001128693     0.000002067123    -0.000001977010
       9        0.000012702435    -0.000010449486     0.000034355350
      10       -0.000001285727    -0.000002490691     0.000001444233
      11        0.000004757336    -0.000000547296     0.000002227435
      12       -0.000055690130     0.000106365653     0.002518968658
      13        0.000000065755    -0.000006143587     0.000003816486
      14        0.001288710867     0.001979395623     0.000856359466
      15       -0.000158940555    -0.000393668066    -0.002268279114
      16       -0.000009641916     0.000017109655    -0.000019012477
      17        0.000003401635    -0.000004557051     0.000000318171
      18       -0.001089614556    -0.001680363211    -0.001125092232
      19        0.000008405126    -0.000022618550     0.000008158492
      20        0.000012959988    -0.000004065632     0.000011292536
      21       -0.000006238990     0.000002951677    -0.000004819829
      22       -0.000008176032     0.000009590646    -0.000004344151

  **** Optimization is complete! (in 5 steps) ****
    Final optimized geometry and variables:
    Molecular point group: c1

    Geometry (in Angstrom), charge = 0, multiplicity = 1:

    H            3.584639139044    -1.236277750119    -2.502471785877
    C            3.102045673977    -1.303867277789    -1.534651118539
    C            1.858070491926    -0.424097287795    -1.479420183116
    H            2.852730669960    -2.345656962565    -1.362761998051
    H            3.827314129543    -1.009997042276    -0.783226958685
    C            1.147671547885    -0.489301687367    -0.135411574894
    H            1.159767895872    -0.716858130914    -2.255591223960
    H            2.136771859766     0.606400764622    -1.686709676115
    N           -0.041646934398     0.334556144154    -0.123682778624
    H            0.849152035848    -1.514447911544     0.062750393815
    H            1.848443982506    -0.213859537546     0.658507795445
    C           -0.755536060495     0.330132777164     1.139372801551
    H            0.198057774962     1.272331022078    -0.369647182506
    C           -2.022213828603     1.199097628606     1.071323366042
    H           -1.030710964504    -0.699418449167     1.340585132972
    H           -0.119023597657     0.652523967060     1.965672286278
    C           -3.311457226448     0.382042718620     1.058316552153
    H           -1.987580503261     1.790007560682     0.162871310019
    H           -2.044600984140     1.893806620541     1.903559741445
    H           -3.317401637894    -0.308864737866     0.222557665333
    H           -4.182057382347     1.022105553140     0.969386482380
    H           -3.418081323685    -0.196827457263     1.969788500338

  Mulliken Charges: (a.u.)
   Center  Symbol    Alpha    Beta     Spin     Total
       1     H     0.44772  0.44772  0.00000  0.10456
       2     C     3.15359  3.15359  0.00000 -0.30718
       3     C     3.08044  3.08044  0.00000 -0.16089
       4     H     0.45473  0.45473  0.00000  0.09054
       5     H     0.45613  0.45613  0.00000  0.08774
       6     C     3.02153  3.02153  0.00000 -0.04305
       7     H     0.44918  0.44918  0.00000  0.10164
       8     H     0.45965  0.45965  0.00000  0.08069
       9     N     3.64120  3.64120  0.00000 -0.28241
      10     H     0.45935  0.45935  0.00000  0.08131
      11     H     0.47469  0.47469  0.00000  0.05061
      12     C     3.03222  3.03222  0.00000 -0.06443
      13     H     0.44413  0.44413  0.00000  0.11175
      14     C     3.08264  3.08264  0.00000 -0.16528
      15     H     0.45985  0.45985  0.00000  0.08029
      16     H     0.46717  0.46717  0.00000  0.06565
      17     C     3.14984  3.14984  0.00000 -0.29968
      18     H     0.45646  0.45646  0.00000  0.08708
      19     H     0.45150  0.45150  0.00000  0.09700
      20     H     0.45080  0.45080  0.00000  0.09839
      21     H     0.45087  0.45087  0.00000  0.09825
      22     H     0.45629  0.45629  0.00000  0.08742

   Total alpha = 29.00000, Total beta = 29.00000, Total charge = -0.00000
