  ==> Input File <==

--------------------------------------------------------------------------
set {
	reference rhf
	basis cc-pvtz
}

set_num_threads( 4 )
memory 2 gb

molecule MOL {
0 1

H	 -2.816458	 -0.841657	 -0.064679
N	 -1.878861	 -0.711874	 0.250184
C	 -1.341419	 0.551458	 -0.220231
H	 -1.333674	 -1.468530	 -0.105118
C	 0.082190	 0.731516	 0.254705
H	 -1.357065	 0.652078	 -1.304747
H	 -1.939897	 1.357530	 0.189797
O	 0.178460	 1.944007	 0.939035
H	 0.359561	 -0.091755	 0.911563
H	 0.755595	 0.727962	 -0.599368
C	 1.459910	 2.261956	 1.370329
H	 1.411668	 3.210884	 1.884717
H	 1.845911	 1.511731	 2.057250
H	 2.150303	 2.350784	 0.534848

	symmetry c1
}
set optking {
	frozen_dihedral = ("
		8 5 3 6
	")
}

ee = optimize('scf')
oeprop('DIPOLE', 'QUADRUPOLE', 'MULLIKEN_CHARGES')
f=open( 'psi4out.xyz', 'w' )
f.write( "14  " )
f.write( str(ee) + "\n" )
f.write( MOL.save_string_xyz() )
f.close()
--------------------------------------------------------------------------

    Molecular point group: c1
  Charge       = 0
  Multiplicity = 1
  Basis Set: CC-PVTZ
  Basis Set:
  @DF-RHF Final Energy:  -248.21740114047611
    Total Energy =                       -248.2174011404759995
    Molecular point group: c1
  Basis Set: CC-PVTZ
  Basis Set:
  Basis Set: CC-PVTZ
  Basis Set:
  @DF-RHF Final Energy:  -248.21795271898011
    Total Energy =                       -248.2179527189801433
  Basis Set: CC-PVTZ
  Basis Set:
  Basis Set: CC-PVTZ
  Basis Set:
  @DF-RHF Final Energy:  -248.21811283469142
    Total Energy =                       -248.2181128346918513
  Basis Set: CC-PVTZ
  Basis Set:
  Basis Set: CC-PVTZ
  Basis Set:
  @DF-RHF Final Energy:  -248.21812797844697
    Total Energy =                       -248.2181279784466597
  Basis Set: CC-PVTZ
  Basis Set:
  Basis Set: CC-PVTZ
  Basis Set:
  @DF-RHF Final Energy:  -248.21813008158816
    Total Energy =                       -248.2181300815881855
  Basis Set: CC-PVTZ
  Basis Set:
  Charge       = 0
  Multiplicity = 1
  Basis Set: CC-PVTZ
  Basis Set:

    Orbital Energies (a.u.)
    -----------------------

    Doubly Occupied:

       1A    -20.547588     2A    -15.530962     3A    -11.263013
       4A    -11.260775     5A    -11.240073     6A     -1.381262
       7A     -1.179917     8A     -0.997573     9A     -0.900016
      10A     -0.824511    11A     -0.677200    12A     -0.675425
      13A     -0.645548    14A     -0.619700    15A     -0.609794
      16A     -0.537314    17A     -0.526069    18A     -0.500928
      19A     -0.469342    20A     -0.415436    21A     -0.388837

  @DF-RHF Final Energy:  -248.21813020008105

   => Energetics <=

    Nuclear Repulsion Energy =            191.0967272122864244
    One-Electron Energy =                -716.2471490315531355
    Two-Electron Energy =                 276.9322916191857757
    DFT Exchange-Correlation Energy =       0.0000000000000000
    Empirical Dispersion Energy =           0.0000000000000000
    PCM Polarization Energy =               0.0000000000000000
    EFP Energy =                            0.0000000000000000
    Total Energy =                       -248.2181302000809637
    Molecular point group: c1
  Basis Set: CC-PVTZ
  Basis Set:

  -Total Gradient:
     Atom            X                  Y                   Z
    ------   -----------------  -----------------  -----------------
       1       -0.000000963273     0.000005528284    -0.000008202356
       2       -0.000007589060    -0.000022825716     0.000035925681
       3       -0.000468210809     0.002050470238     0.000510688433
       4        0.000003599836     0.000000116188    -0.000008862991
       5        0.000466109339     0.000428253933    -0.001600133387
       6        0.000310612390    -0.001784318484    -0.000145011620
       7       -0.000003806928    -0.000013624033     0.000006385805
       8       -0.000288641956    -0.000668674193     0.001211061169
       9       -0.000000206362    -0.000005357057    -0.000002354688
      10       -0.000005286246    -0.000007421218    -0.000003987896
      11       -0.000000401845     0.000022689953     0.000008003094
      12        0.000007106294     0.000002810743     0.000004133428
      13       -0.000007742401    -0.000002674910    -0.000006826719
      14       -0.000004578979    -0.000004973721    -0.000000817952

  **** Optimization is complete! (in 6 steps) ****
    Final optimized geometry and variables:
    Molecular point group: c1

    Geometry (in Angstrom), charge = 0, multiplicity = 1:

    H           -2.552356498124    -1.766688536605    -0.473389248104
    N           -1.580021642687    -1.687455810685    -0.262987567722
    C           -1.053697200397    -0.415473553887    -0.740635110297
    H           -1.124403704803    -2.455880394291    -0.709979757285
    C            0.386384784100    -0.198384908569    -0.272047569041
    H           -1.103145710829    -0.331506932653    -1.824477644871
    H           -1.655068176861     0.378213383540    -0.321968604346
    O            0.475160610381     1.020666984878     0.400308118790
    H            0.668835631488    -1.009161244848     0.394749092070
    H            1.076719846063    -0.203340970035    -1.114140532032
    C            1.745889560363     1.319586097995     0.872734957469
    H            1.696145480544     2.273838050528     1.376929410430
    H            2.095402989140     0.568767105884     1.578111958783
    H            2.467667299568     1.390157850969     0.061359914835

  Mulliken Charges: (a.u.)
   Center  Symbol    Alpha    Beta     Spin     Total
       1     H     0.42905  0.42905  0.00000  0.14189
       2     N     3.68791  3.68791  0.00000 -0.37583
       3     C     3.03485  3.03485  0.00000 -0.06969
       4     H     0.43199  0.43199  0.00000  0.13602
       5     C     2.96176  2.96176  0.00000  0.07647
       6     H     0.46484  0.46484  0.00000  0.07032
       7     H     0.44790  0.44790  0.00000  0.10420
       8     O     4.17246  4.17246  0.00000 -0.34492
       9     H     0.47095  0.47095  0.00000  0.05810
      10     H     0.47754  0.47754  0.00000  0.04492
      11     C     3.02940  3.02940  0.00000 -0.05880
      12     H     0.44691  0.44691  0.00000  0.10619
      13     H     0.47157  0.47157  0.00000  0.05687
      14     H     0.47288  0.47288  0.00000  0.05425

   Total alpha = 21.00000, Total beta = 21.00000, Total charge = -0.00000
