                              Psi4 1.0.54 Driver

  ==> Input File <==

--------------------------------------------------------------------------
set {
	reference rhf
	basis cc-pvtz
}

set_num_threads( 4 )
memory 2 gb

molecule MOL {
0 1

H	 1.128311	 0.207724	 1.465118
C	 1.134565	 0.093781	 0.372499
C	 0.062554	 0.862911	 -0.350953
O	 1.948932	 -0.587720	 -0.146651
C	 -1.257493	 0.906181	 0.425074
H	 -0.068575	 0.429665	 -1.334109
H	 0.436462	 1.876433	 -0.477605
C	 -1.937520	 -0.454860	 0.542472
H	 -1.924061	 1.601737	 -0.071376
H	 -1.079050	 1.313537	 1.416369
H	 -2.159615	 -0.863536	 -0.436923
H	 -2.869197	 -0.373806	 1.089326
H	 -1.311935	 -1.172712	 1.061478

	symmetry c1
}
set optking {
	frozen_dihedral = ("
		6 3 2 4
	")
}

ee,wfn = optimize('scf', return_wfn=True)
oeprop( wfn, 'DIPOLE', 'QUADRUPOLE', 'MULLIKEN_CHARGES')
f=open( 'psi4out.xyz', 'w' )
f.write( "13  " )
f.write( str(ee) + "\n" )
f.write( MOL.save_string_xyz() )
f.close()
--------------------------------------------------------------------------

    Molecular point group: c1
  Charge       = 0
  Multiplicity = 1
  Basis Set: CC-PVTZ
  Basis Set:
  @DF-RHF Final Energy:  -231.07037129684355
    Total Energy =                       -231.0703712968435752
    Molecular point group: c1
  Basis Set: CC-PVTZ
  Basis Set:
  Basis Set: CC-PVTZ
  Basis Set:
  @DF-RHF Final Energy:  -231.06937787561813
    Total Energy =                       -231.0693778756181018
  Basis Set: CC-PVTZ
  Basis Set:
  Basis Set: CC-PVTZ
  Basis Set:
  @DF-RHF Final Energy:  -231.07043028292949
    Total Energy =                       -231.0704302829294647
  Basis Set: CC-PVTZ
  Basis Set:
  Basis Set: CC-PVTZ
  Basis Set:
  @DF-RHF Final Energy:  -231.07044375618014
    Total Energy =                       -231.0704437561801399
  Basis Set: CC-PVTZ
  Basis Set:
  Basis Set: CC-PVTZ
  Basis Set:
  @DF-RHF Final Energy:  -231.07044269879003
    Total Energy =                       -231.0704426987900888
  Basis Set: CC-PVTZ
  Basis Set:
  Basis Set: CC-PVTZ
  Basis Set:
  @DF-RHF Final Energy:  -231.07044464585385
    Total Energy =                       -231.0704446458539110
  Basis Set: CC-PVTZ
  Basis Set:
  Charge       = 0
  Multiplicity = 1
  Basis Set: CC-PVTZ
  Basis Set:

    Orbital Energies (a.u.)
    -----------------------

    Doubly Occupied:

       1A    -20.552145     2A    -11.322355     3A    -11.236081
       4A    -11.234946     5A    -11.221317     6A     -1.407502
       7A     -1.088724     8A     -0.974011     9A     -0.848863
      10A     -0.791402    11A     -0.665157    12A     -0.650769
      13A     -0.634694    14A     -0.595685    15A     -0.564341
      16A     -0.534820    17A     -0.508682    18A     -0.493775
      19A     -0.484589    20A     -0.412923

  @DF-RHF Final Energy:  -231.07044482154123

   => Energetics <=

    Nuclear Repulsion Energy =            173.5221569177184051
    One-Electron Energy =                -656.7396387908647739
    Two-Electron Energy =                 252.1470370516050821
    DFT Exchange-Correlation Energy =       0.0000000000000000
    Empirical Dispersion Energy =           0.0000000000000000
    PCM Polarization Energy =               0.0000000000000000
    EFP Energy =                            0.0000000000000000
    Total Energy =                       -231.0704448215412867
    Molecular point group: c1
  Basis Set: CC-PVTZ
  Basis Set:

  -Total Gradient:
     Atom            X                  Y                   Z
    ------   -----------------  -----------------  -----------------
       1       -0.000000867304    -0.000001865384    -0.000001838240
       2       -0.001134053385    -0.001441169103     0.000212882824
       3        0.001185436019     0.001210774975    -0.000528654887
       4        0.000672051013     0.000894267605    -0.000079154373
       5        0.000003859269     0.000000092611     0.000000067651
       6       -0.000728392631    -0.000662344184     0.000400592828
       7        0.000002956680     0.000002343937    -0.000001572276
       8       -0.000002418599     0.000000642492    -0.000001550464
       9        0.000000346361    -0.000000543577     0.000000937436
      10        0.000002226390     0.000000163274    -0.000002440341
      11        0.000001328095    -0.000000969212     0.000000404652
      12       -0.000002677842    -0.000002894427     0.000000185850
      13        0.000000205937     0.000001500994     0.000000139341

  **** Optimization is complete! (in 7 steps) ****
    Final optimized geometry and variables:
    Molecular point group: c1

    Geometry (in Angstrom), charge = 0, multiplicity = 1:

    H            1.182565365825     0.073682027856     1.284588578621
    C            1.152117373540    -0.055587954352     0.194241025083
    C            0.064930769556     0.711038438996    -0.513968539523
    O            1.959123577736    -0.730666483626    -0.343973414848
    C           -1.248500146901     0.761534446104     0.267100931847
    H           -0.074754134641     0.275780598828    -1.495405586911
    H            0.447099628954     1.719921971684    -0.652658441499
    C           -1.929512434801    -0.598649929599     0.390835978540
    H           -1.918301394958     1.456621970780    -0.225733386613
    H           -1.063929338537     1.169854879687     1.256871169240
    H           -2.158778283203    -1.008059417905    -0.586742183565
    H           -2.857108193437    -0.518613735249     0.944575396429
    H           -1.300638904329    -1.316755633488     0.906610826538

  Mulliken Charges: (a.u.)
   Center  Symbol    Alpha    Beta     Spin     Total
       1     H     0.46347  0.46347  0.00000  0.07306
       2     C     2.90888  2.90888  0.00000  0.18223
       3     C     3.08701  3.08701  0.00000 -0.17402
       4     O     4.16391  4.16391  0.00000 -0.32781
       5     C     3.10385  3.10385  0.00000 -0.20769
       6     H     0.44180  0.44180  0.00000  0.11640
       7     H     0.44083  0.44083  0.00000  0.11834
       8     C     3.14511  3.14511  0.00000 -0.29023
       9     H     0.44375  0.44375  0.00000  0.11250
      10     H     0.45166  0.45166  0.00000  0.09668
      11     H     0.45089  0.45089  0.00000  0.09822
      12     H     0.44584  0.44584  0.00000  0.10831
      13     H     0.45299  0.45299  0.00000  0.09402

   Total alpha = 20.00000, Total beta = 20.00000, Total charge = -0.00000

*** Psi4 exiting successfully. Buy a developer a beer!
