                              Psi4 1.0.54 Driver

  ==> Input File <==

--------------------------------------------------------------------------
set {
	reference rhf
	basis cc-pvtz
}

set_num_threads( 4 )
memory 2 gb

molecule MOL {
0 1

O	 0.074770	 1.259872	 0.000487
C	 0.029490	 0.077183	 0.000078
C	 -1.232113	 -0.748027	 0.000015
O	 1.106773	 -0.690081	 -0.000204
C	 -2.501422	 0.088592	 -0.000052
H	 -1.188777	 -1.400384	 -0.865133
H	 -1.188857	 -1.400312	 0.865225
H	 -2.548170	 0.725504	 -0.873205
H	 -3.371613	 -0.556398	 -0.000040
H	 -2.548215	 0.725571	 0.873047
C	 0.906899	 -2.089257	 -0.000503
H	 0.360895	 -2.396521	 0.879100
H	 1.890294	 -2.530574	 -0.001199
H	 0.359970	 -2.395903	 -0.879754

	symmetry c1
}
set optking {
	frozen_dihedral = ("
		11 4 2 3
	")
}

ee,wfn = optimize('scf', return_wfn=True)
oeprop( wfn, 'DIPOLE', 'QUADRUPOLE', 'MULLIKEN_CHARGES')
f=open( 'psi4out.xyz', 'w' )
f.write( "14  " )
f.write( str(ee) + "\n" )
f.write( MOL.save_string_xyz() )
f.close()
--------------------------------------------------------------------------

    Molecular point group: c1
  Charge       = 0
  Multiplicity = 1
  Basis Set: CC-PVTZ
  Basis Set:
  @DF-RHF Final Energy:  -305.96170035993811
    Total Energy =                       -305.9617003599376517
    Molecular point group: c1
  Basis Set: CC-PVTZ
  Basis Set:
  Basis Set: CC-PVTZ
  Basis Set:
  @DF-RHF Final Energy:  -305.93995932628559
    Total Energy =                       -305.9399593262857024
  Basis Set: CC-PVTZ
  Basis Set:
  Basis Set: CC-PVTZ
  Basis Set:
  @DF-RHF Final Energy:  -305.96878729998775
    Total Energy =                       -305.9687872999879801
  Basis Set: CC-PVTZ
  Basis Set:
  Basis Set: CC-PVTZ
  Basis Set:
  @DF-RHF Final Energy:  -305.97260553797616
    Total Energy =                       -305.9726055379762215
  Basis Set: CC-PVTZ
  Basis Set:
  @DF-RHF Final Energy:  -305.97333100727093
    Total Energy =                       -305.9733310072709855
  Basis Set: CC-PVTZ
  Basis Set:
  @DF-RHF Final Energy:  -305.97349111074618
    Total Energy =                       -305.9734911107462381
  Basis Set: CC-PVTZ
  Basis Set:
  Basis Set: CC-PVTZ
  Basis Set:
  @DF-RHF Final Energy:  -305.97349959483518
    Total Energy =                       -305.9734995948352889
  Basis Set: CC-PVTZ
  Basis Set:
  Basis Set: CC-PVTZ
  Basis Set:
  @DF-RHF Final Energy:  -305.97349136223278
    Total Energy =                       -305.9734913622330623
  Basis Set: CC-PVTZ
  Basis Set:
  Charge       = 0
  Multiplicity = 1
  Basis Set: CC-PVTZ
  Basis Set:

    Orbital Energies (a.u.)
    -----------------------

    Doubly Occupied:

       1A    -20.596191     2A    -20.528089     3A    -11.366831
       4A    -11.294155     5A    -11.247137     6A    -11.218971
       7A     -1.466960     8A     -1.368101     9A     -1.064444
      10A     -0.988105    11A     -0.900602    12A     -0.769787
      13A     -0.707687    14A     -0.691863    15A     -0.675562
      16A     -0.625864    17A     -0.605997    18A     -0.558574
      19A     -0.556669    20A     -0.527372    21A     -0.508826
      22A     -0.508222    23A     -0.451345    24A     -0.435666

  @DF-RHF Final Energy:  -305.97351805118240

   => Energetics <=

    Nuclear Repulsion Energy =            248.0920696020257026
    One-Electron Energy =                -908.8051362172093377
    Two-Electron Energy =                 354.7395485640011543
    DFT Exchange-Correlation Energy =       0.0000000000000000
    Empirical Dispersion Energy =           0.0000000000000000
    PCM Polarization Energy =               0.0000000000000000
    EFP Energy =                            0.0000000000000000
    Total Energy =                       -305.9735180511824524
    Molecular point group: c1
  Basis Set: CC-PVTZ
  Basis Set:

  -Total Gradient:
     Atom            X                  Y                   Z
    ------   -----------------  -----------------  -----------------
       1       -0.000028118634     0.000142744852    -0.000031175992
       2        0.000050968498    -0.000174493327     0.000081335023
       3       -0.000037033510     0.000032695810    -0.000021024467
       4       -0.000028512185     0.000016333846    -0.000017475193
       5        0.000005267340    -0.000009515652     0.000000136940
       6       -0.000002938905     0.000000891618    -0.000003023922
       7        0.000001929331     0.000009643643     0.000000083428
       8        0.000002563576     0.000004986294    -0.000010974452
       9        0.000007449126     0.000000802836     0.000000589272
      10        0.000003045075     0.000001407113     0.000008025139
      11        0.000060603542    -0.000007974000     0.000000834775
      12       -0.000003684356    -0.000013095642     0.000012912240
      13       -0.000022435153     0.000012474278    -0.000000989027
      14       -0.000009103746    -0.000016901667    -0.000019253763

  **** Optimization is complete! (in 9 steps) ****
    Final optimized geometry and variables:
    Molecular point group: c1

    Geometry (in Angstrom), charge = 0, multiplicity = 1:

    O            0.328749003339     1.557088649458     0.012172103483
    C            0.240514642503     0.381392672952     0.002962237780
    C           -1.085171172890    -0.349384523283    -0.000990613235
    O            1.354650238810    -0.346989141529    -0.004913930989
    C           -2.274850314810     0.598086343483     0.008326004664
    H           -1.118725016104    -0.993633610499    -0.872900343910
    H           -1.116216444172    -1.007528576786     0.860571251619
    H           -2.263122847036     1.243110677505    -0.859151610934
    H           -3.198269704852     0.031676006963     0.005128373710
    H           -2.260593719475     1.229112206823     0.885994384754
    C            1.361507181435    -1.751721862634    -0.016644882420
    H            0.887907138851    -2.163200846737     0.864722720436
    H            2.399647793485    -2.041206376836    -0.020885743714
    H            0.884806036064    -2.148461883463    -0.903095839945

  Mulliken Charges: (a.u.)
   Center  Symbol    Alpha    Beta     Spin     Total
       1     O     4.18119  4.18119  0.00000 -0.36238
       2     C     2.80751  2.80751  0.00000  0.38498
       3     C     3.12184  3.12184  0.00000 -0.24369
       4     O     4.12747  4.12747  0.00000 -0.25494
       5     C     3.13898  3.13898  0.00000 -0.27795
       6     H     0.44151  0.44151  0.00000  0.11699
       7     H     0.44150  0.44150  0.00000  0.11699
       8     H     0.44524  0.44524  0.00000  0.10952
       9     H     0.45150  0.45150  0.00000  0.09700
      10     H     0.44524  0.44524  0.00000  0.10952
      11     C     3.04436  3.04436  0.00000 -0.08871
      12     H     0.46067  0.46067  0.00000  0.07865
      13     H     0.43231  0.43231  0.00000  0.13538
      14     H     0.46068  0.46068  0.00000  0.07864

   Total alpha = 24.00000, Total beta = 24.00000, Total charge = -0.00000

*** Psi4 exiting successfully. Buy a developer a beer!
