  ==> Input File <==

--------------------------------------------------------------------------
set {
	reference rhf
	basis cc-pvtz
}

set_num_threads( 4 )
memory 2 gb

molecule MOL {
0 1

O	 0.536497	 1.224421	 0.802357
C	 0.438768	 0.106353	 0.425234
C	 1.567268	 -0.891940	 0.363921
O	 -0.695554	 -0.422406	 0.000602
C	 2.896720	 -0.331799	 0.843264
H	 1.632062	 -1.240476	 -0.660908
H	 1.266638	 -1.752640	 0.951077
H	 3.200714	 0.516232	 0.244392
H	 3.666080	 -1.091375	 0.776342
H	 2.831982	 -0.000571	 1.871041
C	 -1.852370	 0.402254	 0.000718
C	 -3.063338	 -0.501097	 -0.000437
H	 -1.831732	 1.039442	 -0.872158
H	 -1.832493	 1.038301	 0.874430
H	 -3.071944	 -1.133732	 -0.879113
H	 -3.966302	 0.097976	 -0.000483
H	 -3.072764	 -1.134834	 0.877435

	symmetry c1
}
set optking {
	frozen_dihedral = ("
		2 4 11 13
	")
}

ee = optimize('scf')
oeprop('DIPOLE', 'QUADRUPOLE', 'MULLIKEN_CHARGES')
f=open( 'psi4out.xyz', 'w' )
f.write( "17  " )
f.write( str(ee) + "\n" )
f.write( MOL.save_string_xyz() )
f.close()
--------------------------------------------------------------------------

    Molecular point group: c1
  Charge       = 0
  Multiplicity = 1
  Basis Set: CC-PVTZ
  Basis Set:
  @DF-RHF Final Energy:  -345.03986339686998
    Total Energy =                       -345.0398633968695208
    Molecular point group: c1
  Basis Set: CC-PVTZ
  Basis Set:
  Basis Set: CC-PVTZ
  Basis Set:
  @DF-RHF Final Energy:  -345.03991454579585
    Total Energy =                       -345.0399145457960230
  Basis Set: CC-PVTZ
  Basis Set:
  Basis Set: CC-PVTZ
  Basis Set:
  @DF-RHF Final Energy:  -345.03965730978706
    Total Energy =                       -345.0396573097873443
  Basis Set: CC-PVTZ
  Basis Set:
  Basis Set: CC-PVTZ
  Basis Set:
  @DF-RHF Final Energy:  -345.03997854918106
    Total Energy =                       -345.0399785491812281
  Basis Set: CC-PVTZ
  Basis Set:
  Basis Set: CC-PVTZ
  Basis Set:
  @DF-RHF Final Energy:  -345.03999251609338
    Total Energy =                       -345.0399925160935481
  Basis Set: CC-PVTZ
  Basis Set:
  Charge       = 0
  Multiplicity = 1
  Basis Set: CC-PVTZ
  Basis Set:

    Orbital Energies (a.u.)
    -----------------------

    Doubly Occupied:

       1A    -20.593207     2A    -20.532692     3A    -11.363883
       4A    -11.282323     5A    -11.235704     6A    -11.220260
       7A    -11.213675     8A     -1.469694     9A     -1.365083
      10A     -1.070794    11A     -1.032411    12A     -0.912171
      13A     -0.847992    14A     -0.774093    15A     -0.699971
      16A     -0.690454    17A     -0.667141    18A     -0.630213
      19A     -0.586227    20A     -0.573141    21A     -0.558115
      22A     -0.526141    23A     -0.520378    24A     -0.515509
      25A     -0.503592    26A     -0.494083    27A     -0.455321
      28A     -0.438947

  @DF-RHF Final Energy:  -345.03999261973541

   => Energetics <=

    Nuclear Repulsion Energy =            315.1959787689455084
    One-Electron Energy =               -1094.9255133030351317
    Two-Electron Energy =                 434.6895419143539243
    DFT Exchange-Correlation Energy =       0.0000000000000000
    Empirical Dispersion Energy =           0.0000000000000000
    PCM Polarization Energy =               0.0000000000000000
    EFP Energy =                            0.0000000000000000
    Total Energy =                       -345.0399926197357559
    Molecular point group: c1
  Basis Set: CC-PVTZ
  Basis Set:

  -Total Gradient:
     Atom            X                  Y                   Z
    ------   -----------------  -----------------  -----------------
       1        0.000031321962     0.000005260762     0.000008539802
       2       -0.000280457459    -0.000412716031     0.001278292948
       3       -0.000017368097    -0.000001584272     0.000018054648
       4        0.000220202799     0.000290537726    -0.002037883584
       5        0.000001849939     0.000006865256    -0.000004600726
       6       -0.000002214165     0.000006282023    -0.000009019194
       7       -0.000001148176     0.000005247596    -0.000007924008
       8       -0.000001390860    -0.000001181891     0.000001400025
       9       -0.000001337465    -0.000000089943     0.000001426586
      10        0.000002038694     0.000000930074     0.000003925455
      11        0.000830077279     0.001174692289     0.001543524931
      12        0.000009611516     0.000008790544     0.000007864305
      13       -0.000781917191    -0.001074832769    -0.000807635902
      14       -0.000007800452    -0.000004570658    -0.000003365248
      15        0.000001657522     0.000004251564     0.000002240955
      16       -0.000000267271    -0.000001719480     0.000001534225
      17       -0.000002858575    -0.000006162785     0.000003624780

  **** Optimization is complete! (in 6 steps) ****
    Final optimized geometry and variables:
    Molecular point group: c1

    Geometry (in Angstrom), charge = 0, multiplicity = 1:

    O            0.593517547850     1.289548618611     0.437889002951
    C            0.480433804111     0.168499051306     0.074549836787
    C            1.597968653728    -0.842792055280     0.021778610585
    O           -0.658944708695    -0.355710923186    -0.343404922401
    C            2.935388857331    -0.291274425497     0.488789585051
    H            1.654771727703    -1.204306704324    -0.999025033376
    H            1.290486840719    -1.693057049055     0.620392269625
    H            3.246056601460     0.545933611590    -0.121746375720
    H            3.696150725324    -1.059992649848     0.428182521085
    H            2.878605033212     0.053270041341     1.512649296705
    C           -1.826084991894     0.454975250654    -0.327640817590
    C           -3.028001394605    -0.461533900104    -0.358073595098
    H           -1.811206947957     1.096877980094    -1.198943123470
    H           -1.819837260695     1.076983664331     0.553281149902
    H           -3.013303229550    -1.089285375469    -1.240117263448
    H           -3.937187486580     0.128079265583    -0.372562231305
    H           -3.047738707356    -1.100245999298     0.516141732269

  Mulliken Charges: (a.u.)
   Center  Symbol    Alpha    Beta     Spin     Total
       1     O     4.19744  4.19744  0.00000 -0.39488
       2     C     2.80691  2.80691  0.00000  0.38617
       3     C     3.09428  3.09428  0.00000 -0.18855
       4     O     4.15245  4.15245  0.00000 -0.30491
       5     C     3.13984  3.13984  0.00000 -0.27967
       6     H     0.44133  0.44133  0.00000  0.11735
       7     H     0.44200  0.44200  0.00000  0.11599
       8     H     0.44839  0.44839  0.00000  0.10322
       9     H     0.45060  0.45060  0.00000  0.09880
      10     H     0.44856  0.44856  0.00000  0.10289
      11     C     2.98271  2.98271  0.00000  0.03458
      12     C     3.13268  3.13268  0.00000 -0.26536
      13     H     0.45635  0.45635  0.00000  0.08730
      14     H     0.44866  0.44866  0.00000  0.10267
      15     H     0.45135  0.45135  0.00000  0.09729
      16     H     0.45460  0.45460  0.00000  0.09080
      17     H     0.45183  0.45183  0.00000  0.09633

   Total alpha = 28.00000, Total beta = 28.00000, Total charge = -0.00000
