  ==> Input File <==

--------------------------------------------------------------------------
set {
	reference rhf
	basis cc-pvtz
}

set_num_threads( 4 )
memory 2 gb

molecule MOL {
0 1

H	 2.127035	 -1.046048	 0.509862
C	 1.947315	 -0.180337	 -0.141213
C	 0.692262	 0.592428	 0.156232
O	 2.713773	 0.080970	 -1.002546
C	 -0.554654	 -0.292621	 0.086567
H	 0.627021	 1.420656	 -0.537035
H	 0.790667	 0.998869	 1.160722
C	 -1.846385	 0.513195	 -0.016346
H	 -0.473986	 -0.956115	 -0.769708
H	 -0.597929	 -0.929215	 0.966651
C	 -3.089953	 -0.365049	 -0.098564
H	 -1.798267	 1.154820	 -0.891143
H	 -1.925398	 1.173265	 0.842889
H	 -3.055079	 -1.012299	 -0.968245
H	 -3.988403	 0.236438	 -0.170014
H	 -3.183055	 -0.995885	 0.779079

	symmetry c1
}
set optking {
	frozen_dihedral = ("
		6 3 5 9
	")
}

ee = optimize('scf')
oeprop('DIPOLE', 'QUADRUPOLE', 'MULLIKEN_CHARGES')
f=open( 'psi4out.xyz', 'w' )
f.write( "16  " )
f.write( str(ee) + "\n" )
f.write( MOL.save_string_xyz() )
f.close()
--------------------------------------------------------------------------

    Molecular point group: c1
  Charge       = 0
  Multiplicity = 1
  Basis Set: CC-PVTZ
  Basis Set:
  @DF-RHF Final Energy:  -270.11805383467697
    Total Energy =                       -270.1180538346767435
    Molecular point group: c1
  Basis Set: CC-PVTZ
  Basis Set:
  Basis Set: CC-PVTZ
  Basis Set:
  @DF-RHF Final Energy:  -270.11805735924588
    Total Energy =                       -270.1180573592457677
  Basis Set: CC-PVTZ
  Basis Set:
  Basis Set: CC-PVTZ
  Basis Set:
  @DF-RHF Final Energy:  -270.11806276860199
    Total Energy =                       -270.1180627686018170
  Basis Set: CC-PVTZ
  Basis Set:
  Basis Set: CC-PVTZ
  Basis Set:
  @DF-RHF Final Energy:  -270.11815588407455
    Total Energy =                       -270.1181558840746106
  Basis Set: CC-PVTZ
  Basis Set:
  @DF-RHF Final Energy:  -270.11818895767675
    Total Energy =                       -270.1181889576766366
  @DF-RHF Final Energy:  -270.11820036602853
    Total Energy =                       -270.1182003660283044
  @DF-RHF Final Energy:  -270.11820626123654
    Total Energy =                       -270.1182062612366508
  Basis Set: CC-PVTZ
  Basis Set:
  @DF-RHF Final Energy:  -270.11821004872127
    Total Energy =                       -270.1182100487213802
  Basis Set: CC-PVTZ
  Basis Set:
  Basis Set: CC-PVTZ
  Basis Set:
  @DF-RHF Final Energy:  -270.11821246352957
    Total Energy =                       -270.1182124635296873
  Basis Set: CC-PVTZ
  Basis Set:
  Basis Set: CC-PVTZ
  Basis Set:
  @DF-RHF Final Energy:  -270.11821375985750
    Total Energy =                       -270.1182137598574400
  Basis Set: CC-PVTZ
  Basis Set:
  Charge       = 0
  Multiplicity = 1
  Basis Set: CC-PVTZ
  Basis Set:

    Orbital Energies (a.u.)
    -----------------------

    Doubly Occupied:

       1A    -20.551809     2A    -11.321541     3A    -11.234628
       4A    -11.233879     5A    -11.227689     6A    -11.216726
       7A     -1.406647     8A     -1.097639     9A     -1.020187
      10A     -0.907075    11A     -0.812869    12A     -0.794652
      13A     -0.679689    14A     -0.648906    15A     -0.634919
      16A     -0.604264    17A     -0.585999    18A     -0.548235
      19A     -0.530497    20A     -0.511764    21A     -0.488137
      22A     -0.484302    23A     -0.477404    24A     -0.411973

  @DF-RHF Final Energy:  -270.11821400291717

   => Energetics <=

    Nuclear Repulsion Energy =            229.2996176618597985
    One-Electron Energy =                -819.9727988525567071
    Two-Electron Energy =                 320.5549671877800506
    DFT Exchange-Correlation Energy =       0.0000000000000000
    Empirical Dispersion Energy =           0.0000000000000000
    PCM Polarization Energy =               0.0000000000000000
    EFP Energy =                            0.0000000000000000
    Total Energy =                       -270.1182140029168863
    Molecular point group: c1
  Basis Set: CC-PVTZ
  Basis Set:

  -Total Gradient:
     Atom            X                  Y                   Z
    ------   -----------------  -----------------  -----------------
       1       -0.000002413203    -0.000000555313    -0.000000356547
       2       -0.000001748756     0.000000326305    -0.000002886492
       3        0.002006063327    -0.002585383422    -0.002290343573
       4        0.000000445186    -0.000001618397    -0.000001013540
       5       -0.001999543918     0.002969419027    -0.001545455159
       6       -0.001334910090     0.001668802015     0.002141994013
       7        0.000000335272    -0.000004943571     0.000001190884
       8        0.000003578479     0.000000234491    -0.000010282176
       9        0.001331455604    -0.002048395620     0.001698316769
      10       -0.000000861484     0.000004486324     0.000003834983
      11       -0.000001057222    -0.000002536843    -0.000000241120
      12       -0.000000900421     0.000002088215     0.000001616366
      13       -0.000000114622    -0.000002384896     0.000001281269
      14        0.000001265813     0.000001368404     0.000000998913
      15       -0.000000338181    -0.000000097724     0.000000740247
      16       -0.000001255785    -0.000000808993     0.000000605161

  **** Optimization is complete! (in 11 steps) ****
    Final optimized geometry and variables:
    Molecular point group: c1

    Geometry (in Angstrom), charge = 0, multiplicity = 1:

    H            2.095805597291    -1.146295046967     0.651471047256
    C            1.972635315849    -0.239311702813     0.044909741845
    C            0.706971002396     0.529505457730     0.297131665898
    O            2.804745823637     0.066232919745    -0.737403587896
    C           -0.542765348908    -0.354247151743     0.209446364919
    H            0.654294886648     1.365389039238    -0.388116818700
    H            0.777976268751     0.945908900874     1.300209383216
    C           -1.834991462726     0.451649715606     0.133491925929
    H           -0.465332857019    -1.015512865351    -0.649647679150
    H           -0.578417799600    -1.007789613468     1.077116757602
    C           -3.081438015265    -0.425162916933     0.090408347713
    H           -1.807891398002     1.086395289240    -0.746918680104
    H           -1.890508730483     1.118699173760     0.989391259977
    H           -3.067046003142    -1.083035561945    -0.771922636294
    H           -3.980131298233     0.177286450270     0.031535874441
    H           -3.156016057508    -1.044911217610     0.977598921540

  Mulliken Charges: (a.u.)
   Center  Symbol    Alpha    Beta     Spin     Total
       1     H     0.46489  0.46489  0.00000  0.07022
       2     C     2.91033  2.91033  0.00000  0.17934
       3     C     3.07727  3.07727  0.00000 -0.15455
       4     O     4.16404  4.16404  0.00000 -0.32808
       5     C     3.10127  3.10127  0.00000 -0.20254
       6     H     0.44309  0.44309  0.00000  0.11381
       7     H     0.44892  0.44892  0.00000  0.10217
       8     C     3.08409  3.08409  0.00000 -0.16817
       9     H     0.44815  0.44815  0.00000  0.10371
      10     H     0.45175  0.45175  0.00000  0.09650
      11     C     3.14905  3.14905  0.00000 -0.29811
      12     H     0.44989  0.44989  0.00000  0.10022
      13     H     0.45284  0.45284  0.00000  0.09433
      14     H     0.45335  0.45335  0.00000  0.09331
      15     H     0.44654  0.44654  0.00000  0.10692
      16     H     0.45454  0.45454  0.00000  0.09093

   Total alpha = 24.00000, Total beta = 24.00000, Total charge =  0.00000
