  ==> Input File <==

--------------------------------------------------------------------------
set {
	reference rhf
	basis 6-31G*
}

set_num_threads( 1 )
memory 2 gb

molecule MOL {
0 1

H	 5.204638	 -0.017001	 1.447110
C	 4.634951	 -0.456286	 0.634086
C	 3.132810	 -0.363279	 0.898844
H	 4.902616	 0.068125	 -0.278433
H	 4.953122	 -1.489859	 0.527816
C	 2.299323	 -0.980420	 -0.226433
H	 2.855079	 0.678092	 1.025391
H	 2.901083	 -0.867092	 1.835949
C	 0.791628	 -0.918336	 0.019066
H	 2.524740	 -0.480844	 -1.161984
H	 2.583154	 -2.023374	 -0.347797
C	 0.195915	 0.477603	 -0.089202
H	 0.274150	 -1.533851	 -0.715188
H	 0.537933	 -1.341631	 0.988415
C	 -1.181045	 0.701995	 0.511084
O	 0.775728	 1.364299	 -0.640556
C	 -2.285934	 -0.139295	 -0.145128
H	 -1.403175	 1.757384	 0.408484
H	 -1.136633	 0.472094	 1.574031
C	 -3.651768	 0.085446	 0.506485
H	 -2.346596	 0.110469	 -1.202272
H	 -2.034737	 -1.195320	 -0.088721
C	 -4.759797	 -0.746382	 -0.137905
H	 -3.908762	 1.140117	 0.445781
H	 -3.588286	 -0.154158	 1.565709
H	 -4.868882	 -0.505166	 -1.191300
H	 -4.548009	 -1.809175	 -0.062213
H	 -5.715422	 -0.564821	 0.343442

	symmetry c1
}
set optking {
	frozen_dihedral = ("
		10 6 3 2,
		16 12 15 17
	")
}

ee = energy('scf')
oeprop('DIPOLE', 'QUADRUPOLE', 'MULLIKEN_CHARGES')
f=open( 'psi4out.xyz', 'w' )
f.write( "28  " )
f.write( str(ee) + "\n" )
f.write( MOL.save_string_xyz() )
f.close()
--------------------------------------------------------------------------

    Molecular point group: c1

    Geometry (in Angstrom), charge = 0, multiplicity = 1:

       Center              X                  Y                   Z               Mass
    ------------   -----------------  -----------------  -----------------  -----------------
           H          5.206856353770     0.081934718218     1.316535092405     1.007825032070
           C          4.637169353770    -0.357350281782     0.503511092405    12.000000000000
           C          3.135028353770    -0.264343281782     0.768269092405    12.000000000000
           H          4.904834353770     0.167060718218    -0.409007907595     1.007825032070
           H          4.955340353770    -1.390923281782     0.397241092405     1.007825032070
           C          2.301541353770    -0.881484281782    -0.357007907595    12.000000000000
           H          2.857297353770     0.777027718218     0.894816092405     1.007825032070
           H          2.903301353770    -0.768156281782     1.705374092405     1.007825032070
           C          0.793846353770    -0.819400281782    -0.111508907595    12.000000000000
           H          2.526958353770    -0.381908281782    -1.292558907595     1.007825032070
           H          2.585372353770    -1.924438281782    -0.478371907595     1.007825032070
           C          0.198133353770     0.576538718218    -0.219776907595    12.000000000000
           H          0.276368353770    -1.434915281782    -0.845762907595     1.007825032070
           H          0.540151353770    -1.242695281782     0.857840092405     1.007825032070
           C         -1.178826646230     0.800930718218     0.380509092405    12.000000000000
           O          0.777946353770     1.463234718218    -0.771130907595    15.994914619560
           C         -2.283715646230    -0.040359281782    -0.275702907595    12.000000000000
           H         -1.400956646230     1.856319718218     0.277909092405     1.007825032070
           H         -1.134414646230     0.571029718218     1.443456092405     1.007825032070
           C         -3.649549646230     0.184381718218     0.375910092405    12.000000000000
           H         -2.344377646230     0.209404718218    -1.332846907595     1.007825032070
           H         -2.032518646230    -1.096384281782    -0.219295907595     1.007825032070
           C         -4.757578646230    -0.647446281782    -0.268479907595    12.000000000000
           H         -3.906543646230     1.239052718218     0.315206092405     1.007825032070
           H         -3.586067646230    -0.055222281782     1.435134092405     1.007825032070
           H         -4.866663646230    -0.406230281782    -1.321874907595     1.007825032070
           H         -4.545790646230    -1.710239281782    -0.192787907595     1.007825032070
           H         -5.713203646230    -0.465885281782     0.212867092405     1.007825032070

  Charge       = 0
  Multiplicity = 1
  Basis Set: 6-31G*
  Basis Set:

    Orbital Energies (a.u.)
    -----------------------

    Doubly Occupied:

       1A    -20.548101     2A    -11.322138     3A    -11.232373
       4A    -11.229940     5A    -11.228870     6A    -11.226201
       7A    -11.216494     8A    -11.216449     9A    -11.212397
      10A    -11.205741    11A     -1.393197    12A     -1.095302
      13A     -1.077408    14A     -1.022658    15A     -0.990769
      16A     -0.907338    17A     -0.873364    18A     -0.809398
      19A     -0.799721    20A     -0.722916    21A     -0.668346
      22A     -0.654118    23A     -0.627387    24A     -0.619758
      25A     -0.609563    26A     -0.588389    27A     -0.576520
      28A     -0.574989    29A     -0.543223    30A     -0.533136
      31A     -0.520245    32A     -0.506360    33A     -0.499083
      34A     -0.485396    35A     -0.478524    36A     -0.476382
      37A     -0.471625    38A     -0.465125    39A     -0.455031
      40A     -0.392270

  @DF-RHF Final Energy:  -426.16908257746775

   => Energetics <=

    Nuclear Repulsion Energy =            531.3107502252061067
    One-Electron Energy =               -1630.8072410904212575
    Two-Electron Energy =                 673.3274082877474029
    DFT Exchange-Correlation Energy =       0.0000000000000000
    Empirical Dispersion Energy =           0.0000000000000000
    PCM Polarization Energy =               0.0000000000000000
    EFP Energy =                            0.0000000000000000
    Total Energy =                       -426.1690825774676341

  Mulliken Charges: (a.u.)
   Center  Symbol    Alpha    Beta     Spin     Total
       1     H     0.41934  0.41934  0.00000  0.16131
       2     C     3.24011  3.24011  0.00000 -0.48022
       3     C     3.15646  3.15646  0.00000 -0.31292
       4     H     0.41829  0.41829  0.00000  0.16342
       5     H     0.42362  0.42362  0.00000  0.15276
       6     C     3.14907  3.14907  0.00000 -0.29815
       7     H     0.41046  0.41046  0.00000  0.17907
       8     H     0.42770  0.42770  0.00000  0.14460
       9     C     3.21216  3.21216  0.00000 -0.42433
      10     H     0.40658  0.40658  0.00000  0.18684
      11     H     0.42193  0.42193  0.00000  0.15615
      12     C     2.73123  2.73123  0.00000  0.53754
      13     H     0.40288  0.40288  0.00000  0.19423
      14     H     0.41323  0.41323  0.00000  0.17355
      15     C     3.20180  3.20180  0.00000 -0.40360
      16     O     4.26667  4.26667  0.00000 -0.53334
      17     C     3.16403  3.16403  0.00000 -0.32807
      18     H     0.39966  0.39966  0.00000  0.20068
      19     H     0.41302  0.41302  0.00000  0.17397
      20     C     3.15181  3.15181  0.00000 -0.30362
      21     H     0.41326  0.41326  0.00000  0.17348
      22     H     0.41855  0.41855  0.00000  0.16290
      23     C     3.24033  3.24033  0.00000 -0.48065
      24     H     0.41859  0.41859  0.00000  0.16283
      25     H     0.42155  0.42155  0.00000  0.15691
      26     H     0.41960  0.41960  0.00000  0.16081
      27     H     0.42118  0.42118  0.00000  0.15765
      28     H     0.41690  0.41690  0.00000  0.16620

   Total alpha = 40.00000, Total beta = 40.00000, Total charge = -0.00000
