  ==> Input File <==

--------------------------------------------------------------------------
set {
	reference rhf
	basis 6-31G*
}

set_num_threads( 4 )
memory 2 gb

molecule MOL {
0 1

H	 5.268524	 0.192471	 1.070992
C	 4.673736	 -0.214914	 0.259335
C	 3.185378	 -0.203514	 0.605509
H	 4.871837	 0.380453	 -0.627026
H	 5.025590	 -1.224632	 0.065769
C	 2.317601	 -0.778379	 -0.516234
H	 2.874655	 0.814325	 0.817774
H	 3.023650	 -0.778480	 1.515976
C	 1.607683	 0.286437	 -1.352566
H	 2.927747	 -1.391119	 -1.170386
H	 1.563463	 -1.431421	 -0.082813
C	 2.529289	 1.088302	 -2.259701
H	 0.870204	 -0.185958	 -1.999666
H	 1.047216	 0.969269	 -0.717906
C	 1.999653	 2.397518	 -2.818407
O	 3.623057	 0.699979	 -2.541275
C	 0.770354	 2.230724	 -3.724039
H	 2.810886	 2.858063	 -3.369328
H	 1.747648	 3.052028	 -1.986064
C	 0.323445	 3.554805	 -4.346687
H	 1.001929	 1.521325	 -4.515709
H	 -0.055663	 1.807274	 -3.158481
C	 -0.899293	 3.401861	 -5.250250
H	 1.145763	 3.977672	 -4.918560
H	 0.102117	 4.267445	 -3.555136
H	 -0.697562	 2.719228	 -6.070641
H	 -1.750003	 3.012855	 -4.697911
H	 -1.191259	 4.355609	 -5.678034

	symmetry c1
}
set optking {
	frozen_dihedral = ("
		10 6 3 2
	")
}

ee = optimize('scf')
oeprop('DIPOLE', 'QUADRUPOLE', 'MULLIKEN_CHARGES')
f=open( 'psi4out.xyz', 'w' )
f.write( "28  " )
f.write( str(ee) + "\n" )
f.write( MOL.save_string_xyz() )
f.close()
--------------------------------------------------------------------------

    Molecular point group: c1
  Charge       = 0
  Multiplicity = 1
  Basis Set: 6-31G*
  Basis Set:
  @DF-RHF Final Energy:  -426.16203047457600
    Total Energy =                       -426.1620304745757721
    Molecular point group: c1
  Basis Set: 6-31G*
  Basis Set:
  Basis Set: 6-31G*
  Basis Set:
  @DF-RHF Final Energy:  -426.16308949964468
    Total Energy =                       -426.1630894996447978
  Basis Set: 6-31G*
  Basis Set:
  Basis Set: 6-31G*
  Basis Set:
  @DF-RHF Final Energy:  -426.16081516918769
    Total Energy =                       -426.1608151691880266
  Basis Set: 6-31G*
  Basis Set:
  Basis Set: 6-31G*
  Basis Set:
  @DF-RHF Final Energy:  -426.16331080826001
    Total Energy =                       -426.1633108082597801
  Basis Set: 6-31G*
  Basis Set:
  @DF-RHF Final Energy:  -426.16339271512663
    Total Energy =                       -426.1633927151258376
  @DF-RHF Final Energy:  -426.16342864914748
    Total Energy =                       -426.1634286491474768
  Basis Set: 6-31G*
  Basis Set:
  @DF-RHF Final Energy:  -426.16345641418968
    Total Energy =                       -426.1634564141899091
  Basis Set: 6-31G*
  Basis Set:
  Basis Set: 6-31G*
  Basis Set:
  @DF-RHF Final Energy:  -426.16346603610941
    Total Energy =                       -426.1634660361095257
  Basis Set: 6-31G*
  Basis Set:
  Basis Set: 6-31G*
  Basis Set:
  @DF-RHF Final Energy:  -426.16346859419684
    Total Energy =                       -426.1634685941971838
  Basis Set: 6-31G*
  Basis Set:
  Charge       = 0
  Multiplicity = 1
  Basis Set: 6-31G*
  Basis Set:

    Orbital Energies (a.u.)
    -----------------------

    Doubly Occupied:

       1A    -20.548593     2A    -11.322737     3A    -11.232757
       4A    -11.230266     5A    -11.229218     6A    -11.226345
       7A    -11.217844     8A    -11.216507     9A    -11.214580
      10A    -11.197945    11A     -1.393772    12A     -1.095320
      13A     -1.074599    14A     -1.021576    15A     -0.988699
      16A     -0.907406    17A     -0.875347    18A     -0.809358
      19A     -0.796582    20A     -0.723109    21A     -0.667592
      22A     -0.649954    23A     -0.633071    24A     -0.624439
      25A     -0.600403    26A     -0.589149    27A     -0.578735
      28A     -0.564576    29A     -0.548002    30A     -0.532606
      31A     -0.520353    32A     -0.506062    33A     -0.502004
      34A     -0.484986    35A     -0.478640    36A     -0.475397
      37A     -0.468147    38A     -0.461651    39A     -0.450679
      40A     -0.392462

  @DF-RHF Final Energy:  -426.16346956122027

   => Energetics <=

    Nuclear Repulsion Energy =            537.3799340926588002
    One-Electron Energy =               -1642.9838764443204582
    Two-Electron Energy =                 679.4404727904417314
    DFT Exchange-Correlation Energy =       0.0000000000000000
    Empirical Dispersion Energy =           0.0000000000000000
    PCM Polarization Energy =               0.0000000000000000
    EFP Energy =                            0.0000000000000000
    Total Energy =                       -426.1634695612200403
    Molecular point group: c1
  Basis Set: 6-31G*
  Basis Set:

  -Total Gradient:
     Atom            X                  Y                   Z
    ------   -----------------  -----------------  -----------------
       1        0.000020650198    -0.000014624955    -0.000007658490
       2        0.000047436312    -0.000383491836     0.000224414857
       3       -0.000042349129     0.000652076994    -0.000303918933
       4       -0.000010564070     0.000029416654    -0.000004866302
       5       -0.000006411386    -0.000004809997    -0.000009586456
       6       -0.000145690540    -0.000689718498     0.000470580092
       7        0.000021545792    -0.000003991624    -0.000015122371
       8       -0.000001769777     0.000000557450     0.000013508894
       9        0.000037190808    -0.000052090103    -0.000037261205
      10        0.000118897245     0.000438901191    -0.000334825403
      11       -0.000009622490    -0.000009625045    -0.000001912997
      12        0.000020557169     0.000006165670     0.000044639637
      13        0.000002134698     0.000018205827     0.000007200626
      14       -0.000012160601     0.000020881311     0.000002269158
      15       -0.000074320772    -0.000040913584    -0.000031999820
      16       -0.000005637207     0.000029527085    -0.000028524351
      17        0.000018172065     0.000015240086     0.000006499949
      18        0.000003871456    -0.000025115758     0.000006032706
      19        0.000020300600     0.000011863745     0.000022857436
      20        0.000003975140    -0.000005420628    -0.000004298003
      21       -0.000007846105     0.000003777399    -0.000013366911
      22        0.000008724868     0.000003465423    -0.000013865788
      23       -0.000011709047     0.000004391955     0.000013444758
      24        0.000007863604    -0.000003850210     0.000001003175
      25       -0.000001438945    -0.000001564140    -0.000005948347
      26        0.000004948989     0.000004433989     0.000002659715
      27       -0.000004243576    -0.000004241104    -0.000003386605
      28       -0.000002505300     0.000000552707     0.000001430983

  **** Optimization is complete! (in 10 steps) ****
    Final optimized geometry and variables:
    Molecular point group: c1

    Geometry (in Angstrom), charge = 0, multiplicity = 1:

    H            3.183201620387    -0.965289361873     3.454775894108
    C            2.664208845630    -1.398910514002     2.604626360180
    C            1.152246465973    -1.404871822064     2.841242872868
    H            2.930209922072    -0.836415781407     1.719025218503
    H            3.034853526281    -2.411525209443     2.473880331355
    C            0.321525671066    -2.018816231546     1.691883581185
    H            0.812507897772    -0.389878145827     3.038204524074
    H            0.953247892572    -1.961280021656     3.753078340030
    C           -0.385174724763    -0.999427476475     0.793281466595
    H            0.949550748887    -2.650820857555     1.074561294427
    H           -0.447946086431    -2.659398743992     2.112337457423
    C            0.523245122335    -0.220055112256    -0.145409645425
    H           -1.100230347555    -1.516851386947     0.154549250429
    H           -0.972060908490    -0.305912248110     1.390037480112
    C            0.014820698202     1.111622932863    -0.668121571624
    O            1.583506583040    -0.649002468717    -0.489864310982
    C           -1.256362535345     0.990468897316    -1.521897127098
    H            0.815700787374     1.552148864336    -1.249641333326
    H           -0.181486150698     1.764685267985     0.180243759023
    C           -1.698349670492     2.335944830984    -2.100574148514
    H           -1.075694036299     0.291062270034    -2.335314038164
    H           -2.066792618577     0.574966895834    -0.928495268104
    C           -2.961267394227     2.227703080010    -2.953940819439
    H           -0.891248511267     2.751309151168    -2.699014986737
    H           -1.869703441825     3.037879795818    -1.287370198630
    H           -2.809743785596     1.557402102063    -3.795029007336
    H           -3.796477707235     1.846300997043    -2.373372622874
    H           -3.249410544105     3.195960633864    -3.350631460186

  Mulliken Charges: (a.u.)
   Center  Symbol    Alpha    Beta     Spin     Total
       1     H     0.42497  0.42497  0.00000  0.15006
       2     C     3.24113  3.24113  0.00000 -0.48226
       3     C     3.15772  3.15772  0.00000 -0.31544
       4     H     0.40474  0.40474  0.00000  0.19052
       5     H     0.42250  0.42250  0.00000  0.15499
       6     C     3.15351  3.15351  0.00000 -0.30702
       7     H     0.42599  0.42599  0.00000  0.14801
       8     H     0.42038  0.42038  0.00000  0.15925
       9     C     3.21093  3.21093  0.00000 -0.42187
      10     H     0.40409  0.40409  0.00000  0.19181
      11     H     0.41900  0.41900  0.00000  0.16200
      12     C     2.73133  2.73133  0.00000  0.53735
      13     H     0.40359  0.40359  0.00000  0.19281
      14     H     0.41368  0.41368  0.00000  0.17265
      15     C     3.20158  3.20158  0.00000 -0.40316
      16     O     4.26664  4.26664  0.00000 -0.53328
      17     C     3.16399  3.16399  0.00000 -0.32798
      18     H     0.39986  0.39986  0.00000  0.20028
      19     H     0.41302  0.41302  0.00000  0.17397
      20     C     3.15179  3.15179  0.00000 -0.30359
      21     H     0.41351  0.41351  0.00000  0.17299
      22     H     0.41833  0.41833  0.00000  0.16333
      23     C     3.24035  3.24035  0.00000 -0.48071
      24     H     0.41837  0.41837  0.00000  0.16327
      25     H     0.42142  0.42142  0.00000  0.15716
      26     H     0.41956  0.41956  0.00000  0.16088
      27     H     0.42116  0.42116  0.00000  0.15768
      28     H     0.41684  0.41684  0.00000  0.16631

   Total alpha = 40.00000, Total beta = 40.00000, Total charge =  0.00000
