  ==> Input File <==

--------------------------------------------------------------------------
set {
	reference rhf
	basis 6-31G*
}

set_num_threads( 1 )
memory 2 gb

molecule MOL {
0 1

O	 -3.040892	 0.865255	 0.856979
C	 -2.668563	 0.129746	 -0.000350
C	 -3.493305	 -0.239893	 -1.206350
O	 -1.481751	 -0.454642	 0.000584
H	 -3.749349	 0.665500	 -1.743533
H	 -2.967746	 -0.919252	 -1.861101
H	 -4.417749	 -0.693778	 -0.869792
C	 -0.334255	 0.388708	 0.000906
C	 0.891947	 -0.504646	 0.000751
H	 -0.365390	 1.025305	 -0.873475
H	 -0.365484	 1.024911	 0.875569
C	 2.191998	 0.301789	 0.000897
H	 0.855148	 -1.151283	 -0.871571
H	 0.855132	 -1.151660	 0.872805
C	 3.441114	 -0.581407	 0.000108
H	 2.215074	 0.954890	 -0.869742
H	 2.215465	 0.953923	 0.872248
C	 4.739576	 0.224112	 -0.001102
H	 3.419457	 -1.233487	 -0.870178
H	 3.420834	 -1.233096	 0.870717
H	 4.804918	 0.861552	 -0.878265
H	 5.606527	 -0.429058	 -0.001824
H	 4.806469	 0.861674	 0.875853

	symmetry c1
}
set optking {
	frozen_dihedral = ("
		13 9 8 10,
		2 4 8 10,
		16 12 9 13,
		19 15 12 16
	")
}

ee = energy('scf')
oeprop('DIPOLE', 'QUADRUPOLE', 'MULLIKEN_CHARGES')
f=open( 'psi4out.xyz', 'w' )
f.write( "23  " )
f.write( str(ee) + "\n" )
f.write( MOL.save_string_xyz() )
f.close()
--------------------------------------------------------------------------

    Molecular point group: c1

    Geometry (in Angstrom), charge = 0, multiplicity = 1:

       Center              X                  Y                   Z               Mass
    ------------   -----------------  -----------------  -----------------  -----------------
           O         -3.051222333678     0.844339149581     0.897350582490    15.994914619560
           C         -2.678893333678     0.108830149581     0.040021582490    12.000000000000
           C         -3.503635333678    -0.260808850419    -1.165978417510    12.000000000000
           O         -1.492081333678    -0.475557850419     0.040955582490    15.994914619560
           H         -3.759679333678     0.644584149581    -1.703161417510     1.007825032070
           H         -2.978076333678    -0.940167850419    -1.820729417510     1.007825032070
           H         -4.428079333678    -0.714693850419    -0.829420417510     1.007825032070
           C         -0.344585333678     0.367792149581     0.041277582490    12.000000000000
           C          0.881616666322    -0.525561850419     0.041122582490    12.000000000000
           H         -0.375720333678     1.004389149581    -0.833103417510     1.007825032070
           H         -0.375814333678     1.003995149581     0.915940582490     1.007825032070
           C          2.181667666322     0.280873149581     0.041268582490    12.000000000000
           H          0.844817666322    -1.172198850419    -0.831199417510     1.007825032070
           H          0.844801666322    -1.172575850419     0.913176582490     1.007825032070
           C          3.430783666322    -0.602322850419     0.040479582490    12.000000000000
           H          2.204743666322     0.933974149581    -0.829370417510     1.007825032070
           H          2.205134666322     0.933007149581     0.912619582490     1.007825032070
           C          4.729245666322     0.203196149581     0.039269582490    12.000000000000
           H          3.409126666322    -1.254402850419    -0.829806417510     1.007825032070
           H          3.410503666322    -1.254011850419     0.911088582490     1.007825032070
           H          4.794587666322     0.840636149581    -0.837893417510     1.007825032070
           H          5.596196666322    -0.449973850419     0.038547582490     1.007825032070
           H          4.796138666322     0.840758149581     0.916224582490     1.007825032070

  Charge       = 0
  Multiplicity = 1
  Basis Set: 6-31G*
  Basis Set:

    Orbital Energies (a.u.)
    -----------------------

    Doubly Occupied:

       1A    -20.587262     2A    -20.547017     3A    -11.374599
       4A    -11.290023     5A    -11.231522     6A    -11.226846
       7A    -11.226011     8A    -11.223189     9A    -11.214256
      10A     -1.463051    11A     -1.362396    12A     -1.095736
      13A     -1.040278    14A     -1.004843    15A     -0.934574
      16A     -0.843794    17A     -0.805130    18A     -0.775552
      19A     -0.697950    20A     -0.682699    21A     -0.658442
      22A     -0.648809    23A     -0.613555    24A     -0.590045
      25A     -0.583600    26A     -0.572500    27A     -0.556268
      28A     -0.549658    29A     -0.515374    30A     -0.502587
      31A     -0.490049    32A     -0.479259    33A     -0.473145
      34A     -0.470213    35A     -0.448493    36A     -0.432634

  @DF-RHF Final Energy:  -422.96341297047729

   => Energetics <=

    Nuclear Repulsion Energy =            449.4793123976597826
    One-Electron Energy =               -1466.4629222310722980
    Two-Electron Energy =                 594.0201968629351086
    DFT Exchange-Correlation Energy =       0.0000000000000000
    Empirical Dispersion Energy =           0.0000000000000000
    PCM Polarization Energy =               0.0000000000000000
    EFP Energy =                            0.0000000000000000
    Total Energy =                       -422.9634129704774068

  Mulliken Charges: (a.u.)
   Center  Symbol    Alpha    Beta     Spin     Total
       1     O     4.26668  4.26668  0.00000 -0.53336
       2     C     2.61899  2.61899  0.00000  0.76202
       3     C     3.29267  3.29267  0.00000 -0.58533
       4     O     4.31756  4.31756  0.00000 -0.63512
       5     H     0.39850  0.39850  0.00000  0.20300
       6     H     0.40137  0.40137  0.00000  0.19727
       7     H     0.39659  0.39659  0.00000  0.20682
       8     C     2.99692  2.99692  0.00000  0.00616
       9     C     3.16419  3.16419  0.00000 -0.32837
      10     H     0.42123  0.42123  0.00000  0.15753
      11     H     0.40558  0.40558  0.00000  0.18883
      12     C     3.16090  3.16090  0.00000 -0.32180
      13     H     0.41423  0.41423  0.00000  0.17154
      14     H     0.40980  0.40980  0.00000  0.18040
      15     C     3.15162  3.15162  0.00000 -0.30323
      16     H     0.42229  0.42229  0.00000  0.15542
      17     H     0.41982  0.41982  0.00000  0.16037
      18     C     3.23994  3.23994  0.00000 -0.47989
      19     H     0.42142  0.42142  0.00000  0.15715
      20     H     0.42035  0.42035  0.00000  0.15929
      21     H     0.42127  0.42127  0.00000  0.15746
      22     H     0.41759  0.41759  0.00000  0.16483
      23     H     0.42049  0.42049  0.00000  0.15903

   Total alpha = 36.00000, Total beta = 36.00000, Total charge = -0.00000
