                              Psi4 1.0.54 Driver

  ==> Input File <==

--------------------------------------------------------------------------
set {
	reference rhf
	basis cc-pvtz
}

set_num_threads( 4 )
memory 2 gb

molecule MOL {
0 1

H	 1.820058	 -1.088657	 1.377055
C	 1.894011	 -0.261465	 0.658766
C	 0.645482	 0.561643	 0.502345
O	 2.903829	 -0.075694	 0.072770
C	 -0.554654	 -0.292621	 0.086567
H	 0.839558	 1.345726	 -0.217645
H	 0.440634	 1.028148	 1.463744
C	 -1.846385	 0.513195	 -0.016346
H	 -0.344541	 -0.761484	 -0.870490
H	 -0.691206	 -1.099799	 0.801752
C	 -3.089953	 -0.365049	 -0.098564
H	 -1.798267	 1.154820	 -0.891143
H	 -1.925398	 1.173265	 0.842889
H	 -3.055079	 -1.012299	 -0.968245
H	 -3.988403	 0.236438	 -0.170014
H	 -3.183055	 -0.995885	 0.779079

	symmetry c1
}
set optking {
	frozen_dihedral = ("
		9 5 8 12
	")
}

ee,wfn = optimize('scf', return_wfn=True)
oeprop( wfn, 'DIPOLE', 'QUADRUPOLE', 'MULLIKEN_CHARGES')
f=open( 'psi4out.xyz', 'w' )
f.write( "16  " )
f.write( str(ee) + "\n" )
f.write( MOL.save_string_xyz() )
f.close()
--------------------------------------------------------------------------

    Molecular point group: c1
  Charge       = 0
  Multiplicity = 1
  Basis Set: CC-PVTZ
  Basis Set:
  @DF-RHF Final Energy:  -270.11844869146864
    Total Energy =                       -270.1184486914686431
    Molecular point group: c1
  Basis Set: CC-PVTZ
  Basis Set:
  Basis Set: CC-PVTZ
  Basis Set:
  @DF-RHF Final Energy:  -270.11852415164850
    Total Energy =                       -270.1185241516485576
  Basis Set: CC-PVTZ
  Basis Set:
  Basis Set: CC-PVTZ
  Basis Set:
  @DF-RHF Final Energy:  -270.11851374151445
    Total Energy =                       -270.1185137415145050
  Basis Set: CC-PVTZ
  Basis Set:
  Basis Set: CC-PVTZ
  Basis Set:
  @DF-RHF Final Energy:  -270.11855017784490
    Total Energy =                       -270.1185501778448383
  Basis Set: CC-PVTZ
  Basis Set:
  Basis Set: CC-PVTZ
  Basis Set:
  @DF-RHF Final Energy:  -270.11857332876451
    Total Energy =                       -270.1185733287644553
  Basis Set: CC-PVTZ
  Basis Set:
  Basis Set: CC-PVTZ
  Basis Set:
  @DF-RHF Final Energy:  -270.11857473957173
    Total Energy =                       -270.1185747395719545
  Basis Set: CC-PVTZ
  Basis Set:
  Charge       = 0
  Multiplicity = 1
  Basis Set: CC-PVTZ
  Basis Set:

    Orbital Energies (a.u.)
    -----------------------

    Doubly Occupied:

       1A    -20.551997     2A    -11.321160     3A    -11.234731
       4A    -11.233830     5A    -11.227540     6A    -11.216692
       7A     -1.406734     8A     -1.097694     9A     -1.020032
      10A     -0.906597    11A     -0.812391    12A     -0.793710
      13A     -0.682177    14A     -0.647375    15A     -0.634724
      16A     -0.606562    17A     -0.581594    18A     -0.550824
      19A     -0.532424    20A     -0.509199    21A     -0.488461
      22A     -0.483381    23A     -0.479763    24A     -0.411313

  @DF-RHF Final Energy:  -270.11857490142995

   => Energetics <=

    Nuclear Repulsion Energy =            229.3720039158990858
    One-Electron Energy =                -820.1193454360616215
    Two-Electron Energy =                 320.6287666187324135
    DFT Exchange-Correlation Energy =       0.0000000000000000
    Empirical Dispersion Energy =           0.0000000000000000
    PCM Polarization Energy =               0.0000000000000000
    EFP Energy =                            0.0000000000000000
    Total Energy =                       -270.1185749014301223
    Molecular point group: c1
  Basis Set: CC-PVTZ
  Basis Set:

  -Total Gradient:
     Atom            X                  Y                   Z
    ------   -----------------  -----------------  -----------------
       1       -0.000006769981    -0.000000356010    -0.000022902786
       2        0.000019452469     0.000012790335     0.000043555411
       3       -0.000031510406    -0.000019235679    -0.000023979373
       4       -0.000007354075    -0.000000347040    -0.000005970439
       5       -0.002026109295    -0.003160962661     0.000478236124
       6       -0.000003196950    -0.000001847433     0.000005627368
       7        0.000018998546     0.000004785671     0.000002339613
       8        0.001632842476     0.002939815632     0.001750082557
       9        0.001425379966     0.002191510915    -0.000682880077
      10        0.000003484851     0.000011204882     0.000007400519
      11        0.000013648605    -0.000014536312     0.000010584962
      12       -0.001033584445    -0.001943270150    -0.001559245577
      13       -0.000001993949    -0.000015266561    -0.000002958754
      14        0.000000344474     0.000000036709     0.000000135657
      15        0.000005271895     0.000006575795    -0.000001268450
      16       -0.000008904182    -0.000010898094     0.000001243245

  **** Optimization is complete! (in 7 steps) ****
    Final optimized geometry and variables:
    Molecular point group: c1

    Geometry (in Angstrom), charge = 0, multiplicity = 1:

    H            1.842953735690    -1.094979232157     1.194343829314
    C            1.904510818616    -0.255244377349     0.489507650224
    C            0.644336986403     0.552429644672     0.347788622457
    O            2.910769741954    -0.046602674696    -0.095038391153
    C           -0.542696222586    -0.312459095450    -0.088221946365
    H            0.827494988934     1.353254532996    -0.356739585403
    H            0.430833968730     0.996820039469     1.317508960177
    C           -1.834377226629     0.491350536711    -0.226227902243
    H           -0.301331990585    -0.767629236300    -1.044208690441
    H           -0.685847109083    -1.119233315477     0.625028072407
    C           -3.065105619227    -0.394896407533    -0.393942506560
    H           -1.754908701334     1.141837290455    -1.091687066689
    H           -1.963703995167     1.130236822484     0.641919498073
    H           -2.968071592350    -1.038315776406    -1.262024357379
    H           -3.960710941391     0.201212225088    -0.523552669504
    H           -3.212336783057    -1.030185021114     0.472903382199

  Mulliken Charges: (a.u.)
   Center  Symbol    Alpha    Beta     Spin     Total
       1     H     0.46539  0.46539  0.00000  0.06922
       2     C     2.91001  2.91001  0.00000  0.17997
       3     C     3.07675  3.07675  0.00000 -0.15350
       4     O     4.16408  4.16408  0.00000 -0.32815
       5     C     3.10235  3.10235  0.00000 -0.20469
       6     H     0.44257  0.44257  0.00000  0.11486
       7     H     0.45020  0.45020  0.00000  0.09959
       8     C     3.08454  3.08454  0.00000 -0.16909
       9     H     0.44508  0.44508  0.00000  0.10985
      10     H     0.45209  0.45209  0.00000  0.09583
      11     C     3.14887  3.14887  0.00000 -0.29774
      12     H     0.44961  0.44961  0.00000  0.10078
      13     H     0.45352  0.45352  0.00000  0.09295
      14     H     0.45332  0.45332  0.00000  0.09335
      15     H     0.44683  0.44683  0.00000  0.10634
      16     H     0.45479  0.45479  0.00000  0.09042

   Total alpha = 24.00000, Total beta = 24.00000, Total charge = -0.00000

*** Psi4 exiting successfully. Buy a developer a beer!
