                              Psi4 1.0.54 Driver

  ==> Input File <==

--------------------------------------------------------------------------
set {
	reference rhf
	basis cc-pvtz
}

set_num_threads( 4 )
memory 2 gb

molecule MOL {
0 1

O	 3.219313	 0.959291	 -0.614106
C	 2.698710	 0.058177	 -0.050237
C	 1.246364	 -0.005813	 0.348416
O	 3.344101	 -1.038700	 0.312317
C	 0.453207	 1.232821	 -0.049003
H	 0.839270	 -0.907818	 -0.092281
H	 1.216683	 -0.160521	 1.422434
C	 -0.998367	 1.217982	 0.432195
H	 0.481498	 1.345443	 -1.127236
H	 0.951413	 2.105557	 0.354893
C	 -1.882951	 0.151251	 -0.211235
H	 -1.429490	 2.193659	 0.228843
H	 -1.019755	 1.099323	 1.513279
C	 -2.017331	 0.319610	 -1.722322
H	 -1.470101	 -0.831521	 0.004603
H	 -2.874147	 0.169783	 0.232300
C	 -2.903830	 -0.737144	 -2.375135
H	 -1.029730	 0.287861	 -2.176167
H	 -2.419004	 1.306731	 -1.939385
C	 -3.031697	 -0.563355	 -3.884845
H	 -2.503616	 -1.724037	 -2.159286
H	 -3.892162	 -0.704848	 -1.924565
H	 -3.666862	 -1.328490	 -4.316259
H	 -2.062980	 -0.626108	 -4.369365
H	 -3.461549	 0.401520	 -4.132738
C	 4.720529	 -1.114346	 0.001449
H	 4.874321	 -1.055557	 -1.065852
H	 5.057824	 -2.067950	 0.373977
H	 5.264321	 -0.313596	 0.480350

	symmetry c1
}
set optking {
	frozen_dihedral = ("
		15 11 8 5
	")
}

ee,wfn = optimize('scf', return_wfn=True)
oeprop( wfn, 'DIPOLE', 'QUADRUPOLE', 'MULLIKEN_CHARGES')
f=open( 'psi4out.xyz', 'w' )
f.write( "29  " )
f.write( str(ee) + "\n" )
f.write( MOL.save_string_xyz() )
f.close()
--------------------------------------------------------------------------

    Molecular point group: c1
  Charge       = 0
  Multiplicity = 1
  Basis Set: CC-PVTZ
  Basis Set:
  @DF-RHF Final Energy:  -501.22247062401709
    Total Energy =                       -501.2224706240168643
    Molecular point group: c1
  Basis Set: CC-PVTZ
  Basis Set:
  Basis Set: CC-PVTZ
  Basis Set:
  @DF-RHF Final Energy:  -501.22210374995916
    Total Energy =                       -501.2221037499602971
  Basis Set: CC-PVTZ
  Basis Set:
  Basis Set: CC-PVTZ
  Basis Set:
  @DF-RHF Final Energy:  -501.22323116569248
    Total Energy =                       -501.2232311656923684
  Basis Set: CC-PVTZ
  Basis Set:
  Basis Set: CC-PVTZ
  Basis Set:
  @DF-RHF Final Energy:  -501.22326133153797
    Total Energy =                       -501.2232613315384242
  Basis Set: CC-PVTZ
  Basis Set:
  Basis Set: CC-PVTZ
  Basis Set:
  @DF-RHF Final Energy:  -501.22311753737415
    Total Energy =                       -501.2231175373738097
  Basis Set: CC-PVTZ
  Basis Set:
  Basis Set: CC-PVTZ
  Basis Set:
  @DF-RHF Final Energy:  -501.22329828975762
    Total Energy =                       -501.2232982897573947
  Basis Set: CC-PVTZ
  Basis Set:
  Charge       = 0
  Multiplicity = 1
  Basis Set: CC-PVTZ
  Basis Set:

    Orbital Energies (a.u.)
    -----------------------

    Doubly Occupied:

       1A    -20.596168     2A    -20.534044     3A    -11.364481
       4A    -11.278437     5A    -11.233185     6A    -11.216522
       7A    -11.215825     8A    -11.213965     9A    -11.213831
      10A    -11.211935    11A    -11.206842    12A     -1.472017
      13A     -1.365642    14A     -1.099471    15A     -1.066577
      16A     -1.020051    17A     -0.977095    18A     -0.929642
      19A     -0.867526    20A     -0.806672    21A     -0.782906
      22A     -0.760461    23A     -0.703866    24A     -0.685944
      25A     -0.675463    26A     -0.648469    27A     -0.634035
      28A     -0.604957    29A     -0.595660    30A     -0.578402
      31A     -0.564493    32A     -0.560723    33A     -0.534536
      34A     -0.529124    35A     -0.524725    36A     -0.510319
      37A     -0.490948    38A     -0.481929    39A     -0.472404
      40A     -0.460769    41A     -0.458961    42A     -0.453982
      43A     -0.441690    44A     -0.440340

  @DF-RHF Final Energy:  -501.22329901659521

   => Energetics <=

    Nuclear Repulsion Energy =            623.9425104423313542
    One-Electron Energy =               -1919.3615485797265592
    Two-Electron Energy =                 794.1957391208004537
    DFT Exchange-Correlation Energy =       0.0000000000000000
    Empirical Dispersion Energy =           0.0000000000000000
    PCM Polarization Energy =               0.0000000000000000
    EFP Energy =                            0.0000000000000000
    Total Energy =                       -501.2232990165946376
    Molecular point group: c1
  Basis Set: CC-PVTZ
  Basis Set:

  -Total Gradient:
     Atom            X                  Y                   Z
    ------   -----------------  -----------------  -----------------
       1       -0.000002812563     0.000091350878     0.000100297863
       2       -0.000098847772    -0.000126367152    -0.000252339120
       3        0.000060147830     0.000048478029     0.000075328056
       4        0.000011959912     0.000005204580     0.000081349570
       5        0.000020296281    -0.000207207221     0.000106974874
       6        0.000054574788     0.000045155666     0.000005166618
       7        0.000002586911    -0.000001724006     0.000022457949
       8       -0.000050080152     0.000280423502    -0.000311654046
       9        0.000007618305     0.000001314459    -0.000010486002
      10        0.000000111433    -0.000002662267    -0.000005562166
      11       -0.000231494108    -0.000115610344     0.000390525960
      12       -0.000000560434     0.000013363035     0.000019928105
      13       -0.000033758591    -0.000007867478     0.000005112615
      14        0.000046959158    -0.000044551089     0.000079594877
      15        0.000195157740     0.000058814104    -0.000254299592
      16       -0.000020442726    -0.000031378204    -0.000047854162
      17       -0.000046890035     0.000008188468    -0.000025553891
      18        0.000091349470    -0.000016783998    -0.000007212882
      19       -0.000013405498     0.000081175908    -0.000007529639
      20       -0.000010154169     0.000027197979     0.000047474453
      21        0.000040219471    -0.000046206077    -0.000002978911
      22       -0.000086553370    -0.000006478863     0.000027553734
      23       -0.000043531172    -0.000045745615    -0.000022225740
      24        0.000053297396    -0.000009447910    -0.000009587132
      25       -0.000028530238     0.000053804843    -0.000012791971
      26        0.000050928663    -0.000039233743    -0.000000109936
      27       -0.000004171217    -0.000000407511    -0.000008913220
      28        0.000029486753    -0.000022121753     0.000004732745
      29        0.000006537944     0.000009321775     0.000012600993

  **** Optimization is complete! (in 7 steps) ****
    Final optimized geometry and variables:
    Molecular point group: c1

    Geometry (in Angstrom), charge = 0, multiplicity = 1:

    O            2.777853030580     0.983885688819     0.315398533797
    C            2.241498629977     0.012911678375     0.728382982629
    C            0.770121240512    -0.115553348705     1.030257338827
    O            2.884051471119    -1.115038872560     0.985594804522
    C           -0.018445199207     1.159370525591     0.759007855073
    H            0.403095573480    -0.952205670355     0.447647057905
    H            0.681811134989    -0.417249080531     2.069177746311
    C           -1.491190281323     1.071578881195     1.167786409374
    H            0.072139520782     1.420726052505    -0.287814052953
    H            0.443060320182     1.973101160934     1.304964777377
    C           -2.350587143476     0.045139469529     0.423809186973
    H           -1.935995900560     2.053860659831     1.037893009111
    H           -1.544346882036     0.857804805064     2.232295079178
    C           -2.510108402826     0.308475617055    -1.072355722031
    H           -1.951255676917    -0.954453112776     0.570454614072
    H           -3.335582509428     0.039590104169     0.881914528889
    C           -3.468493145596    -0.666297196228    -1.752063624532
    H           -1.544466807871     0.253414464694    -1.566533635393
    H           -2.868903857049     1.324653984036    -1.220657766055
    C           -3.630251735875    -0.405199317896    -3.245852812436
    H           -3.113739212150    -1.682499151137    -1.600984674628
    H           -4.440435387586    -0.609226439138    -1.269499303590
    H           -4.316575731226    -1.113119607726    -3.696459927702
    H           -2.680445262551    -0.490324129005    -3.763466991291
    H           -4.016415073823     0.592082121974    -3.429135949977
    C            4.277079999474    -1.137240266198     0.748478952103
    H            4.490037032344    -0.941189432726    -0.291951957512
    H            4.609000556501    -2.127309508993     1.016034574730
    H            4.779163667434    -0.398940428760     1.356032866211

  Mulliken Charges: (a.u.)
   Center  Symbol    Alpha    Beta     Spin     Total
       1     O     4.19672  4.19672  0.00000 -0.39343
       2     C     2.80479  2.80479  0.00000  0.39042
       3     C     3.10143  3.10143  0.00000 -0.20286
       4     O     4.14724  4.14724  0.00000 -0.29447
       5     C     3.09962  3.09962  0.00000 -0.19923
       6     H     0.43963  0.43963  0.00000  0.12074
       7     H     0.43901  0.43901  0.00000  0.12198
       8     C     3.10946  3.10946  0.00000 -0.21892
       9     H     0.44332  0.44332  0.00000  0.11336
      10     H     0.43661  0.43661  0.00000  0.12678
      11     C     3.10748  3.10748  0.00000 -0.21495
      12     H     0.44482  0.44482  0.00000  0.11036
      13     H     0.44742  0.44742  0.00000  0.10516
      14     C     3.08760  3.08760  0.00000 -0.17521
      15     H     0.45157  0.45157  0.00000  0.09687
      16     H     0.44385  0.44385  0.00000  0.11229
      17     C     3.08391  3.08391  0.00000 -0.16783
      18     H     0.45372  0.45372  0.00000  0.09256
      19     H     0.45320  0.45320  0.00000  0.09361
      20     C     3.14972  3.14972  0.00000 -0.29945
      21     H     0.45475  0.45475  0.00000  0.09050
      22     H     0.45393  0.45393  0.00000  0.09213
      23     H     0.44841  0.44841  0.00000  0.10318
      24     H     0.45510  0.45510  0.00000  0.08980
      25     H     0.45482  0.45482  0.00000  0.09036
      26     C     3.03805  3.03805  0.00000 -0.07611
      27     H     0.45439  0.45439  0.00000  0.09122
      28     H     0.44522  0.44522  0.00000  0.10956
      29     H     0.45420  0.45420  0.00000  0.09160

   Total alpha = 44.00000, Total beta = 44.00000, Total charge = -0.00000

*** Psi4 exiting successfully. Buy a developer a beer!
