                              Psi4 1.0.54 Driver

  ==> Input File <==

--------------------------------------------------------------------------
set {
	reference rhf
	basis cc-pvtz
}

set_num_threads( 4 )
memory 2 gb

molecule MOL {
0 1

H	 -0.366580	 2.045936	 -0.305741
C	 0.351829	 1.335402	 0.083179
N	 -0.000018	 0.000080	 -0.334836
H	 1.327156	 1.599860	 -0.305475
H	 0.380566	 1.445403	 1.171445
C	 -1.194601	 -0.473787	 0.321518
C	 -0.093491	 -0.109265	 -1.770645
H	 -1.389307	 -1.500503	 0.038608
H	 -1.063470	 -0.442480	 1.395767
H	 -2.079426	 0.119273	 0.071650
H	 0.842606	 0.188360	 -2.225973
H	 -0.289618	 -1.136334	 -2.051338
H	 -0.887517	 0.514043	 -2.192690

	symmetry c1
}
set optking {
	frozen_dihedral = ("
		6 3 2 1
	")
}

ee,wfn = optimize('scf', return_wfn=True)
oeprop( wfn, 'DIPOLE', 'QUADRUPOLE', 'MULLIKEN_CHARGES')
f=open( 'psi4out.xyz', 'w' )
f.write( "13  " )
f.write( str(ee) + "\n" )
f.write( MOL.save_string_xyz() )
f.close()
--------------------------------------------------------------------------

    Molecular point group: c1
  Charge       = 0
  Multiplicity = 1
  Basis Set: CC-PVTZ
  Basis Set:
  @DF-RHF Final Energy:  -173.33311711418546
    Total Energy =                       -173.3331171141854838
    Molecular point group: c1
  Basis Set: CC-PVTZ
  Basis Set:
  Basis Set: CC-PVTZ
  Basis Set:
  @DF-RHF Final Energy:  -173.33376457060245
    Total Energy =                       -173.3337645706022272
  Basis Set: CC-PVTZ
  Basis Set:
  Basis Set: CC-PVTZ
  Basis Set:
  @DF-RHF Final Energy:  -173.33385305977933
    Total Energy =                       -173.3338530597793579
  Basis Set: CC-PVTZ
  Basis Set:
  Charge       = 0
  Multiplicity = 1
  Basis Set: CC-PVTZ
  Basis Set:

    Orbital Energies (a.u.)
    -----------------------

    Doubly Occupied:

       1A    -15.538908     2A    -11.234327     3A    -11.234306
       4A    -11.234238     5A     -1.226887     6A     -0.952795
       7A     -0.952396     8A     -0.806466     9A     -0.643037
      10A     -0.631923    11A     -0.631331    12A     -0.544966
      13A     -0.542890    14A     -0.517245    15A     -0.503184
      16A     -0.502498    17A     -0.348018

  @DF-RHF Final Energy:  -173.33385418104754

   => Energetics <=

    Nuclear Repulsion Energy =            139.4147430418042575
    One-Electron Energy =                -509.4063645285895063
    Two-Electron Energy =                 196.6577673057377069
    DFT Exchange-Correlation Energy =       0.0000000000000000
    Empirical Dispersion Energy =           0.0000000000000000
    PCM Polarization Energy =               0.0000000000000000
    EFP Energy =                            0.0000000000000000
    Total Energy =                       -173.3338541810475135
    Molecular point group: c1
  Basis Set: CC-PVTZ
  Basis Set:

  -Total Gradient:
     Atom            X                  Y                   Z
    ------   -----------------  -----------------  -----------------
       1        0.000833633227     0.000145433775    -0.001259015675
       2       -0.000855098936    -0.000325779653     0.001904648276
       3       -0.000584016463     0.000600044415    -0.001492662931
       4        0.000004564990    -0.000024939120    -0.000011741905
       5       -0.000010499689    -0.000046101377    -0.000022714814
       6        0.000554176084    -0.000457124111     0.000893093433
       7        0.000004294597     0.000130127386    -0.000078047467
       8        0.000003347390     0.000001098796    -0.000005093724
       9       -0.000003296921    -0.000000483953     0.000000694153
      10        0.000028633431    -0.000006702654    -0.000003662671
      11        0.000020096972    -0.000003166434    -0.000010132458
      12        0.000004063727     0.000009039305     0.000074452892
      13        0.000000101590    -0.000021446374     0.000010182891

  **** Optimization is complete! (in 4 steps) ****
    Final optimized geometry and variables:
    Molecular point group: c1

    Geometry (in Angstrom), charge = 0, multiplicity = 1:

    H           -0.075895238994     1.896887255923     0.172497816882
    C            0.612195363409     1.124042493530     0.528767192789
    N            0.241102182585    -0.200653760869     0.094774542080
    H            1.599917664544     1.369947974285     0.157740646580
    H            0.641882704744     1.166535858648     1.609634189396
    C           -0.956751717022    -0.676041408813     0.742776423140
    C            0.164331467282    -0.298393105094    -1.341625451677
    H           -1.159088570830    -1.696139980964     0.441230538137
    H           -0.824958212971    -0.665727463603     1.817226472240
    H           -1.839216693998    -0.073793696532     0.504769358944
    H            1.106781488229     0.000772571278    -1.783243543978
    H           -0.030742144606    -1.322652052754    -1.633376609410
    H           -0.622732325332     0.330766586808    -1.768857140880

  Mulliken Charges: (a.u.)
   Center  Symbol    Alpha    Beta     Spin     Total
       1     H     0.47383  0.47383  0.00000  0.05235
       2     C     3.08887  3.08887  0.00000 -0.17773
       3     N     3.59550  3.59550  0.00000 -0.19100
       4     H     0.45235  0.45235  0.00000  0.09529
       5     H     0.45307  0.45307  0.00000  0.09386
       6     C     3.08855  3.08855  0.00000 -0.17711
       7     C     3.08913  3.08913  0.00000 -0.17825
       8     H     0.45279  0.45279  0.00000  0.09443
       9     H     0.45250  0.45250  0.00000  0.09499
      10     H     0.47426  0.47426  0.00000  0.05149
      11     H     0.45283  0.45283  0.00000  0.09434
      12     H     0.45264  0.45264  0.00000  0.09472
      13     H     0.47368  0.47368  0.00000  0.05263

   Total alpha = 17.00000, Total beta = 17.00000, Total charge =  0.00000

*** Psi4 exiting successfully. Buy a developer a beer!
