                              Psi4 1.0.54 Driver

  ==> Input File <==

--------------------------------------------------------------------------
set {
	reference rhf
	basis cc-pvtz
}

set_num_threads( 4 )
memory 2 gb

molecule MOL {
0 1

H	 -0.000105	 1.988529	 0.748933
O	 -0.000098	 1.879786	 -0.188206
C	 -0.000014	 0.545691	 -0.532416
C	 -1.286000	 -0.125171	 -0.046657
C	 1.286016	 -0.125031	 -0.046584
H	 0.000021	 0.481103	 -1.610604
F	 -2.218963	 0.017495	 -0.955550
F	 -1.127899	 -1.406593	 0.169385
F	 -1.723693	 0.426920	 1.064646
F	 2.317750	 0.468717	 -0.594166
F	 1.336617	 -1.393765	 -0.365123
F	 1.414467	 -0.024806	 1.259108

	symmetry c1
}
set optking {
	frozen_dihedral = ("
		7 4 3 6
	")
}

ee,wfn = optimize('scf', return_wfn=True)
oeprop( wfn, 'DIPOLE', 'QUADRUPOLE', 'MULLIKEN_CHARGES')
f=open( 'psi4out.xyz', 'w' )
f.write( "12  " )
f.write( str(ee) + "\n" )
f.write( MOL.save_string_xyz() )
f.close()
--------------------------------------------------------------------------

    Molecular point group: c1
  Charge       = 0
  Multiplicity = 1
  Basis Set: CC-PVTZ
  Basis Set:
  @DF-RHF Final Energy:  -786.58615906756688
    Total Energy =                       -786.5861590675663138
    Molecular point group: c1
  Basis Set: CC-PVTZ
  Basis Set:
  Basis Set: CC-PVTZ
  Basis Set:
  @DF-RHF Final Energy:  -786.58692933624866
    Total Energy =                       -786.5869293362488861
  Basis Set: CC-PVTZ
  Basis Set:
  Basis Set: CC-PVTZ
  Basis Set:
  @DF-RHF Final Energy:  -786.58717818491255
    Total Energy =                       -786.5871781849124318
  Basis Set: CC-PVTZ
  Basis Set:
  Basis Set: CC-PVTZ
  Basis Set:
  @DF-RHF Final Energy:  -786.58722279048936
    Total Energy =                       -786.5872227904894771
  Basis Set: CC-PVTZ
  Basis Set:
  Basis Set: CC-PVTZ
  Basis Set:
  @DF-RHF Final Energy:  -786.58723483225992
    Total Energy =                       -786.5872348322600374
  Basis Set: CC-PVTZ
  Basis Set:
  Charge       = 0
  Multiplicity = 1
  Basis Set: CC-PVTZ
  Basis Set:

    Orbital Energies (a.u.)
    -----------------------

    Doubly Occupied:

       1A    -26.361617     2A    -26.357632     3A    -26.356719
       4A    -26.355952     5A    -26.355404     6A    -26.352719
       7A    -20.608341     8A    -11.522191     9A    -11.518179
      10A    -11.351386    11A     -1.772725    12A     -1.766189
      13A     -1.668043    14A     -1.664454    15A     -1.663458
      16A     -1.659938    17A     -1.438216    18A     -1.101607
      19A     -1.001907    20A     -0.944643    21A     -0.872344
      22A     -0.868212    23A     -0.858739    24A     -0.853565
      25A     -0.840969    26A     -0.822454    27A     -0.744940
      28A     -0.736569    29A     -0.732311    30A     -0.728815
      31A     -0.695622    32A     -0.692263    33A     -0.688399
      34A     -0.683195    35A     -0.676804    36A     -0.667676
      37A     -0.664894    38A     -0.654850    39A     -0.624845
      40A     -0.554177    41A     -0.509361

  @DF-RHF Final Energy:  -786.58723720110265

   => Energetics <=

    Nuclear Repulsion Energy =            670.6737443229344535
    One-Electron Energy =               -2428.5373141011150437
    Two-Electron Energy =                 971.2763325770781648
    DFT Exchange-Correlation Energy =       0.0000000000000000
    Empirical Dispersion Energy =           0.0000000000000000
    PCM Polarization Energy =               0.0000000000000000
    EFP Energy =                            0.0000000000000000
    Total Energy =                       -786.5872372011024254
    Molecular point group: c1
  Basis Set: CC-PVTZ
  Basis Set:

  -Total Gradient:
     Atom            X                  Y                   Z
    ------   -----------------  -----------------  -----------------
       1       -0.000005345175    -0.000052835293    -0.000052158747
       2        0.000061496784    -0.000026766370    -0.000021002142
       3        0.003098558024    -0.005781838906     0.000141360320
       4       -0.002166300925     0.005295485536     0.001914992808
       5       -0.000034264984    -0.000030834639    -0.000102093244
       6       -0.002321843485     0.004055268910    -0.000436786659
       7        0.001245533014    -0.003404034304    -0.001574002644
       8        0.000061925566    -0.000059767463     0.000015386342
       9        0.000048661377    -0.000032345031     0.000003716140
      10       -0.000080483452    -0.000118112704     0.000038649624
      11        0.000038008244     0.000144684994     0.000012344500
      12        0.000054055001     0.000011095269     0.000059593699

  **** Optimization is complete! (in 6 steps) ****
    Final optimized geometry and variables:
    Molecular point group: c1

    Geometry (in Angstrom), charge = 0, multiplicity = 1:

    H           -0.139831402747     2.055919917292     0.583353313763
    O           -0.039931993226     1.872478092329    -0.336000386892
    C           -0.000755370079     0.514731842508    -0.574672234857
    C           -1.280735404077    -0.157375021628    -0.044924940053
    C            1.290318459520    -0.091994558491    -0.027685537260
    H            0.000085355350     0.397650235339    -1.647319210602
    F           -2.227700940194    -0.083082603072    -0.949115610816
    F           -1.106192671627    -1.426605936511     0.233404106562
    F           -1.707948453793     0.434262043016     1.046979813393
    F            2.317422719127     0.598677544708    -0.453321608174
    F            1.453054691973    -1.330911187429    -0.418724377062
    F            1.306821116546    -0.066562834106     1.288944842728

  Mulliken Charges: (a.u.)
   Center  Symbol    Alpha    Beta     Spin     Total
       1     H     0.38076  0.38076  0.00000  0.23848
       2     O     4.18894  4.18894  0.00000 -0.37789
       3     C     3.01548  3.01548  0.00000 -0.03097
       4     C     2.67691  2.67691  0.00000  0.64618
       5     C     2.68122  2.68122  0.00000  0.63756
       6     H     0.42528  0.42528  0.00000  0.14945
       7     F     4.60359  4.60359  0.00000 -0.20718
       8     F     4.60225  4.60225  0.00000 -0.20450
       9     F     4.60934  4.60934  0.00000 -0.21868
      10     F     4.60069  4.60069  0.00000 -0.20138
      11     F     4.60389  4.60389  0.00000 -0.20778
      12     F     4.61165  4.61165  0.00000 -0.22330

   Total alpha = 41.00000, Total beta = 41.00000, Total charge =  0.00000

*** Psi4 exiting successfully. Buy a developer a beer!
