  ==> Input File <==

--------------------------------------------------------------------------
set {
	reference rhf
	basis 6-31G*
}

set_num_threads( 1 )
memory 2 gb

molecule MOL {
0 1

H	 -2.798360	 -0.862255	 -0.071053
N	 -1.863561	 -0.715187	 0.256814
C	 -1.344686	 0.554728	 -0.219830
H	 -1.300452	 -1.461917	 -0.101532
C	 0.081427	 0.741154	 0.254071
H	 -1.362155	 0.656231	 -1.305829
H	 -1.952773	 1.354456	 0.191809
O	 0.874168	 -0.245412	 -0.342030
H	 0.444037	 1.730782	 -0.023037
H	 0.121165	 0.653424	 1.337565
C	 0.317625	 -0.818009	 -1.482190
H	 1.013600	 -1.559674	 -1.849951
H	 -0.630334	 -1.305149	 -1.260717
H	 0.150501	 -0.074919	 -2.259169

	symmetry c1
}
set optking {
	frozen_dihedral = ("
		8 5 3 6,
		6 3 2 4,
		5 8 11 13
	")
}

ee = energy('scf')
oeprop('DIPOLE', 'QUADRUPOLE', 'MULLIKEN_CHARGES')
f=open( 'psi4out.xyz', 'w' )
f.write( "14  " )
f.write( str(ee) + "\n" )
f.write( MOL.save_string_xyz() )
f.close()
--------------------------------------------------------------------------

    Molecular point group: c1

    Geometry (in Angstrom), charge = 0, multiplicity = 1:

       Center              X                  Y                   Z               Mass
    ------------   -----------------  -----------------  -----------------  -----------------
           H         -2.401053985350    -0.741278611680     0.257096438148     1.007825032070
           N         -1.466254985350    -0.594210611680     0.584963438148    14.003074004780
           C         -0.947379985350     0.675704388320     0.108319438148    12.000000000000
           H         -0.903145985350    -1.340940611680     0.226617438148     1.007825032070
           C          0.478733014650     0.862130388320     0.582220438148    12.000000000000
           H         -0.964848985350     0.777207388320    -0.977679561852     1.007825032070
           H         -1.555466985350     1.475432388320     0.519958438148     1.007825032070
           O          1.271474014650    -0.124435611680    -0.013880561852    15.994914619560
           H          0.841343014650     1.851758388320     0.305112438148     1.007825032070
           H          0.518471014650     0.774400388320     1.665714438148     1.007825032070
           C          0.714931014650    -0.697032611680    -1.154040561852    12.000000000000
           H          1.410906014650    -1.438697611680    -1.521801561852     1.007825032070
           H         -0.233027985350    -1.184172611680    -0.932567561852     1.007825032070
           H          0.547807014650     0.046057388320    -1.931019561852     1.007825032070

  Charge       = 0
  Multiplicity = 1
  Basis Set: 6-31G*
  Basis Set:

    Orbital Energies (a.u.)
    -----------------------

    Doubly Occupied:

       1A    -20.556023     2A    -15.539318     3A    -11.267122
       4A    -11.265062     5A    -11.246314     6A     -1.385306
       7A     -1.189711     8A     -1.002203     9A     -0.930629
      10A     -0.809711    11A     -0.715155    12A     -0.688427
      13A     -0.636403    14A     -0.619820    15A     -0.598655
      16A     -0.541112    17A     -0.539976    18A     -0.532709
      19A     -0.451618    20A     -0.418706    21A     -0.384999

  @DF-RHF Final Energy:  -248.08174669682674

   => Energetics <=

    Nuclear Repulsion Energy =            204.4679405475915530
    One-Electron Energy =                -742.4613703611935307
    Two-Electron Energy =                 289.9116831167750661
    DFT Exchange-Correlation Energy =       0.0000000000000000
    Empirical Dispersion Energy =           0.0000000000000000
    PCM Polarization Energy =               0.0000000000000000
    EFP Energy =                            0.0000000000000000
    Total Energy =                       -248.0817466968269400

  Mulliken Charges: (a.u.)
   Center  Symbol    Alpha    Beta     Spin     Total
       1     H     0.33084  0.33084  0.00000  0.33832
       2     N     3.91831  3.91831  0.00000 -0.83662
       3     C     3.11060  3.11060  0.00000 -0.22119
       4     H     0.31586  0.31586  0.00000  0.36828
       5     C     2.97607  2.97607  0.00000  0.04786
       6     H     0.42302  0.42302  0.00000  0.15396
       7     H     0.41035  0.41035  0.00000  0.17930
       8     O     4.30879  4.30879  0.00000 -0.61758
       9     H     0.42687  0.42687  0.00000  0.14627
      10     H     0.41054  0.41054  0.00000  0.17892
      11     C     3.08927  3.08927  0.00000 -0.17854
      12     H     0.40764  0.40764  0.00000  0.18473
      13     H     0.44797  0.44797  0.00000  0.10407
      14     H     0.42389  0.42389  0.00000  0.15222

   Total alpha = 21.00000, Total beta = 21.00000, Total charge = -0.00000
