  ==> Input File <==

--------------------------------------------------------------------------
set {
	reference rhf
	basis 6-31G*
}

set_num_threads( 4 )
memory 2 gb

molecule MOL {
0 1

H	 -0.000158	 1.970498	 0.756846
O	 -0.000074	 1.880206	 -0.189275
C	 -0.000015	 0.544847	 -0.545111
C	 -1.278788	 -0.123820	 -0.051541
C	 1.278802	 -0.123718	 -0.051505
H	 -0.000001	 0.490777	 -1.623619
F	 -1.777399	 0.563334	 0.953821
F	 -2.198021	 -0.196980	 -0.990698
F	 -1.031755	 -1.350130	 0.380587
F	 2.323327	 0.466644	 -0.591854
F	 1.326242	 -1.401483	 -0.363667
F	 1.388946	 -0.015632	 1.262939

	symmetry c1
}
set optking {
	frozen_dihedral = ("
		7 4 3 6
	")
}

ee = optimize('scf')
oeprop('DIPOLE', 'QUADRUPOLE', 'MULLIKEN_CHARGES')
f=open( 'psi4out.xyz', 'w' )
f.write( "12  " )
f.write( str(ee) + "\n" )
f.write( MOL.save_string_xyz() )
f.close()
--------------------------------------------------------------------------

    Molecular point group: c1
  Charge       = 0
  Multiplicity = 1
  Basis Set: 6-31G*
  Basis Set:
  @DF-RHF Final Energy:  -786.27217465367585
    Total Energy =                       -786.2721746536756200
    Molecular point group: c1
  Basis Set: 6-31G*
  Basis Set:
  Basis Set: 6-31G*
  Basis Set:
  @DF-RHF Final Energy:  -786.27372294499457
    Total Energy =                       -786.2737229449940060
  Basis Set: 6-31G*
  Basis Set:
  Basis Set: 6-31G*
  Basis Set:
  @DF-RHF Final Energy:  -786.27416831160576
    Total Energy =                       -786.2741683116063314
  Basis Set: 6-31G*
  Basis Set:
  Basis Set: 6-31G*
  Basis Set:
  @DF-RHF Final Energy:  -786.27424794410615
    Total Energy =                       -786.2742479441064916
  Basis Set: 6-31G*
  Basis Set:
  @DF-RHF Final Energy:  -786.27426846696733
    Total Energy =                       -786.2742684669677828
  @DF-RHF Final Energy:  -786.27427377552954
    Total Energy =                       -786.2742737755295366
  Basis Set: 6-31G*
  Basis Set:
  @DF-RHF Final Energy:  -786.27427699492409
    Total Energy =                       -786.2742769949236390
  Basis Set: 6-31G*
  Basis Set:
  Basis Set: 6-31G*
  Basis Set:
  @DF-RHF Final Energy:  -786.27427104193566
    Total Energy =                       -786.2742710419363448
  Basis Set: 6-31G*
  Basis Set:
  Basis Set: 6-31G*
  Basis Set:
  @DF-RHF Final Energy:  -786.27427059855006
    Total Energy =                       -786.2742705985499470
  Basis Set: 6-31G*
  Basis Set:
  Charge       = 0
  Multiplicity = 1
  Basis Set: 6-31G*
  Basis Set:

    Orbital Energies (a.u.)
    -----------------------

    Doubly Occupied:

       1A    -26.365343     2A    -26.364120     3A    -26.361666
       4A    -26.359543     5A    -26.358854     6A    -26.356471
       7A    -20.614950     8A    -11.529257     9A    -11.523666
      10A    -11.349251    11A     -1.765671    12A     -1.758183
      13A     -1.662758    14A     -1.658042    15A     -1.657461
      16A     -1.653942    17A     -1.433489    18A     -1.099503
      19A     -0.996780    20A     -0.937401    21A     -0.866189
      22A     -0.860805    23A     -0.851729    24A     -0.845608
      25A     -0.833531    26A     -0.815420    27A     -0.736685
      28A     -0.729738    29A     -0.725850    30A     -0.722818
      31A     -0.687356    32A     -0.686509    33A     -0.681794
      34A     -0.676238    35A     -0.669423    36A     -0.661731
      37A     -0.657580    38A     -0.649275    39A     -0.618694
      40A     -0.551445    41A     -0.504628

  @DF-RHF Final Energy:  -786.27427897656196

   => Energetics <=

    Nuclear Repulsion Energy =            669.4281457096623171
    One-Electron Energy =               -2425.7260526952622968
    Two-Electron Energy =                 970.0236280090375658
    DFT Exchange-Correlation Energy =       0.0000000000000000
    Empirical Dispersion Energy =           0.0000000000000000
    PCM Polarization Energy =               0.0000000000000000
    EFP Energy =                            0.0000000000000000
    Total Energy =                       -786.2742789765625275
    Molecular point group: c1
  Basis Set: 6-31G*
  Basis Set:

  -Total Gradient:
     Atom            X                  Y                   Z
    ------   -----------------  -----------------  -----------------
       1        0.000000365343    -0.000003134597    -0.000016245840
       2        0.000008122880     0.000031182164     0.000020315059
       3        0.002068942223    -0.004528431327    -0.000527396894
       4        0.002249679773    -0.001737241774     0.003186718390
       5       -0.000008333948    -0.000023186425     0.000044627302
       6       -0.002260508405     0.004217528085    -0.000204017689
       7       -0.002162182287     0.002118834399    -0.002558996689
       8        0.000053327258    -0.000017451169     0.000055601729
       9        0.000004387127    -0.000104450546     0.000037263300
      10        0.000032932357     0.000012217079    -0.000009950271
      11        0.000007677887     0.000039498890     0.000000038781
      12        0.000005589789    -0.000005364780    -0.000027957177

  **** Optimization is complete! (in 10 steps) ****
    Final optimized geometry and variables:
    Molecular point group: c1

    Geometry (in Angstrom), charge = 0, multiplicity = 1:

    H           -0.083813489631     2.027925358412     0.661669704495
    O            0.020352179261     1.884183609907    -0.270997617193
    C            0.005769707875     0.533017387208    -0.562349793996
    C           -1.278962738230    -0.123362917490    -0.020923634247
    C            1.284595522737    -0.127846895489    -0.064269087879
    H           -0.022328331701     0.461870683768    -1.638512287291
    F           -1.767224354449     0.570573595160     0.992191977906
    F           -2.202430790686    -0.141893918978    -0.962813164923
    F           -1.097059541514    -1.361544366024     0.386106373125
    F            2.332752087367     0.529009944783    -0.510204269351
    F            1.383860332919    -1.374931992905    -0.475397328023
    F            1.331396015659    -0.117600300990     1.259099595567

  Mulliken Charges: (a.u.)
   Center  Symbol    Alpha    Beta     Spin     Total
       1     H     0.26571  0.26571  0.00000  0.46857
       2     O     4.36150  4.36150  0.00000 -0.72299
       3     C     3.06556  3.06556  0.00000 -0.13113
       4     C     2.43524  2.43524  0.00000  1.12952
       5     C     2.43946  2.43946  0.00000  1.12107
       6     H     0.37169  0.37169  0.00000  0.25662
       7     F     4.67918  4.67918  0.00000 -0.35835
       8     F     4.67762  4.67762  0.00000 -0.35524
       9     F     4.67216  4.67216  0.00000 -0.34433
      10     F     4.67423  4.67423  0.00000 -0.34847
      11     F     4.67561  4.67561  0.00000 -0.35122
      12     F     4.68203  4.68203  0.00000 -0.36405

   Total alpha = 41.00000, Total beta = 41.00000, Total charge =  0.00000
