  ==> Input File <==

--------------------------------------------------------------------------
set {
	reference rhf
	basis cc-pvtz
}

set_num_threads( 4 )
memory 2 gb

molecule MOL {
0 1

O	 1.310591	 1.006454	 0.806472
C	 0.860843	 0.273204	 -0.013120
C	 -0.623368	 -0.117453	 -0.005652
C	 1.764940	 -0.298088	 -1.087483
C	 -0.892588	 -1.253841	 -1.002900
C	 -1.473463	 1.100646	 -0.372896
C	 -0.981836	 -0.579025	 1.418506
H	 -0.609333	 -0.970024	 -2.010649
H	 -1.950451	 -1.487353	 -1.013175
H	 -0.360848	 -2.161259	 -0.746463
H	 -1.232203	 1.461623	 -1.364827
H	 -2.524364	 0.834451	 -0.354500
H	 -1.312381	 1.914833	 0.318657
H	 -2.035706	 -0.826342	 1.468082
H	 -0.425078	 -1.458934	 1.716857
H	 -0.788494	 0.205047	 2.140903
H	 1.612100	 0.250521	 -2.010214
H	 2.791496	 -0.176268	 -0.777948
H	 1.561206	 -1.340463	 -1.290412

	symmetry c1
}
set optking {
	frozen_dihedral = ("
		1 2 3 5
	")
}

ee = optimize('scf')
oeprop('DIPOLE', 'QUADRUPOLE', 'MULLIKEN_CHARGES')
f=open( 'psi4out.xyz', 'w' )
f.write( "19  " )
f.write( str(ee) + "\n" )
f.write( MOL.save_string_xyz() )
f.close()
--------------------------------------------------------------------------

    Molecular point group: c1
  Charge       = 0
  Multiplicity = 1
  Basis Set: CC-PVTZ
  Basis Set:
  @DF-RHF Final Energy:  -309.17059645849724
    Total Energy =                       -309.1705964584973572
    Molecular point group: c1
  Basis Set: CC-PVTZ
  Basis Set:
  Basis Set: CC-PVTZ
  Basis Set:
  @DF-RHF Final Energy:  -309.17104743733302
    Total Energy =                       -309.1710474373326178
  Basis Set: CC-PVTZ
  Basis Set:
  Basis Set: CC-PVTZ
  Basis Set:
  @DF-RHF Final Energy:  -309.17251248059591
    Total Energy =                       -309.1725124805960263
  Basis Set: CC-PVTZ
  Basis Set:
  Basis Set: CC-PVTZ
  Basis Set:
  @DF-RHF Final Energy:  -309.17282274245758
    Total Energy =                       -309.1728227424574698
  Basis Set: CC-PVTZ
  Basis Set:
  @DF-RHF Final Energy:  -309.17262421368025
    Total Energy =                       -309.1726242136799101
  Basis Set: CC-PVTZ
  Basis Set:
  @DF-RHF Final Energy:  -309.17300346258793
    Total Energy =                       -309.1730034625880990
  Basis Set: CC-PVTZ
  Basis Set:
  Basis Set: CC-PVTZ
  Basis Set:
  @DF-RHF Final Energy:  -309.17312422736205
    Total Energy =                       -309.1731242273622797
  Basis Set: CC-PVTZ
  Basis Set:
  Basis Set: CC-PVTZ
  Basis Set:
  @DF-RHF Final Energy:  -309.17313453752536
    Total Energy =                       -309.1731345375255842
  Basis Set: CC-PVTZ
  Basis Set:
  Charge       = 0
  Multiplicity = 1
  Basis Set: CC-PVTZ
  Basis Set:

    Orbital Energies (a.u.)
    -----------------------

    Doubly Occupied:

       1A    -20.536335     2A    -11.318508     3A    -11.245517
       4A    -11.226105     5A    -11.219969     6A    -11.217290
       7A    -11.211324     8A     -1.398274     9A     -1.109127
      10A     -1.004704    11A     -0.943260    12A     -0.939251
      13A     -0.834059    14A     -0.705698    15A     -0.666848
      16A     -0.633675    17A     -0.623945    18A     -0.589506
      19A     -0.586894    20A     -0.572974    21A     -0.552327
      22A     -0.546726    23A     -0.523686    24A     -0.514860
      25A     -0.503097    26A     -0.472885    27A     -0.462863
      28A     -0.393757

  @DF-RHF Final Energy:  -309.17313400666802

   => Energetics <=

    Nuclear Repulsion Energy =            326.8079680851070066
    One-Electron Energy =               -1066.8552798735063334
    Two-Electron Energy =                 430.8741777817311345
    DFT Exchange-Correlation Energy =       0.0000000000000000
    Empirical Dispersion Energy =           0.0000000000000000
    PCM Polarization Energy =               0.0000000000000000
    EFP Energy =                            0.0000000000000000
    Total Energy =                       -309.1731340066682492
    Molecular point group: c1
  Basis Set: CC-PVTZ
  Basis Set:

  -Total Gradient:
     Atom            X                  Y                   Z
    ------   -----------------  -----------------  -----------------
       1       -0.000244074584     0.000916892804    -0.000745733914
       2        0.000427990679    -0.001228947091     0.000738131479
       3        0.000077750492    -0.000454142949     0.000502133048
       4       -0.000028311689     0.000331214333    -0.000191496338
       5       -0.000209679611     0.000625678163    -0.000613480652
       6       -0.000010487762    -0.000058239396     0.000023641404
       7        0.000000895926     0.000055883930     0.000070065948
       8       -0.000015131704    -0.000037676746     0.000049144951
       9       -0.000059840204     0.000031533701    -0.000041697225
      10       -0.000023332629    -0.000006991885     0.000061857639
      11        0.000055996177     0.000002235732    -0.000002715695
      12        0.000039173942    -0.000008495282    -0.000055781024
      13       -0.000112581547    -0.000028745015     0.000097987114
      14        0.000001845542    -0.000019502968    -0.000010036050
      15        0.000036198250     0.000018100507    -0.000032213012
      16       -0.000022242525     0.000021989684    -0.000009025223
      17        0.000061848418    -0.000045052174     0.000077915706
      18        0.000024657488    -0.000047259029     0.000026366157
      19       -0.000000674656    -0.000068476317     0.000054935689

  **** Optimization is complete! (in 9 steps) ****
    Final optimized geometry and variables:
    Molecular point group: c1

    Geometry (in Angstrom), charge = 0, multiplicity = 1:

    O            1.291533793982     0.946766159294     0.888110139090
    C            0.876098151684     0.228693443154     0.036872250569
    C           -0.613756706726    -0.160752431398     0.026739720610
    C            1.797830251427    -0.254448513784    -1.060631078377
    C           -0.948921887840    -1.272313277547    -0.973724738120
    C           -1.391630965335     1.112197399727    -0.349309813307
    C           -1.006309207093    -0.606380247624     1.440964248190
    H           -0.716916041412    -0.992302283159    -1.993581298566
    H           -2.009780266800    -1.488250191545    -0.930988183114
    H           -0.422145169584    -2.192389354171    -0.747896848621
    H           -1.109166946246     1.474408640030    -1.332635445643
    H           -2.455403133863     0.905079500788    -0.367689833371
    H           -1.206043676042     1.900704458235     0.366751264578
    H           -2.066473258497    -0.830091347366     1.478455810691
    H           -0.467266926306    -1.501202627047     1.733436602771
    H           -0.789002824242     0.166229849417     2.163314015158
    H            1.433552908893     0.061480685467    -2.031029290684
    H            2.782170609911     0.154057590189    -0.893316464958
    H            1.849297902448    -1.336339992858    -1.072605713562

  Mulliken Charges: (a.u.)
   Center  Symbol    Alpha    Beta     Spin     Total
       1     O     4.18128  4.18128  0.00000 -0.36256
       2     C     2.84650  2.84650  0.00000  0.30700
       3     C     3.00566  3.00566  0.00000 -0.01133
       4     C     3.16300  3.16300  0.00000 -0.32601
       5     C     3.16561  3.16561  0.00000 -0.33121
       6     C     3.15333  3.15333  0.00000 -0.30666
       7     C     3.15350  3.15350  0.00000 -0.30700
       8     H     0.44564  0.44564  0.00000  0.10872
       9     H     0.44261  0.44261  0.00000  0.11479
      10     H     0.44537  0.44537  0.00000  0.10925
      11     H     0.44968  0.44968  0.00000  0.10064
      12     H     0.44906  0.44906  0.00000  0.10189
      13     H     0.43712  0.43712  0.00000  0.12576
      14     H     0.45079  0.45079  0.00000  0.09843
      15     H     0.45024  0.45024  0.00000  0.09952
      16     H     0.43494  0.43494  0.00000  0.13012
      17     H     0.44680  0.44680  0.00000  0.10639
      18     H     0.43171  0.43171  0.00000  0.13658
      19     H     0.44716  0.44716  0.00000  0.10568

   Total alpha = 28.00000, Total beta = 28.00000, Total charge =  0.00000
