  ==> Input File <==

--------------------------------------------------------------------------
set {
	reference rhf
	basis cc-pvtz
}

set_num_threads( 4 )
memory 2 gb

molecule MOL {
0 1

H	 -2.816458	 -0.841657	 -0.064679
N	 -1.878861	 -0.711874	 0.250184
C	 -1.341419	 0.551458	 -0.220231
H	 -1.333674	 -1.468530	 -0.105118
C	 0.082190	 0.731516	 0.254705
H	 -1.357065	 0.652078	 -1.304747
H	 -1.939897	 1.357530	 0.189797
O	 0.881195	 -0.248324	 -0.336237
H	 0.440901	 1.722476	 -0.020063
H	 0.119896	 0.643586	 1.338114
C	 1.343308	 -1.221080	 0.540927
H	 1.947354	 -1.917222	 -0.022901
H	 1.954711	 -0.787413	 1.329478
H	 0.521471	 -1.763664	 1.002173

	symmetry c1
}
set optking {
	frozen_dihedral = ("
		11 8 5 3
	")
}

ee = optimize('scf')
oeprop('DIPOLE', 'QUADRUPOLE', 'MULLIKEN_CHARGES')
f=open( 'psi4out.xyz', 'w' )
f.write( "14  " )
f.write( str(ee) + "\n" )
f.write( MOL.save_string_xyz() )
f.close()
--------------------------------------------------------------------------

    Molecular point group: c1
  Charge       = 0
  Multiplicity = 1
  Basis Set: CC-PVTZ
  Basis Set:
  @DF-RHF Final Energy:  -248.22024210420602
    Total Energy =                       -248.2202421042059086
    Molecular point group: c1
  Basis Set: CC-PVTZ
  Basis Set:
  Basis Set: CC-PVTZ
  Basis Set:
  @DF-RHF Final Energy:  -248.22174589446641
    Total Energy =                       -248.2217458944663804
  Basis Set: CC-PVTZ
  Basis Set:
  Basis Set: CC-PVTZ
  Basis Set:
  @DF-RHF Final Energy:  -248.22189345863609
    Total Energy =                       -248.2218934586361456
  Basis Set: CC-PVTZ
  Basis Set:
  Basis Set: CC-PVTZ
  Basis Set:
  @DF-RHF Final Energy:  -248.22190582238551
    Total Energy =                       -248.2219058223855654
  Basis Set: CC-PVTZ
  Basis Set:
  Charge       = 0
  Multiplicity = 1
  Basis Set: CC-PVTZ
  Basis Set:

    Orbital Energies (a.u.)
    -----------------------

    Doubly Occupied:

       1A    -20.544805     2A    -15.530239     3A    -11.262332
       4A    -11.259072     5A    -11.240901     6A     -1.375913
       7A     -1.180002     8A     -1.000204     9A     -0.907974
      10A     -0.813375    11A     -0.688266    12A     -0.669297
      13A     -0.642431    14A     -0.618665    15A     -0.600419
      16A     -0.539718    17A     -0.532651    18A     -0.508264
      19A     -0.468007    20A     -0.417378    21A     -0.383973

  @DF-RHF Final Energy:  -248.22190692848534

   => Energetics <=

    Nuclear Repulsion Energy =            196.6767540963693932
    One-Electron Energy =                -727.4295504620762358
    Two-Electron Energy =                 282.5308894372215605
    DFT Exchange-Correlation Energy =       0.0000000000000000
    Empirical Dispersion Energy =           0.0000000000000000
    PCM Polarization Energy =               0.0000000000000000
    EFP Energy =                            0.0000000000000000
    Total Energy =                       -248.2219069284853390
    Molecular point group: c1
  Basis Set: CC-PVTZ
  Basis Set:

  -Total Gradient:
     Atom            X                  Y                   Z
    ------   -----------------  -----------------  -----------------
       1        0.000002701543    -0.000003966338     0.000005050137
       2       -0.000056310517     0.000032147699    -0.000003041914
       3       -0.000191835166    -0.000820973931     0.000962307186
       4        0.000021940156     0.000022924050    -0.000003149562
       5       -0.000125798469     0.000649846112    -0.001508704033
       6       -0.000010323316    -0.000016202088     0.000022562616
       7       -0.000018188832     0.000003931235     0.000021823324
       8        0.001535800156     0.000969781927     0.000771415296
       9        0.000014081876     0.000019520938    -0.000018715153
      10       -0.000000534496    -0.000027654614    -0.000014989353
      11       -0.001189462414    -0.000814666055    -0.000248563637
      12       -0.000003470426     0.000008845152     0.000009384237
      13        0.000018030648    -0.000004695156     0.000000329252
      14        0.000003369261    -0.000018838933     0.000004291601

  **** Optimization is complete! (in 5 steps) ****
    Final optimized geometry and variables:
    Molecular point group: c1

    Geometry (in Angstrom), charge = 0, multiplicity = 1:

    H           -2.705461306815    -0.564298714005    -0.091087254066
    N           -1.726035846535    -0.517981554500     0.092589896712
    C           -1.182999539030     0.765278031282    -0.319484293636
    H           -1.296536402058    -1.255124124954    -0.425539738359
    C            0.249871058943     0.933874021110     0.146492929130
    H           -1.218148154013     0.914314915940    -1.397806592853
    H           -1.776440094142     1.552644642572     0.133418814772
    O            1.089046133000    -0.044407090251    -0.402204596135
    H            0.616881405128     1.904938858552    -0.168633828976
    H            0.283262797117     0.897541796259     1.230733404674
    C            1.575059346603    -1.005650032464     0.482640747519
    H            2.157673388119    -1.710920228037    -0.093234129487
    H            2.219980481199    -0.559467332694     1.235872421802
    H            0.773621226532    -1.535249658255     0.986137104063

  Mulliken Charges: (a.u.)
   Center  Symbol    Alpha    Beta     Spin     Total
       1     H     0.42948  0.42948  0.00000  0.14104
       2     N     3.69579  3.69579  0.00000 -0.39157
       3     C     3.02565  3.02565  0.00000 -0.05130
       4     H     0.42213  0.42213  0.00000  0.15574
       5     C     2.97048  2.97048  0.00000  0.05905
       6     H     0.46528  0.46528  0.00000  0.06944
       7     H     0.45842  0.45842  0.00000  0.08317
       8     O     4.18961  4.18961  0.00000 -0.37922
       9     H     0.45410  0.45410  0.00000  0.09181
      10     H     0.46967  0.46967  0.00000  0.06066
      11     C     3.03739  3.03739  0.00000 -0.07478
      12     H     0.45036  0.45036  0.00000  0.09929
      13     H     0.46610  0.46610  0.00000  0.06781
      14     H     0.46556  0.46556  0.00000  0.06888

   Total alpha = 21.00000, Total beta = 21.00000, Total charge = -0.00000
