  ==> Input File <==

--------------------------------------------------------------------------
set {
	reference rhf
	basis 6-31G*
}

set_num_threads( 4 )
memory 2 gb

molecule MOL {
0 1

H	 3.419946	 -0.523549	 -1.243770
O	 2.500796	 -0.733091	 -1.109565
C	 2.077727	 -0.067559	 -0.035091
C	 0.624473	 -0.343591	 0.253101
O	 2.794441	 0.645294	 0.588750
C	 -0.265902	 0.883932	 0.072916
H	 0.324016	 -1.163849	 -0.390541
H	 0.565024	 -0.726111	 1.268924
C	 -1.728698	 0.646073	 0.462102
H	 -0.209144	 1.219470	 -0.958188
H	 0.135059	 1.692851	 0.673903
C	 -2.482460	 -0.343073	 -0.431425
H	 -2.245265	 1.602650	 0.432430
H	 -1.779332	 0.308348	 1.496285
C	 -3.960546	 -0.461025	 -0.060175
H	 -2.395034	 -0.026811	 -1.468912
H	 -2.024850	 -1.327147	 -0.371646
H	 -4.472726	 -1.168004	 -0.705284
H	 -4.465146	 0.496508	 -0.151489
H	 -4.081218	 -0.800940	 0.964585

	symmetry c1
}
set optking {
	frozen_dihedral = ("
		5 3 4 7
	")
}

ee = optimize('scf')
oeprop('DIPOLE', 'QUADRUPOLE', 'MULLIKEN_CHARGES')
f=open( 'psi4out.xyz', 'w' )
f.write( "20  " )
f.write( str(ee) + "\n" )
f.write( MOL.save_string_xyz() )
f.close()
--------------------------------------------------------------------------

    Molecular point group: c1
  Charge       = 0
  Multiplicity = 1
  Basis Set: 6-31G*
  Basis Set:
  @DF-RHF Final Energy:  -383.94633131108151
    Total Energy =                       -383.9463313110818490
    Molecular point group: c1
  Basis Set: 6-31G*
  Basis Set:
  Basis Set: 6-31G*
  Basis Set:
  @DF-RHF Final Energy:  -383.94700424668565
    Total Energy =                       -383.9470042466855375
  Basis Set: 6-31G*
  Basis Set:
  Basis Set: 6-31G*
  Basis Set:
  @DF-RHF Final Energy:  -383.94705186020775
    Total Energy =                       -383.9470518602079210
  Basis Set: 6-31G*
  Basis Set:
  Basis Set: 6-31G*
  Basis Set:
  @DF-RHF Final Energy:  -383.94702522385677
    Total Energy =                       -383.9470252238571675
  Basis Set: 6-31G*
  Basis Set:
  Basis Set: 6-31G*
  Basis Set:
  @DF-RHF Final Energy:  -383.94705884129513
    Total Energy =                       -383.9470588412949610
  Basis Set: 6-31G*
  Basis Set:
  Basis Set: 6-31G*
  Basis Set:
  @DF-RHF Final Energy:  -383.94705679027140
    Total Energy =                       -383.9470567902712901
  Basis Set: 6-31G*
  Basis Set:
  Basis Set: 6-31G*
  Basis Set:
  @DF-RHF Final Energy:  -383.94705922818213
    Total Energy =                       -383.9470592281822974
  Basis Set: 6-31G*
  Basis Set:
  Charge       = 0
  Multiplicity = 1
  Basis Set: 6-31G*
  Basis Set:

    Orbital Energies (a.u.)
    -----------------------

    Doubly Occupied:

       1A    -20.614441     2A    -20.548064     3A    -11.380138
       4A    -11.238299     5A    -11.231081     6A    -11.223333
       7A    -11.221812     8A    -11.213563     9A     -1.474470
      10A     -1.364096    11A     -1.098417    12A     -1.041576
      13A     -0.960921    14A     -0.867290    15A     -0.819349
      16A     -0.786425    17A     -0.701578    18A     -0.687641
      19A     -0.644220    20A     -0.640827    21A     -0.613949
      22A     -0.593410    23A     -0.575522    24A     -0.554343
      25A     -0.547818    26A     -0.513823    27A     -0.501625
      28A     -0.479072    29A     -0.473906    30A     -0.465082
      31A     -0.460164    32A     -0.438499

  @DF-RHF Final Energy:  -383.94706013681940

   => Energetics <=

    Nuclear Repulsion Energy =            376.2416171084220764
    One-Electron Energy =               -1268.4278499082681719
    Two-Electron Energy =                 508.2391726630269773
    DFT Exchange-Correlation Energy =       0.0000000000000000
    Empirical Dispersion Energy =           0.0000000000000000
    PCM Polarization Energy =               0.0000000000000000
    EFP Energy =                            0.0000000000000000
    Total Energy =                       -383.9470601368190614
    Molecular point group: c1
  Basis Set: 6-31G*
  Basis Set:

  -Total Gradient:
     Atom            X                  Y                   Z
    ------   -----------------  -----------------  -----------------
       1       -0.000026536138     0.000003637067     0.000035083256
       2       -0.000039147255    -0.000054108551    -0.000078087798
       3       -0.000011733900     0.000247069362    -0.000150852741
       4       -0.000063841246     0.000111100995    -0.000192597860
       5        0.000030798725    -0.000155131291     0.000192191128
       6        0.000018141435    -0.000036807807     0.000002627455
       7        0.000075911558    -0.000151812673     0.000172331921
       8        0.000021225748     0.000000883391     0.000021217620
       9        0.000009569799     0.000006183671     0.000014084697
      10       -0.000006327648     0.000014473993    -0.000015260283
      11       -0.000006308965     0.000008913174     0.000015409715
      12       -0.000002665060     0.000006891620    -0.000016438957
      13        0.000000609272    -0.000004238923    -0.000001931436
      14        0.000003601545     0.000007047553    -0.000001055885
      15        0.000002187320    -0.000008100143     0.000005900692
      16       -0.000001736638     0.000000540648    -0.000002017878
      17       -0.000004491538     0.000004948919    -0.000000731985
      18        0.000001011323    -0.000003020496     0.000002648090
      19        0.000001921109    -0.000001839426    -0.000003847328
      20       -0.000002189456     0.000003368919     0.000001327573

  **** Optimization is complete! (in 8 steps) ****
    Final optimized geometry and variables:
    Molecular point group: c1

    Geometry (in Angstrom), charge = 0, multiplicity = 1:

    H            3.466202002849    -0.434803913738    -1.184316336398
    O            2.556772256897    -0.695656560128    -1.073500925010
    C            2.085315069483    -0.091873700481     0.014801293831
    C            0.637557760798    -0.412265830419     0.288425074015
    O            2.756300769383     0.632719896933     0.676857982068
    C           -0.240574377749     0.835212177546     0.102720815462
    H            0.321740449677    -1.222731139905    -0.353372397306
    H            0.576896566094    -0.746966466867     1.318937901503
    C           -1.705088541318     0.623354279741     0.498498644761
    H           -0.188359692771     1.160424396473    -0.934027130089
    H            0.178410110139     1.635048693968     0.703484863260
    C           -2.475896595982    -0.363952792503    -0.381942015890
    H           -2.206395598716     1.587815071527     0.460900632074
    H           -1.753312845768     0.297669321962     1.536204920042
    C           -3.953524291393    -0.457820078911    -0.002109113352
    H           -2.389216772549    -0.059421348719    -1.422973329701
    H           -2.030810289359    -1.352961022694    -0.314318258920
    H           -4.477923329326    -1.164964471205    -0.637030831707
    H           -4.446001626580     0.505211539723    -0.101549653854
    H           -4.073645725590    -0.784959250383     1.026820435458

  Mulliken Charges: (a.u.)
   Center  Symbol    Alpha    Beta     Spin     Total
       1     H     0.26835  0.26835  0.00000  0.46330
       2     O     4.34708  4.34708  0.00000 -0.69416
       3     C     2.62834  2.62834  0.00000  0.74332
       4     C     3.20514  3.20514  0.00000 -0.41028
       5     O     4.28044  4.28044  0.00000 -0.56088
       6     C     3.16615  3.16615  0.00000 -0.33229
       7     H     0.39798  0.39798  0.00000  0.20403
       8     H     0.39959  0.39959  0.00000  0.20082
       9     C     3.15432  3.15432  0.00000 -0.30865
      10     H     0.41520  0.41520  0.00000  0.16961
      11     H     0.40163  0.40163  0.00000  0.19673
      12     C     3.15481  3.15481  0.00000 -0.30961
      13     H     0.41770  0.41770  0.00000  0.16460
      14     H     0.42119  0.42119  0.00000  0.15761
      15     C     3.23953  3.23953  0.00000 -0.47906
      16     H     0.42151  0.42151  0.00000  0.15698
      17     H     0.42151  0.42151  0.00000  0.15698
      18     H     0.41795  0.41795  0.00000  0.16411
      19     H     0.42069  0.42069  0.00000  0.15863
      20     H     0.42089  0.42089  0.00000  0.15821

   Total alpha = 32.00000, Total beta = 32.00000, Total charge =  0.00000
