  ==> Input File <==

--------------------------------------------------------------------------
set {
	reference rhf
	basis cc-pvtz
}

set_num_threads( 4 )
memory 2 gb

molecule MOL {
0 1

H	 -1.994877	 0.067677	 -0.725693
C	 -1.135054	 -0.484948	 -0.412897
C	 -1.127913	 -1.865048	 -0.410330
C	 0.000000	 0.179985	 0.000046
H	 -2.000659	 -2.400786	 -0.727842
C	 0.000001	 -2.552036	 -0.000013
N	 0.000000	 1.644631	 0.000076
C	 1.135053	 -0.484965	 0.412963
H	 0.000000	 -3.625035	 -0.000032
C	 1.127914	 -1.865065	 0.410336
O	 1.050559	 2.194174	 -0.000073
O	 -1.050559	 2.194174	 -0.000074
H	 1.994880	 0.067648	 0.725773
H	 2.000659	 -2.400815	 0.727830

	symmetry c1
}
set optking {
	frozen_dihedral = ("
		2 4 7 11
	")
}

ee = optimize('scf')
oeprop('DIPOLE', 'QUADRUPOLE', 'MULLIKEN_CHARGES')
f=open( 'psi4out.xyz', 'w' )
f.write( "14  " )
f.write( str(ee) + "\n" )
f.write( MOL.save_string_xyz() )
f.close()
--------------------------------------------------------------------------

    Molecular point group: c1
  Charge       = 0
  Multiplicity = 1
  Basis Set: CC-PVTZ
  Basis Set:
  @DF-RHF Final Energy:  -434.32936079988696
    Total Energy =                       -434.3293607998868993
    Molecular point group: c1
  Basis Set: CC-PVTZ
  Basis Set:
  Basis Set: CC-PVTZ
  Basis Set:
  @DF-RHF Final Energy:  -434.32367050095286
    Total Energy =                       -434.3236705009529715
  Basis Set: CC-PVTZ
  Basis Set:
  Basis Set: CC-PVTZ
  Basis Set:
  @DF-RHF Final Energy:  -434.32931707282029
    Total Energy =                       -434.3293170728205723
  Basis Set: CC-PVTZ
  Basis Set:
  Basis Set: CC-PVTZ
  Basis Set:
  @DF-RHF Final Energy:  -434.32943506833857
    Total Energy =                       -434.3294350683383982
  Basis Set: CC-PVTZ
  Basis Set:
  Basis Set: CC-PVTZ
  Basis Set:
  @DF-RHF Final Energy:  -434.32943562010433
    Total Energy =                       -434.3294356201041637
  Basis Set: CC-PVTZ
  Basis Set:
  Charge       = 0
  Multiplicity = 1
  Basis Set: CC-PVTZ
  Basis Set:

    Orbital Energies (a.u.)
    -----------------------

    Doubly Occupied:

       1A    -20.592337     2A    -20.592231     3A    -15.847620
       4A    -11.302824     5A    -11.267456     6A    -11.267385
       7A    -11.264379     8A    -11.258527     9A    -11.258377
      10A     -1.641352    11A     -1.423886    12A     -1.204904
      13A     -1.096008    14A     -1.055368    15A     -0.959513
      16A     -0.868109    17A     -0.829134    18A     -0.788887
      19A     -0.740617    20A     -0.735373    21A     -0.712450
      22A     -0.658976    23A     -0.651885    24A     -0.626435
      25A     -0.556165    26A     -0.542167    27A     -0.531665
      28A     -0.493269    29A     -0.491342    30A     -0.457262
      31A     -0.377024    32A     -0.369555

  @DF-RHF Final Energy:  -434.32943660494385

   => Energetics <=

    Nuclear Repulsion Energy =            418.2166822004560913
    One-Electron Energy =               -1420.1672780161711671
    Two-Electron Energy =                 567.6211592107715660
    DFT Exchange-Correlation Energy =       0.0000000000000000
    Empirical Dispersion Energy =           0.0000000000000000
    PCM Polarization Energy =               0.0000000000000000
    EFP Energy =                            0.0000000000000000
    Total Energy =                       -434.3294366049435666
    Molecular point group: c1
  Basis Set: CC-PVTZ
  Basis Set:

  -Total Gradient:
     Atom            X                  Y                   Z
    ------   -----------------  -----------------  -----------------
       1       -0.000000149520    -0.000001619428     0.000001860076
       2        0.000614283766    -0.000026993767    -0.001664882581
       3       -0.000009662065     0.000009637525     0.000007947286
       4       -0.000874454043     0.000018919297     0.001641647269
       5        0.000000347228     0.000000038561    -0.000001933425
       6        0.000011075461    -0.000001338388     0.000006544234
       7        0.000250142812     0.000024842271     0.002039720590
       8       -0.000012987363     0.000012424856     0.000012744172
       9       -0.000000751251     0.000000561017    -0.000000177152
      10       -0.000001169157    -0.000011595058    -0.000016789703
      11        0.000029852762    -0.000024925270    -0.002027483083
      12       -0.000009262235    -0.000000969010     0.000000113196
      13        0.000002104690    -0.000000742635    -0.000001348329
      14        0.000000628912     0.000001760032     0.000002037449

  **** Optimization is complete! (in 6 steps) ****
    Final optimized geometry and variables:
    Molecular point group: c1

    Geometry (in Angstrom), charge = 0, multiplicity = 1:

    H           -2.000520249102     0.071025385954    -0.707255407210
    C           -1.138310338149    -0.482760404124    -0.401823566508
    C           -1.126870935948    -1.862943656512    -0.411811755182
    C           -0.004439081984     0.180034672462     0.015041067812
    H           -1.996169374244    -2.398673002757    -0.738643699321
    C            0.000876772944    -2.549943669347    -0.001329269089
    N            0.000070280174     1.643104103984     0.001585733981
    C            1.135623333182    -0.483332275276     0.414088793273
    H            0.002483999230    -3.622869432002    -0.006408676121
    C            1.127601038197    -1.863419456926     0.413250567856
    O            1.053347748225     2.187703107517     0.005564693140
    O           -1.049577212284     2.193984817701    -0.027216203161
    H            1.999045891279     0.070110446832     0.716764257646
    H            2.000058402762    -2.399656778910     0.730700269568

  Mulliken Charges: (a.u.)
   Center  Symbol    Alpha    Beta     Spin     Total
       1     H     0.40081  0.40081  0.00000  0.19837
       2     C     3.07957  3.07957  0.00000 -0.15915
       3     C     3.07198  3.07198  0.00000 -0.14395
       4     C     2.97015  2.97015  0.00000  0.05970
       5     H     0.41695  0.41695  0.00000  0.16610
       6     C     3.06528  3.06528  0.00000 -0.13056
       7     N     3.25848  3.25848  0.00000  0.48303
       8     C     3.07877  3.07877  0.00000 -0.15754
       9     H     0.41714  0.41714  0.00000  0.16573
      10     C     3.07187  3.07187  0.00000 -0.14373
      11     O     4.17518  4.17518  0.00000 -0.35035
      12     O     4.17562  4.17562  0.00000 -0.35125
      13     H     0.40122  0.40122  0.00000  0.19756
      14     H     0.41698  0.41698  0.00000  0.16604

   Total alpha = 32.00000, Total beta = 32.00000, Total charge = -0.00000
