  ==> Input File <==

--------------------------------------------------------------------------
set {
	reference rhf
	basis 6-31G*
}

set_num_threads( 4 )
memory 2 gb

molecule MOL {
0 1

H	 2.591676	 2.013956	 0.335017
O	 3.341076	 1.666752	 -0.126416
C	 3.569581	 0.339145	 0.272707
C	 2.539767	 -0.640285	 -0.279495
H	 4.553106	 0.084646	 -0.100901
H	 3.608576	 0.269204	 1.359154
C	 2.150128	 -1.751057	 0.698890
H	 1.653512	 -0.081817	 -0.569375
H	 2.946205	 -1.083806	 -1.186944
C	 1.156464	 -2.748175	 0.096225
H	 1.720732	 -1.305783	 1.592039
H	 3.045879	 -2.286088	 1.014660
C	 0.798141	 -3.929453	 1.005361
H	 0.246346	 -2.221235	 -0.184605
H	 1.576674	 -3.139974	 -0.827689
C	 0.017276	 -3.556748	 2.268619
H	 0.206709	 -4.637466	 0.428524
H	 1.709033	 -4.455851	 1.286462
C	 -0.408043	 -4.776901	 3.088233
H	 -0.867695	 -2.987055	 1.988646
H	 0.614638	 -2.901788	 2.898292
C	 -1.182128	 -4.407358	 4.353102
H	 -1.019110	 -5.430731	 2.469692
H	 0.474122	 -5.352630	 3.360641
H	 -2.088011	 -3.858296	 4.111995
H	 -1.470983	 -5.292891	 4.910801
H	 -0.583957	 -3.783092	 5.011013

	symmetry c1
}
set optking {
	frozen_dihedral = ("
		8 4 3 2
	")
}

ee = optimize('scf')
oeprop('DIPOLE', 'QUADRUPOLE', 'MULLIKEN_CHARGES')
f=open( 'psi4out.xyz', 'w' )
f.write( "27  " )
f.write( str(ee) + "\n" )
f.write( MOL.save_string_xyz() )
f.close()
--------------------------------------------------------------------------

    Molecular point group: c1
  Charge       = 0
  Multiplicity = 1
  Basis Set: 6-31G*
  Basis Set:
  @DF-RHF Final Energy:  -388.27693997070156
    Total Energy =                       -388.2769399707011644
    Molecular point group: c1
  Basis Set: 6-31G*
  Basis Set:
  Basis Set: 6-31G*
  Basis Set:
  @DF-RHF Final Energy:  -388.27741420843915
    Total Energy =                       -388.2774142084396090
  Basis Set: 6-31G*
  Basis Set:
  Basis Set: 6-31G*
  Basis Set:
  @DF-RHF Final Energy:  -388.27747382336941
    Total Energy =                       -388.2774738233694052
  Basis Set: 6-31G*
  Basis Set:
  Charge       = 0
  Multiplicity = 1
  Basis Set: 6-31G*
  Basis Set:

    Orbital Energies (a.u.)
    -----------------------

    Doubly Occupied:

       1A    -20.551256     2A    -11.267069     3A    -11.219824
       4A    -11.217233     5A    -11.216438     6A    -11.216223
       7A    -11.215653     8A    -11.214436     9A    -11.209707
      10A     -1.358309    11A     -1.095545    12A     -1.062057
      13A     -1.010857    14A     -0.945323    15A     -0.884592
      16A     -0.824261    17A     -0.805269    18A     -0.779257
      19A     -0.687746    20A     -0.650391    21A     -0.643628
      22A     -0.607106    23A     -0.603903    24A     -0.586237
      25A     -0.573201    26A     -0.553530    27A     -0.545643
      28A     -0.523628    29A     -0.509976    30A     -0.501680
      31A     -0.482789    32A     -0.475972    33A     -0.463987
      34A     -0.460515    35A     -0.450850    36A     -0.442963
      37A     -0.421533

  @DF-RHF Final Energy:  -388.27747467025534

   => Energetics <=

    Nuclear Repulsion Energy =            453.6107650902437740
    One-Electron Energy =               -1425.2193087535233644
    Two-Electron Energy =                 583.3310689930242461
    DFT Exchange-Correlation Energy =       0.0000000000000000
    Empirical Dispersion Energy =           0.0000000000000000
    PCM Polarization Energy =               0.0000000000000000
    EFP Energy =                            0.0000000000000000
    Total Energy =                       -388.2774746702552875
    Molecular point group: c1
  Basis Set: 6-31G*
  Basis Set:

  -Total Gradient:
     Atom            X                  Y                   Z
    ------   -----------------  -----------------  -----------------
       1       -0.000012847774    -0.000025420859     0.000013593264
       2       -0.001979169747     0.000602011974     0.002744652951
       3        0.003124116440    -0.000724358696    -0.004668957149
       4       -0.002859297373    -0.000462056006     0.005947952571
       5       -0.000008158499     0.000031445309    -0.000013060589
       6       -0.000024913973     0.000011679942    -0.000000727158
       7        0.000039568311     0.000013687665    -0.000039859725
       8        0.001721075230     0.000492233015    -0.003986843331
       9        0.000033962735     0.000019565606    -0.000007284070
      10       -0.000079970438     0.000026611332     0.000025941840
      11        0.000043598536     0.000017268614    -0.000052135714
      12        0.000026782406     0.000034368335    -0.000020023818
      13       -0.000010603125     0.000016282586     0.000014061446
      14       -0.000003840498     0.000015362936     0.000017860704
      15       -0.000018436500    -0.000002835550     0.000008926230
      16        0.000012841055    -0.000026989066     0.000018566886
      17        0.000025139572    -0.000035368325    -0.000003368542
      18        0.000019914737     0.000041568641     0.000024335260
      19       -0.000021125007    -0.000002105658    -0.000022210968
      20        0.000007572340     0.000028322498     0.000002305942
      21       -0.000020273839    -0.000068236495     0.000002526723
      22       -0.000017612551    -0.000001851089    -0.000010420753
      23        0.000004634355    -0.000014034734    -0.000000179759
      24        0.000000296868     0.000012590532     0.000003573647
      25       -0.000002254327     0.000002521799     0.000004390644
      26       -0.000003787355    -0.000000013725    -0.000000701005
      27        0.000002788418    -0.000002250583    -0.000002915530

  **** Optimization is complete! (in 4 steps) ****
    Final optimized geometry and variables:
    Molecular point group: c1

    Geometry (in Angstrom), charge = 0, multiplicity = 1:

    H            1.199759691960     4.111681245660    -1.044545015127
    O            2.025900732061     3.801532551237    -1.387615377770
    C            2.225507742512     2.473718048426    -0.976178721776
    C            1.178761655442     1.499417717353    -1.539097449447
    H            3.219181201254     2.205867359268    -1.308516893344
    H            2.230170665203     2.423879496960     0.112202337170
    C            0.791292413218     0.385849773924    -0.565870426669
    H            0.303610283105     2.068181485925    -1.846485729673
    H            1.558171494648     1.059991400455    -2.458766363262
    C           -0.211145032104    -0.604646528794    -1.163422738321
    H            0.383742414730     0.831898010246     0.337924385367
    H            1.688000346470    -0.152915031412    -0.261471235164
    C           -0.563462282047    -1.789760554177    -0.256854012933
    H           -1.123149293568    -0.074271149590    -1.432873329074
    H            0.198081558235    -0.992920651706    -2.093589048917
    C           -1.341261703476    -1.423331002331     1.010068002132
    H           -1.154521524025    -2.497864519413    -0.833947927079
    H            0.349958645921    -2.313937554196     0.019802542651
    C           -1.767274682974    -2.647692399735     1.823031782861
    H           -2.226155820651    -0.850819955843     0.734959958775
    H           -0.741452527838    -0.773305694359     1.642378133193
    C           -2.542282193977    -2.284663704771     3.089216606091
    H           -2.377838681711    -3.298411007963     1.200712312376
    H           -0.885268812431    -3.224614642685     2.093217393925
    H           -3.448092276212    -1.734433619478     2.850285583957
    H           -2.831610956658    -3.173035495441     3.642113978895
    H           -1.944491557160    -1.663871540457     3.750731899995

  Mulliken Charges: (a.u.)
   Center  Symbol    Alpha    Beta     Spin     Total
       1     H     0.28364  0.28364  0.00000  0.43272
       2     O     4.37094  4.37094  0.00000 -0.74187
       3     C     2.99175  2.99175  0.00000  0.01650
       4     C     3.17141  3.17141  0.00000 -0.34281
       5     H     0.41416  0.41416  0.00000  0.17168
       6     H     0.43034  0.43034  0.00000  0.13933
       7     C     3.16087  3.16087  0.00000 -0.32174
       8     H     0.42125  0.42125  0.00000  0.15751
       9     H     0.41640  0.41640  0.00000  0.16719
      10     C     3.15322  3.15322  0.00000 -0.30645
      11     H     0.42159  0.42159  0.00000  0.15682
      12     H     0.42241  0.42241  0.00000  0.15518
      13     C     3.15345  3.15345  0.00000 -0.30689
      14     H     0.42342  0.42342  0.00000  0.15316
      15     H     0.42069  0.42069  0.00000  0.15863
      16     C     3.15259  3.15259  0.00000 -0.30518
      17     H     0.42130  0.42130  0.00000  0.15740
      18     H     0.42367  0.42367  0.00000  0.15267
      19     C     3.15123  3.15123  0.00000 -0.30245
      20     H     0.42480  0.42480  0.00000  0.15040
      21     H     0.42269  0.42269  0.00000  0.15462
      22     C     3.23920  3.23920  0.00000 -0.47839
      23     H     0.42292  0.42292  0.00000  0.15417
      24     H     0.42292  0.42292  0.00000  0.15415
      25     H     0.42192  0.42192  0.00000  0.15615
      26     H     0.41914  0.41914  0.00000  0.16172
      27     H     0.42211  0.42211  0.00000  0.15577

   Total alpha = 37.00000, Total beta = 37.00000, Total charge =  0.00000
