                              Psi4 1.0.54 Driver

  ==> Input File <==

--------------------------------------------------------------------------
set {
	reference rhf
	basis cc-pvtz
}

set_num_threads( 4 )
memory 2 gb

molecule MOL {
0 1

H	 -2.123894	 -0.667238	 -0.609809
O	 -2.041679	 -0.058866	 0.103463
C	 -0.959304	 0.780994	 -0.094939
C	 0.354905	 0.037902	 -0.006215
H	 -0.985899	 1.279578	 -1.057596
H	 -0.969809	 1.529522	 0.682889
F	 0.766847	 -0.046970	 1.246339
F	 0.218444	 -1.188953	 -0.464256
F	 1.308162	 0.619933	 -0.693611

	symmetry c1
}
set optking {
	frozen_dihedral = ("
		7 4 3 5
	")
}

ee,wfn = optimize('scf', return_wfn=True)
oeprop( wfn, 'DIPOLE', 'QUADRUPOLE', 'MULLIKEN_CHARGES')
f=open( 'psi4out.xyz', 'w' )
f.write( "9  " )
f.write( str(ee) + "\n" )
f.write( MOL.save_string_xyz() )
f.close()
--------------------------------------------------------------------------

    Molecular point group: c1
  Charge       = 0
  Multiplicity = 1
  Basis Set: CC-PVTZ
  Basis Set:
  @DF-RHF Final Energy:  -450.84397363996504
    Total Energy =                       -450.8439736399651565
    Molecular point group: c1
  Basis Set: CC-PVTZ
  Basis Set:
  Basis Set: CC-PVTZ
  Basis Set:
  @DF-RHF Final Energy:  -450.84462983001441
    Total Energy =                       -450.8446298300144122
  Basis Set: CC-PVTZ
  Basis Set:
  Basis Set: CC-PVTZ
  Basis Set:
  @DF-RHF Final Energy:  -450.84486906631184
    Total Energy =                       -450.8448690663117304
  Basis Set: CC-PVTZ
  Basis Set:
  Basis Set: CC-PVTZ
  Basis Set:
  @DF-RHF Final Energy:  -450.84488448007420
    Total Energy =                       -450.8448844800741426
  Basis Set: CC-PVTZ
  Basis Set:
  Charge       = 0
  Multiplicity = 1
  Basis Set: CC-PVTZ
  Basis Set:

    Orbital Energies (a.u.)
    -----------------------

    Doubly Occupied:

       1A    -26.342581     2A    -26.337478     3A    -26.336127
       4A    -20.584021     5A    -11.495101     6A    -11.309749
       7A     -1.748530     8A     -1.646788     9A     -1.641797
      10A     -1.407789    11A     -1.048998    12A     -0.930553
      13A     -0.838408    14A     -0.835854    15A     -0.814527
      16A     -0.729785    17A     -0.719841    18A     -0.704204
      19A     -0.672870    20A     -0.666119    21A     -0.649351
      22A     -0.632447    23A     -0.620548    24A     -0.531345
      25A     -0.484807

  @DF-RHF Final Energy:  -450.84488591924850

   => Energetics <=

    Nuclear Repulsion Energy =            277.2512039264020700
    One-Electron Energy =               -1176.7329373009740721
    Two-Electron Energy =                 448.6368474553235046
    DFT Exchange-Correlation Energy =       0.0000000000000000
    Empirical Dispersion Energy =           0.0000000000000000
    PCM Polarization Energy =               0.0000000000000000
    EFP Energy =                            0.0000000000000000
    Total Energy =                       -450.8448859192485543
    Molecular point group: c1
  Basis Set: CC-PVTZ
  Basis Set:

  -Total Gradient:
     Atom            X                  Y                   Z
    ------   -----------------  -----------------  -----------------
       1        0.000011063742     0.000022502738     0.000005134199
       2        0.000125157037     0.000109408586    -0.000036884487
       3       -0.001957620220    -0.003958864933    -0.002752496840
       4       -0.002358086925    -0.004214693195     0.000974407149
       5        0.002134364852     0.004100227828     0.002138129118
       6       -0.000010402461     0.000014994134     0.000025405190
       7        0.002186469562     0.003831425062    -0.000266956246
       8       -0.000045904608     0.000148678892    -0.000085714374
       9       -0.000085040980    -0.000053679107    -0.000001023704

  **** Optimization is complete! (in 5 steps) ****
    Final optimized geometry and variables:
    Molecular point group: c1

    Geometry (in Angstrom), charge = 0, multiplicity = 1:

    H           -2.127169600783    -0.686994558089    -0.567350815361
    O           -2.062017554603    -0.023509850499     0.096586867329
    C           -0.960422811196     0.780788974656    -0.123445776057
    C            0.354440454669     0.025896459735    -0.007604153259
    H           -0.967858900605     1.286456609607    -1.082327566199
    H           -0.955987139765     1.544083797543     0.640608710257
    F            0.762469878488    -0.084103580749     1.236473318246
    F            0.268863169409    -1.185638350008    -0.516500238904
    F            1.302352444192     0.666296146912    -0.664986030323

  Mulliken Charges: (a.u.)
   Center  Symbol    Alpha    Beta     Spin     Total
       1     H     0.38575  0.38575  0.00000  0.22850
       2     O     4.19018  4.19018  0.00000 -0.38037
       3     C     2.99645  2.99645  0.00000  0.00709
       4     C     2.68031  2.68031  0.00000  0.63937
       5     H     0.46274  0.46274  0.00000  0.07451
       6     H     0.44882  0.44882  0.00000  0.10236
       7     F     4.60866  4.60866  0.00000 -0.21732
       8     F     4.61414  4.61414  0.00000 -0.22828
       9     F     4.61294  4.61294  0.00000 -0.22587

   Total alpha = 25.00000, Total beta = 25.00000, Total charge =  0.00000

*** Psi4 exiting successfully. Buy a developer a beer!
