  ==> Input File <==

--------------------------------------------------------------------------
set {
	reference rhf
	basis 6-31G*
}

set_num_threads( 4 )
memory 2 gb

molecule MOL {
0 1

H	 2.182807	 -0.908841	 -0.567032
O	 2.064459	 -0.086912	 -0.111827
C	 0.745630	 0.005118	 0.354752
H	 0.739005	 0.037656	 1.444976
C	 -0.064159	 -1.194875	 -0.122754
C	 -0.046302	 1.193543	 -0.190431
H	 0.197384	 -1.376065	 -1.160690
H	 0.162855	 -2.097978	 0.431858
C	 -1.535782	 -0.752177	 0.006642
H	 0.154512	 1.271315	 -1.255561
H	 0.226209	 2.140461	 0.267302
C	 -1.509193	 0.801505	 0.065617
H	 -2.127797	 -1.112194	 -0.826847
H	 -1.986849	 -1.158408	 0.905561
H	 -2.183670	 1.254107	 -0.651985
H	 -1.821727	 1.144320	 1.047089

	symmetry c1
}
set optking {
	frozen_dihedral = ("
		1 2 3 6
	")
}

ee = optimize('scf')
oeprop('DIPOLE', 'QUADRUPOLE', 'MULLIKEN_CHARGES')
f=open( 'psi4out.xyz', 'w' )
f.write( "16  " )
f.write( str(ee) + "\n" )
f.write( MOL.save_string_xyz() )
f.close()
--------------------------------------------------------------------------

    Molecular point group: c1
  Charge       = 0
  Multiplicity = 1
  Basis Set: 6-31G*
  Basis Set:
  @DF-RHF Final Energy:  -270.01024491537828
    Total Energy =                       -270.0102449153782800
    Molecular point group: c1
  Basis Set: 6-31G*
  Basis Set:
  Basis Set: 6-31G*
  Basis Set:
  @DF-RHF Final Energy:  -270.01173946355209
    Total Energy =                       -270.0117394635522601
  Basis Set: 6-31G*
  Basis Set:
  Basis Set: 6-31G*
  Basis Set:
  @DF-RHF Final Energy:  -270.01195207247940
    Total Energy =                       -270.0119520724796303
  Basis Set: 6-31G*
  Basis Set:
  Basis Set: 6-31G*
  Basis Set:
  @DF-RHF Final Energy:  -270.01195943703829
    Total Energy =                       -270.0119594370382856
  Basis Set: 6-31G*
  Basis Set:
  Basis Set: 6-31G*
  Basis Set:
  @DF-RHF Final Energy:  -270.01196092902603
    Total Energy =                       -270.0119609290259177
  Basis Set: 6-31G*
  Basis Set:
  Basis Set: 6-31G*
  Basis Set:
  @DF-RHF Final Energy:  -270.01196204313209
    Total Energy =                       -270.0119620431322573
  Basis Set: 6-31G*
  Basis Set:
  Charge       = 0
  Multiplicity = 1
  Basis Set: 6-31G*
  Basis Set:

    Orbital Energies (a.u.)
    -----------------------

    Doubly Occupied:

       1A    -20.549436     2A    -11.268334     3A    -11.221103
       4A    -11.220530     5A    -11.216880     6A    -11.207901
       7A     -1.358864     8A     -1.115801     9A     -0.969292
      10A     -0.948960    11A     -0.798964    12A     -0.781806
      13A     -0.680280    14A     -0.665685    15A     -0.607838
      16A     -0.600572    17A     -0.576330    18A     -0.530962
      19A     -0.501601    20A     -0.485448    21A     -0.472977
      22A     -0.459600    23A     -0.447445    24A     -0.417927

  @DF-RHF Final Energy:  -270.01196244915502

   => Energetics <=

    Nuclear Repulsion Energy =            255.1032301466601382
    One-Electron Energy =                -872.0213127039050960
    Two-Electron Energy =                 346.9061201080900219
    DFT Exchange-Correlation Energy =       0.0000000000000000
    Empirical Dispersion Energy =           0.0000000000000000
    PCM Polarization Energy =               0.0000000000000000
    EFP Energy =                            0.0000000000000000
    Total Energy =                       -270.0119624491549075
    Molecular point group: c1
  Basis Set: 6-31G*
  Basis Set:

  -Total Gradient:
     Atom            X                  Y                   Z
    ------   -----------------  -----------------  -----------------
       1       -0.000014771130     0.000037634789    -0.000059429081
       2        0.000008010243    -0.000072428656     0.000049881132
       3       -0.000002379659     0.000019373294     0.000018930800
       4       -0.000005931532    -0.000001998676     0.000012471284
       5        0.000073660616     0.000014809966     0.000007797166
       6       -0.000053724788    -0.000014602284    -0.000037835436
       7       -0.000003655352    -0.000010762274     0.000007532559
       8       -0.000003900545    -0.000003137266     0.000011800718
       9       -0.000031749209    -0.000000125465     0.000008217621
      10       -0.000001577986    -0.000003211703    -0.000003443810
      11       -0.000003888769     0.000007858626    -0.000006430925
      12        0.000030165460     0.000019597095    -0.000000665631
      13        0.000016436115     0.000010473846    -0.000012735716
      14       -0.000006656803    -0.000011694248    -0.000011724684
      15       -0.000008794154     0.000010055222     0.000010731265
      16        0.000008757490    -0.000001842266     0.000004902739

  **** Optimization is complete! (in 7 steps) ****
    Final optimized geometry and variables:
    Molecular point group: c1

    Geometry (in Angstrom), charge = 0, multiplicity = 1:

    H            2.280622039831    -0.795571456365    -0.547969551668
    O            2.090093025700    -0.010394145513    -0.056925237821
    C            0.745463733264    -0.004459225790     0.348254999176
    H            0.727551314996     0.026241125965     1.435557710046
    C           -0.083404841914    -1.196587275355    -0.132114423027
    C           -0.032311241461     1.189344231213    -0.197546141828
    H            0.146291790669    -1.373802928756    -1.181822527282
    H            0.135292455412    -2.111367799412     0.409516287751
    C           -1.547152353213    -0.736908310244     0.021753576238
    H            0.165661248463     1.265250484154    -1.263489256594
    H            0.262840590156     2.127959186230     0.257681344276
    C           -1.499082498567     0.817225933924     0.065828703207
    H           -2.159835423161    -1.100296266403    -0.795029839196
    H           -1.979899473963    -1.131474401043     0.934471102525
    H           -2.171065968021     1.269377971601    -0.654352382569
    H           -1.806052506132     1.171655454015     1.044654005537

  Mulliken Charges: (a.u.)
   Center  Symbol    Alpha    Beta     Spin     Total
       1     H     0.27921  0.27921  0.00000  0.44158
       2     O     4.38380  4.38380  0.00000 -0.76761
       3     C     2.89518  2.89518  0.00000  0.20963
       4     H     0.42448  0.42448  0.00000  0.15103
       5     C     3.18934  3.18934  0.00000 -0.37869
       6     C     3.16424  3.16424  0.00000 -0.32849
       7     H     0.42236  0.42236  0.00000  0.15527
       8     H     0.41276  0.41276  0.00000  0.17448
       9     C     3.16620  3.16620  0.00000 -0.33239
      10     H     0.41914  0.41914  0.00000  0.16172
      11     H     0.41223  0.41223  0.00000  0.17553
      12     C     3.17120  3.17120  0.00000 -0.34241
      13     H     0.41410  0.41410  0.00000  0.17179
      14     H     0.41513  0.41513  0.00000  0.16974
      15     H     0.41403  0.41403  0.00000  0.17193
      16     H     0.41657  0.41657  0.00000  0.16686

   Total alpha = 24.00000, Total beta = 24.00000, Total charge =  0.00000
