  ==> Input File <==

--------------------------------------------------------------------------
set {
	reference rhf
	basis 6-31G*
}

set_num_threads( 1 )
memory 2 gb

molecule MOL {
0 1

O	 2.862325	 1.357334	 0.000267
C	 2.843464	 0.164689	 -0.000222
C	 1.546494	 -0.624492	 -0.000609
C	 4.124123	 -0.644674	 -0.000428
C	 0.291004	 0.242674	 0.000989
H	 1.557904	 -1.283758	 -0.867573
H	 1.558622	 -1.285963	 0.864672
C	 0.136273	 1.047902	 1.292278
H	 -0.578559	 -0.390080	 -0.146021
H	 0.321221	 0.913985	 -0.851406
C	 -1.120116	 1.920276	 1.305696
H	 0.110163	 0.368775	 2.143249
H	 1.012392	 1.679005	 1.434377
C	 -1.282035	 2.728742	 2.594175
H	 -1.996616	 1.290346	 1.164432
H	 -1.094681	 2.600172	 0.455936
C	 -2.539409	 3.597453	 2.600139
H	 -1.308787	 2.050108	 3.444213
H	 -0.407156	 3.359946	 2.735690
H	 -3.434896	 2.991592	 2.494375
H	 -2.626686	 4.157592	 3.526059
H	 -2.526358	 4.311498	 1.781535
H	 4.165367	 -1.288615	 -0.874074
H	 4.976217	 0.020734	 -0.001915
H	 4.166763	 -1.286207	 0.874930

	symmetry c1
}
set optking {
	frozen_dihedral = ("
		9 5 8 12,
		15 11 8 12,
		15 11 14 18,
		1 2 3 6
	")
}

ee = energy('scf')
oeprop('DIPOLE', 'QUADRUPOLE', 'MULLIKEN_CHARGES')
f=open( 'psi4out.xyz', 'w' )
f.write( "25  " )
f.write( str(ee) + "\n" )
f.write( MOL.save_string_xyz() )
f.close()
--------------------------------------------------------------------------

    Molecular point group: c1

    Geometry (in Angstrom), charge = 0, multiplicity = 1:

       Center              X                  Y                   Z               Mass
    ------------   -----------------  -----------------  -----------------  -----------------
           O          2.099715571473     0.254830319605    -0.872579646349    15.994914619560
           C          2.080854571473    -0.937814680395    -0.873068646349    12.000000000000
           C          0.783884571473    -1.726995680395    -0.873455646349    12.000000000000
           C          3.361513571473    -1.747177680395    -0.873274646349    12.000000000000
           C         -0.471605428527    -0.859829680395    -0.871857646349    12.000000000000
           H          0.795294571473    -2.386261680395    -1.740419646349     1.007825032070
           H          0.796012571473    -2.388466680395    -0.008174646349     1.007825032070
           C         -0.626336428527    -0.054601680395     0.419431353651    12.000000000000
           H         -1.341168428527    -1.492583680395    -1.018867646349     1.007825032070
           H         -0.441388428527    -0.188518680395    -1.724252646349     1.007825032070
           C         -1.882725428527     0.817772319605     0.432849353651    12.000000000000
           H         -0.652446428527    -0.733728680395     1.270402353651     1.007825032070
           H          0.249782571473     0.576501319605     0.561530353651     1.007825032070
           C         -2.044644428527     1.626238319605     1.721328353651    12.000000000000
           H         -2.759225428527     0.187842319605     0.291585353651     1.007825032070
           H         -1.857290428527     1.497668319605    -0.416910646349     1.007825032070
           C         -3.302018428527     2.494949319605     1.727292353651    12.000000000000
           H         -2.071396428527     0.947604319605     2.571366353651     1.007825032070
           H         -1.169765428527     2.257442319605     1.862843353651     1.007825032070
           H         -4.197505428527     1.889088319605     1.621528353651     1.007825032070
           H         -3.389295428527     3.055088319605     2.653212353651     1.007825032070
           H         -3.288967428527     3.208994319605     0.908688353651     1.007825032070
           H          3.402757571473    -2.391118680395    -1.746920646349     1.007825032070
           H          4.213607571473    -1.081769680395    -0.874761646349     1.007825032070
           H          3.404153571473    -2.388710680395     0.002083353651     1.007825032070

  Charge       = 0
  Multiplicity = 1
  Basis Set: 6-31G*
  Basis Set:

    Orbital Energies (a.u.)
    -----------------------

    Doubly Occupied:

       1A    -20.551981     2A    -11.328078     3A    -11.232388
       4A    -11.229424     5A    -11.216991     6A    -11.209472
       7A    -11.206961     8A    -11.204874     9A    -11.203907
      10A     -1.398398    11A     -1.089004    12A     -1.053682
      13A     -1.013492    14A     -0.965500    15A     -0.887029
      16A     -0.813911    17A     -0.785053    18A     -0.728751
      19A     -0.669466    20A     -0.636716    21A     -0.631654
      22A     -0.621901    23A     -0.589344    24A     -0.584219
      25A     -0.571773    26A     -0.554297    27A     -0.532284
      28A     -0.524275    29A     -0.513779    30A     -0.501642
      31A     -0.480810    32A     -0.472758    33A     -0.457961
      34A     -0.455083    35A     -0.437311    36A     -0.399505

  @DF-RHF Final Energy:  -387.13471397122015

   => Energetics <=

    Nuclear Repulsion Energy =            450.4522891678727206
    One-Electron Energy =               -1417.6669544721271450
    Two-Electron Energy =                 580.0799513330325681
    DFT Exchange-Correlation Energy =       0.0000000000000000
    Empirical Dispersion Energy =           0.0000000000000000
    PCM Polarization Energy =               0.0000000000000000
    EFP Energy =                            0.0000000000000000
    Total Energy =                       -387.1347139712217995

  Mulliken Charges: (a.u.)
   Center  Symbol    Alpha    Beta     Spin     Total
       1     O     4.26142  4.26142  0.00000 -0.52284
       2     C     2.73646  2.73646  0.00000  0.52708
       3     C     3.21189  3.21189  0.00000 -0.42378
       4     C     3.28655  3.28655  0.00000 -0.57310
       5     C     3.14972  3.14972  0.00000 -0.29944
       6     H     0.40723  0.40723  0.00000  0.18554
       7     H     0.40951  0.40951  0.00000  0.18097
       8     C     3.16031  3.16031  0.00000 -0.32062
       9     H     0.42039  0.42039  0.00000  0.15921
      10     H     0.41203  0.41203  0.00000  0.17593
      11     C     3.15077  3.15077  0.00000 -0.30154
      12     H     0.43006  0.43006  0.00000  0.13987
      13     H     0.40001  0.40001  0.00000  0.19998
      14     C     3.15151  3.15151  0.00000 -0.30301
      15     H     0.42740  0.42740  0.00000  0.14520
      16     H     0.42208  0.42208  0.00000  0.15585
      17     C     3.23914  3.23914  0.00000 -0.47828
      18     H     0.42480  0.42480  0.00000  0.15039
      19     H     0.42098  0.42098  0.00000  0.15805
      20     H     0.42295  0.42295  0.00000  0.15409
      21     H     0.42018  0.42018  0.00000  0.15963
      22     H     0.42152  0.42152  0.00000  0.15695
      23     H     0.40839  0.40839  0.00000  0.18321
      24     H     0.39643  0.39643  0.00000  0.20714
      25     H     0.40824  0.40824  0.00000  0.18353

   Total alpha = 36.00000, Total beta = 36.00000, Total charge =  0.00000
