                              Psi4 1.0.54 Driver

  ==> Input File <==

--------------------------------------------------------------------------
set {
	reference rhf
	basis cc-pvtz
}

set_num_threads( 4 )
memory 2 gb

molecule MOL {
0 1

H	 -3.436473	 1.252944	 -1.023892
O	 -3.458596	 0.315260	 -0.960865
C	 -3.176635	 -0.080824	 0.355601
C	 -1.763371	 0.265266	 0.799691
H	 -3.321825	 -1.153438	 0.379502
H	 -3.895468	 0.357385	 1.043382
C	 -0.673128	 -0.380952	 -0.050071
H	 -1.644661	 1.347695	 0.788711
H	 -1.651047	 -0.041203	 1.836922
C	 0.737579	 0.003051	 0.388583
H	 -0.819013	 -0.105323	 -1.088656
H	 -0.783035	 -1.461820	 -0.003680
C	 1.824082	 -0.651008	 -0.462749
H	 0.836475	 1.083613	 0.349914
H	 0.881602	 -0.279420	 1.429412
C	 3.256801	 -0.360917	 -0.012183
H	 1.704742	 -0.338972	 -1.497757
H	 1.671704	 -1.726786	 -0.452590
C	 3.688374	 1.096576	 -0.155725
H	 3.931441	 -0.981473	 -0.594031
H	 3.377082	 -0.671792	 1.022375
H	 3.573310	 1.437341	 -1.179794
H	 4.730838	 1.217338	 0.116169
H	 3.108853	 1.755951	 0.479085

	symmetry c1
}
set optking {
	frozen_dihedral = ("
		7 4 3 2
	")
}

ee,wfn = optimize('scf', return_wfn=True)
oeprop( wfn, 'DIPOLE', 'QUADRUPOLE', 'MULLIKEN_CHARGES')
f=open( 'psi4out.xyz', 'w' )
f.write( "24  " )
f.write( str(ee) + "\n" )
f.write( MOL.save_string_xyz() )
f.close()
--------------------------------------------------------------------------

    Molecular point group: c1
  Charge       = 0
  Multiplicity = 1
  Basis Set: CC-PVTZ
  Basis Set:
  @DF-RHF Final Energy:  -349.38040262474573
    Total Energy =                       -349.3804026247454999
    Molecular point group: c1
  Basis Set: CC-PVTZ
  Basis Set:
  Basis Set: CC-PVTZ
  Basis Set:
  @DF-RHF Final Energy:  -349.38040519631903
    Total Energy =                       -349.3804051963190318
  Basis Set: CC-PVTZ
  Basis Set:
  Basis Set: CC-PVTZ
  Basis Set:
  @DF-RHF Final Energy:  -349.38040647582432
    Total Energy =                       -349.3804064758238042
  Basis Set: CC-PVTZ
  Basis Set:
  Charge       = 0
  Multiplicity = 1
  Basis Set: CC-PVTZ
  Basis Set:

    Orbital Energies (a.u.)
    -----------------------

    Doubly Occupied:

       1A    -20.546380     2A    -11.265531     3A    -11.215109
       4A    -11.212057     5A    -11.210128     6A    -11.209356
       7A    -11.208827     8A    -11.205282     9A     -1.364212
      10A     -1.089769    11A     -1.049333    12A     -0.986725
      13A     -0.916115    14A     -0.851223    15A     -0.801177
      16A     -0.776568    17A     -0.681912    18A     -0.654784
      19A     -0.626490    20A     -0.621115    21A     -0.598062
      22A     -0.585937    23A     -0.558354    24A     -0.542194
      25A     -0.515768    26A     -0.509228    27A     -0.500381
      28A     -0.472673    29A     -0.468183    30A     -0.461083
      31A     -0.456194    32A     -0.451113    33A     -0.421484

  @DF-RHF Final Energy:  -349.38040646665121

   => Energetics <=

    Nuclear Repulsion Energy =            384.9919219492675779
    One-Electron Energy =               -1236.6791586955687308
    Two-Electron Energy =                 502.3068302796503986
    DFT Exchange-Correlation Energy =       0.0000000000000000
    Empirical Dispersion Energy =           0.0000000000000000
    PCM Polarization Energy =               0.0000000000000000
    EFP Energy =                            0.0000000000000000
    Total Energy =                       -349.3804064666506974
    Molecular point group: c1
  Basis Set: CC-PVTZ
  Basis Set:

  -Total Gradient:
     Atom            X                  Y                   Z
    ------   -----------------  -----------------  -----------------
       1       -0.000001325048    -0.000002231064    -0.000003882026
       2        0.000172146510    -0.000453869571    -0.000167629220
       3       -0.000230629344     0.000777046334     0.000132597685
       4        0.000062219318    -0.000718514539     0.000361768644
       5        0.000000237642    -0.000004925737     0.000001586723
       6        0.000007252224     0.000003862584    -0.000010168663
       7       -0.000007988182     0.000394491631    -0.000311097905
       8        0.000009314565     0.000001583375    -0.000003111089
       9       -0.000010531295     0.000006038026    -0.000006841362
      10       -0.000000896563     0.000009621993     0.000000576802
      11       -0.000000954133    -0.000001536855     0.000009520830
      12        0.000003119964    -0.000002564211    -0.000007367471
      13       -0.000001565292    -0.000016982927     0.000012125843
      14        0.000008792421     0.000014121285     0.000002655992
      15        0.000000855067     0.000001576174    -0.000006261067
      16        0.000006559060    -0.000005182310    -0.000013986843
      17        0.000001725788    -0.000003639620     0.000002371093
      18       -0.000003760992    -0.000002958204     0.000002358479
      19       -0.000007702851    -0.000000292387     0.000003859082
      20        0.000001662444     0.000003782087    -0.000003203047
      21        0.000002458453    -0.000003801096    -0.000003821563
      22        0.000002754444    -0.000003551110     0.000002317437
      23       -0.000001254183     0.000001800602     0.000004155816
      24       -0.000012490018     0.000006125539     0.000001475827

  **** Optimization is complete! (in 4 steps) ****
    Final optimized geometry and variables:
    Molecular point group: c1

    Geometry (in Angstrom), charge = 0, multiplicity = 1:

    H           -3.450249056150     1.195504818516    -0.997159059227
    O           -3.464477447961     0.258057315457    -0.928183399443
    C           -3.173513467320    -0.128159373459     0.389056237237
    C           -1.759171698148     0.225018269385     0.824423582351
    H           -3.313366798869    -1.201422415312     0.418614113933
    H           -3.890561163431     0.309591191016     1.078916428648
    C           -0.669795521753    -0.422488872138    -0.025436712761
    H           -1.642683268056     1.307675480986     0.804299000609
    H           -1.642795305812    -0.072548295202     1.863730099851
    C            0.741165294880    -0.042166953936     0.415823544159
    H           -0.813868439995    -0.144966502408    -1.063564114942
    H           -0.781825159170    -1.503299427232     0.018409770128
    C            1.827490431232    -0.696498560257    -0.435595072675
    H            0.842239307966     1.038300881384     0.379632969535
    H            0.883480689700    -0.327075604473     1.456208900163
    C            3.260291535156    -0.409106438255     0.016546700317
    H            1.709446077739    -0.382788083249    -1.470257779916
    H            1.673542884640    -1.772061235286    -0.427224439340
    C            3.692966627038     1.048635710059    -0.121261504212
    H            3.934734970362    -1.027890388898    -0.567416534776
    H            3.380039677383    -0.724054679974     1.049937463740
    H            3.577682613806     1.393679750076    -1.143873729385
    H            4.735653976467     1.167519227493     0.150603055136
    H            3.114280539388     1.705897014194     0.516499662730

  Mulliken Charges: (a.u.)
   Center  Symbol    Alpha    Beta     Spin     Total
       1     H     0.39526  0.39526  0.00000  0.20947
       2     O     4.20356  4.20356  0.00000 -0.40712
       3     C     2.97827  2.97827  0.00000  0.04345
       4     C     3.10308  3.10308  0.00000 -0.20615
       5     H     0.45863  0.45863  0.00000  0.08273
       6     H     0.46013  0.46013  0.00000  0.07974
       7     C     3.08586  3.08586  0.00000 -0.17172
       8     H     0.45895  0.45895  0.00000  0.08211
       9     H     0.45322  0.45322  0.00000  0.09355
      10     C     3.09158  3.09158  0.00000 -0.18316
      11     H     0.44664  0.44664  0.00000  0.10673
      12     H     0.45510  0.45510  0.00000  0.08979
      13     C     3.09454  3.09454  0.00000 -0.18908
      14     H     0.45349  0.45349  0.00000  0.09302
      15     H     0.45617  0.45617  0.00000  0.08767
      16     C     3.09014  3.09014  0.00000 -0.18028
      17     H     0.45364  0.45364  0.00000  0.09272
      18     H     0.44966  0.44966  0.00000  0.10068
      19     C     3.15256  3.15256  0.00000 -0.30512
      20     H     0.44859  0.44859  0.00000  0.10281
      21     H     0.45521  0.45521  0.00000  0.08959
      22     H     0.45488  0.45488  0.00000  0.09024
      23     H     0.44661  0.44661  0.00000  0.10679
      24     H     0.45423  0.45423  0.00000  0.09154

   Total alpha = 33.00000, Total beta = 33.00000, Total charge =  0.00000

*** Psi4 exiting successfully. Buy a developer a beer!
