  ==> Input File <==

--------------------------------------------------------------------------
set {
	reference rhf
	basis 6-31G*
}

set_num_threads( 1 )
memory 2 gb

molecule MOL {
0 1

H	 2.591676	 2.013956	 0.335017
O	 3.341076	 1.666752	 -0.126416
C	 3.569581	 0.339145	 0.272707
C	 4.082375	 0.221459	 1.703763
H	 2.614918	 -0.163283	 0.184059
H	 4.258187	 -0.152012	 -0.413855
C	 5.454900	 0.860936	 1.927618
H	 3.354299	 0.677512	 2.369561
H	 4.129466	 -0.835363	 1.961206
C	 5.965669	 0.678743	 3.359658
H	 5.397328	 1.920625	 1.695004
H	 6.174472	 0.426079	 1.233747
C	 7.374531	 1.226510	 3.615390
H	 5.266888	 1.146076	 4.051144
H	 5.961036	 -0.383189	 3.596259
C	 7.502235	 2.748986	 3.514222
H	 7.685531	 0.917997	 4.611340
H	 8.073036	 0.759097	 2.922964
C	 8.898904	 3.255674	 3.880308
H	 6.768617	 3.215176	 4.170410
H	 7.262314	 3.078544	 2.506188
C	 9.030921	 4.774531	 3.773960
H	 9.141075	 2.942826	 4.893702
H	 9.634278	 2.783550	 3.232073
H	 8.330233	 5.276233	 4.435440
H	 10.030666	 5.102562	 4.041430
H	 8.830803	 5.116003	 2.762172

	symmetry c1
}
set optking {
	frozen_dihedral = ("
		14 10 7 4,
		14 10 13 16,
		10 7 4 8,
		8 4 3 2,
		10 13 16 20,
		20 16 19 22
	")
}

ee = energy('scf')
oeprop('DIPOLE', 'QUADRUPOLE', 'MULLIKEN_CHARGES')
f=open( 'psi4out.xyz', 'w' )
f.write( "27  " )
f.write( str(ee) + "\n" )
f.write( MOL.save_string_xyz() )
f.close()
--------------------------------------------------------------------------

    Molecular point group: c1

    Geometry (in Angstrom), charge = 0, multiplicity = 1:

       Center              X                  Y                   Z               Mass
    ------------   -----------------  -----------------  -----------------  -----------------
           H         -3.497336256571     0.246274606931    -2.058771986239     1.007825032070
           O         -2.747936256571    -0.100929393069    -2.520204986239    15.994914619560
           C         -2.519431256571    -1.428536393069    -2.121081986239    12.000000000000
           C         -2.006637256571    -1.546222393069    -0.690025986239    12.000000000000
           H         -3.474094256571    -1.930964393069    -2.209729986239     1.007825032070
           H         -1.830825256571    -1.919693393069    -2.807643986239     1.007825032070
           C         -0.634112256571    -0.906745393069    -0.466170986239    12.000000000000
           H         -2.734713256571    -1.090169393069    -0.024227986239     1.007825032070
           H         -1.959546256571    -2.603044393069    -0.432582986239     1.007825032070
           C         -0.123343256571    -1.088938393069     0.965869013761    12.000000000000
           H         -0.691684256571     0.152943606931    -0.698784986239     1.007825032070
           H          0.085459743429    -1.341602393069    -1.160041986239     1.007825032070
           C          1.285518743429    -0.541171393069     1.221601013761    12.000000000000
           H         -0.822124256571    -0.621605393069     1.657355013761     1.007825032070
           H         -0.127976256571    -2.150870393069     1.202470013761     1.007825032070
           C          1.413222743429     0.981304606931     1.120433013761    12.000000000000
           H          1.596518743429    -0.849684393069     2.217551013761     1.007825032070
           H          1.984023743429    -1.008584393069     0.529175013761     1.007825032070
           C          2.809891743429     1.487992606931     1.486519013761    12.000000000000
           H          0.679604743429     1.447494606931     1.776621013761     1.007825032070
           H          1.173301743429     1.310862606931     0.112399013761     1.007825032070
           C          2.941908743429     3.006849606931     1.380171013761    12.000000000000
           H          3.052062743429     1.175144606931     2.499913013761     1.007825032070
           H          3.545265743429     1.015868606931     0.838284013761     1.007825032070
           H          2.241220743429     3.508551606931     2.041651013761     1.007825032070
           H          3.941653743429     3.334880606931     1.647641013761     1.007825032070
           H          2.741790743429     3.348321606931     0.368383013761     1.007825032070

  Charge       = 0
  Multiplicity = 1
  Basis Set: 6-31G*
  Basis Set:

    Orbital Energies (a.u.)
    -----------------------

    Doubly Occupied:

       1A    -20.551645     2A    -11.268285     3A    -11.216468
       4A    -11.212405     5A    -11.212390     6A    -11.211414
       7A    -11.210716     8A    -11.209766     9A    -11.206097
      10A     -1.359422    11A     -1.090629    12A     -1.058102
      13A     -1.009098    14A     -0.944617    15A     -0.882962
      16A     -0.819290    17A     -0.799861    18A     -0.773992
      19A     -0.681621    20A     -0.651386    21A     -0.640806
      22A     -0.611047    23A     -0.604810    24A     -0.584679
      25A     -0.570366    26A     -0.555966    27A     -0.536021
      28A     -0.519158    29A     -0.510637    30A     -0.489623
      31A     -0.477579    32A     -0.470776    33A     -0.463632
      34A     -0.456453    35A     -0.452544    36A     -0.438989
      37A     -0.418287

  @DF-RHF Final Energy:  -388.28030184351377

   => Energetics <=

    Nuclear Repulsion Energy =            459.0089337094433972
    One-Electron Energy =               -1436.2353649358260554
    Two-Electron Energy =                 588.9461293828660473
    DFT Exchange-Correlation Energy =       0.0000000000000000
    Empirical Dispersion Energy =           0.0000000000000000
    PCM Polarization Energy =               0.0000000000000000
    EFP Energy =                            0.0000000000000000
    Total Energy =                       -388.2803018435165541

  Mulliken Charges: (a.u.)
   Center  Symbol    Alpha    Beta     Spin     Total
       1     H     0.28187  0.28187  0.00000  0.43625
       2     O     4.36991  4.36991  0.00000 -0.73981
       3     C     2.99697  2.99697  0.00000  0.00605
       4     C     3.16490  3.16490  0.00000 -0.32980
       5     H     0.42911  0.42911  0.00000  0.14177
       6     H     0.41634  0.41634  0.00000  0.16732
       7     C     3.15450  3.15450  0.00000 -0.30900
       8     H     0.42761  0.42761  0.00000  0.14477
       9     H     0.42351  0.42351  0.00000  0.15298
      10     C     3.15292  3.15292  0.00000 -0.30584
      11     H     0.41038  0.41038  0.00000  0.17923
      12     H     0.42455  0.42455  0.00000  0.15089
      13     C     3.15278  3.15278  0.00000 -0.30556
      14     H     0.42506  0.42506  0.00000  0.14989
      15     H     0.42379  0.42379  0.00000  0.15242
      16     C     3.15316  3.15316  0.00000 -0.30633
      17     H     0.42260  0.42260  0.00000  0.15481
      18     H     0.42390  0.42390  0.00000  0.15220
      19     C     3.15106  3.15106  0.00000 -0.30213
      20     H     0.42537  0.42537  0.00000  0.14926
      21     H     0.42013  0.42013  0.00000  0.15973
      22     C     3.23916  3.23916  0.00000 -0.47833
      23     H     0.42380  0.42380  0.00000  0.15240
      24     H     0.42312  0.42312  0.00000  0.15376
      25     H     0.42228  0.42228  0.00000  0.15544
      26     H     0.41988  0.41988  0.00000  0.16025
      27     H     0.42132  0.42132  0.00000  0.15735

   Total alpha = 37.00000, Total beta = 37.00000, Total charge =  0.00000
