                              Psi4 1.0.54 Driver

  ==> Input File <==

--------------------------------------------------------------------------
set {
	reference rhf
	basis cc-pvtz
}

set_num_threads( 4 )
memory 2 gb

molecule MOL {
0 1

H	 0.989499	 2.436664	 -0.653327
O	 1.254750	 1.914064	 0.082189
C	 0.706474	 0.636793	 -0.025501
C	 -0.793473	 0.591216	 0.050087
H	 1.122387	 0.054870	 0.788554
H	 1.026747	 0.153692	 -0.946770
C	 -1.534243	 -0.493009	 -0.013340
H	 -1.266611	 1.552628	 0.164437
H	 -1.101195	 -1.466332	 -0.144046
H	 -2.604242	 -0.437780	 0.050785

	symmetry c1
}
set optking {
	frozen_dihedral = ("
		5 3 4 7
	")
}

ee,wfn = optimize('scf', return_wfn=True)
oeprop( wfn, 'DIPOLE', 'QUADRUPOLE', 'MULLIKEN_CHARGES')
f=open( 'psi4out.xyz', 'w' )
f.write( "10  " )
f.write( str(ee) + "\n" )
f.write( MOL.save_string_xyz() )
f.close()
--------------------------------------------------------------------------

    Molecular point group: c1
  Charge       = 0
  Multiplicity = 1
  Basis Set: CC-PVTZ
  Basis Set:
  @DF-RHF Final Energy:  -191.99437473059308
    Total Energy =                       -191.9943747305931083
    Molecular point group: c1
  Basis Set: CC-PVTZ
  Basis Set:
  Basis Set: CC-PVTZ
  Basis Set:
  @DF-RHF Final Energy:  -191.99472857913997
    Total Energy =                       -191.9947285791399452
  Basis Set: CC-PVTZ
  Basis Set:
  Basis Set: CC-PVTZ
  Basis Set:
  @DF-RHF Final Energy:  -191.99477094087990
    Total Energy =                       -191.9947709408798460
  Basis Set: CC-PVTZ
  Basis Set:
  Basis Set: CC-PVTZ
  Basis Set:
  @DF-RHF Final Energy:  -191.99477679031435
    Total Energy =                       -191.9947767903143756
  Basis Set: CC-PVTZ
  Basis Set:
  Charge       = 0
  Multiplicity = 1
  Basis Set: CC-PVTZ
  Basis Set:

    Orbital Energies (a.u.)
    -----------------------

    Doubly Occupied:

       1A    -20.554163     2A    -11.277096     3A    -11.230268
       4A    -11.218384     5A     -1.373416     6A     -1.064869
       7A     -0.923201     8A     -0.778575     9A     -0.704686
      10A     -0.638441    11A     -0.626255    12A     -0.588192
      13A     -0.528296    14A     -0.506342    15A     -0.450128
      16A     -0.367699

  @DF-RHF Final Energy:  -191.99477726604033

   => Energetics <=

    Nuclear Repulsion Energy =            117.0717082217079650
    One-Electron Energy =                -492.4729483011993807
    Two-Electron Energy =                 183.4064628134510713
    DFT Exchange-Correlation Energy =       0.0000000000000000
    Empirical Dispersion Energy =           0.0000000000000000
    PCM Polarization Energy =               0.0000000000000000
    EFP Energy =                            0.0000000000000000
    Total Energy =                       -191.9947772660403302
    Molecular point group: c1
  Basis Set: CC-PVTZ
  Basis Set:

  -Total Gradient:
     Atom            X                  Y                   Z
    ------   -----------------  -----------------  -----------------
       1       -0.000014156455    -0.000007506953    -0.000000596146
       2        0.000026004887     0.000033084353     0.000001495767
       3        0.000058788349     0.001028235767     0.001318965231
       4       -0.000115025754    -0.000105616128    -0.001757831255
       5       -0.000042788658    -0.000922655267    -0.000630171167
       6       -0.000014946952     0.000032639447     0.000001819940
       7        0.000121614777    -0.000045307027     0.001076842758
       8        0.000002593619     0.000001489092    -0.000003366311
       9       -0.000016657866     0.000001008183    -0.000002995173
      10       -0.000005425947    -0.000015371464    -0.000004163643

  **** Optimization is complete! (in 5 steps) ****
    Final optimized geometry and variables:
    Molecular point group: c1

    Geometry (in Angstrom), charge = 0, multiplicity = 1:

    H            1.078291456763     1.680454566056    -0.709886221161
    O            1.273521295025     1.184346291873     0.064239180402
    C            0.735827200897    -0.103013602070    -0.042313733685
    C           -0.773715753671    -0.112983650032     0.034730919070
    H            1.150835158682    -0.675755682691     0.775417608650
    H            1.063288415307    -0.580014343828    -0.961787937091
    C           -1.522581254520    -1.191969705258    -0.011134256806
    H           -1.233223807419     0.852472874870     0.160236542590
    H           -1.099026676125    -2.174956904164    -0.123034176848
    H           -2.591625009360    -1.134214267615     0.062392736526

  Mulliken Charges: (a.u.)
   Center  Symbol    Alpha    Beta     Spin     Total
       1     H     0.39248  0.39248  0.00000  0.21504
       2     O     4.20307  4.20307  0.00000 -0.40614
       3     C     2.95061  2.95061  0.00000  0.09878
       4     C     3.08481  3.08481  0.00000 -0.16961
       5     H     0.44926  0.44926  0.00000  0.10149
       6     H     0.46527  0.46527  0.00000  0.06946
       7     C     3.17503  3.17503  0.00000 -0.35006
       8     H     0.41895  0.41895  0.00000  0.16211
       9     H     0.43300  0.43300  0.00000  0.13399
      10     H     0.42752  0.42752  0.00000  0.14496

   Total alpha = 16.00000, Total beta = 16.00000, Total charge =  0.00000

*** Psi4 exiting successfully. Buy a developer a beer!
