                              Psi4 1.0.54 Driver

  ==> Input File <==

--------------------------------------------------------------------------
set {
	reference rhf
	basis cc-pvtz
}

set_num_threads( 4 )
memory 2 gb

molecule MOL {
0 1

H	 -3.424675	 0.737685	 1.804002
O	 -2.724903	 0.175402	 1.527682
C	 -2.302264	 0.528872	 0.237390
C	 -1.175688	 -0.398187	 -0.171891
H	 -3.125616	 0.445826	 -0.468987
H	 -1.957899	 1.560813	 0.218951
C	 0.196029	 0.106276	 0.266738
H	 -1.201873	 -0.515469	 -1.250677
H	 -1.365975	 -1.378728	 0.252664
C	 1.330220	 -0.826136	 -0.155230
H	 0.359542	 1.097229	 -0.145561
H	 0.212134	 0.218135	 1.348778
C	 2.719700	 -0.407669	 0.328325
H	 1.339388	 -0.911200	 -1.239363
H	 1.119001	 -1.821953	 0.224128
C	 3.241564	 0.893452	 -0.276737
H	 3.418299	 -1.204729	 0.093035
H	 2.711776	 -0.323368	 1.411960
H	 3.254204	 0.841071	 -1.360784
H	 2.634460	 1.745075	 0.005842
H	 4.254264	 1.092401	 0.054971

	symmetry c1
}
set optking {
	frozen_dihedral = ("
		2 3 4 8
	")
}

ee,wfn = optimize('scf', return_wfn=True)
oeprop( wfn, 'DIPOLE', 'QUADRUPOLE', 'MULLIKEN_CHARGES')
f=open( 'psi4out.xyz', 'w' )
f.write( "21  " )
f.write( str(ee) + "\n" )
f.write( MOL.save_string_xyz() )
f.close()
--------------------------------------------------------------------------

    Molecular point group: c1
  Charge       = 0
  Multiplicity = 1
  Basis Set: CC-PVTZ
  Basis Set:
  @DF-RHF Final Energy:  -310.33056540369773
    Total Energy =                       -310.3305654036978467
    Molecular point group: c1
  Basis Set: CC-PVTZ
  Basis Set:
  Basis Set: CC-PVTZ
  Basis Set:
  @DF-RHF Final Energy:  -310.33089165047761
    Total Energy =                       -310.3308916504777244
  Basis Set: CC-PVTZ
  Basis Set:
  Basis Set: CC-PVTZ
  Basis Set:
  @DF-RHF Final Energy:  -310.33100705439125
    Total Energy =                       -310.3310070543914776
  Basis Set: CC-PVTZ
  Basis Set:
  Basis Set: CC-PVTZ
  Basis Set:
  @DF-RHF Final Energy:  -310.33101061078037
    Total Energy =                       -310.3310106107800266
  Basis Set: CC-PVTZ
  Basis Set:
  Basis Set: CC-PVTZ
  Basis Set:
  @DF-RHF Final Energy:  -310.33101171815343
    Total Energy =                       -310.3310117181533769
  Basis Set: CC-PVTZ
  Basis Set:
  Charge       = 0
  Multiplicity = 1
  Basis Set: CC-PVTZ
  Basis Set:

    Orbital Energies (a.u.)
    -----------------------

    Doubly Occupied:

       1A    -20.545730     2A    -11.265467     3A    -11.210516
       4A    -11.209430     5A    -11.208339     6A    -11.207381
       7A    -11.204079     8A     -1.362984     9A     -1.083770
      10A     -1.031699    11A     -0.954709    12A     -0.876618
      13A     -0.804824    14A     -0.775682    15A     -0.707592
      16A     -0.638983    17A     -0.631218    18A     -0.603071
      19A     -0.585685    20A     -0.570731    21A     -0.535138
      22A     -0.525157    23A     -0.507492    24A     -0.486016
      25A     -0.481293    26A     -0.459856    27A     -0.454550
      28A     -0.448224    29A     -0.426243

  @DF-RHF Final Energy:  -310.33101452466377

   => Energetics <=

    Nuclear Repulsion Energy =            315.6977287408412280
    One-Electron Energy =               -1046.4525275115493059
    Two-Electron Energy =                 420.4237842460445336
    DFT Exchange-Correlation Energy =       0.0000000000000000
    Empirical Dispersion Energy =           0.0000000000000000
    PCM Polarization Energy =               0.0000000000000000
    EFP Energy =                            0.0000000000000000
    Total Energy =                       -310.3310145246634875
    Molecular point group: c1
  Basis Set: CC-PVTZ
  Basis Set:

  -Total Gradient:
     Atom            X                  Y                   Z
    ------   -----------------  -----------------  -----------------
       1       -0.000019349344     0.000004965670     0.000021656672
       2       -0.002184483219    -0.002235163047    -0.001293151829
       3        0.002275260983     0.002056202617     0.001743849460
       4        0.002470989277     0.003820532735    -0.000932008372
       5        0.000007609314    -0.000006030957    -0.000003485242
       6       -0.000003280944    -0.000004893748     0.000010504159
       7       -0.000021816422    -0.000009812343    -0.000010899769
       8       -0.002523310897    -0.003582943502     0.000460763371
       9        0.000000056229    -0.000041825309     0.000002824919
      10       -0.000014703823     0.000001865374    -0.000000770611
      11       -0.000005900053    -0.000002310422     0.000002213264
      12        0.000001288648     0.000004128297    -0.000010484744
      13       -0.000001134714    -0.000010357260     0.000003068693
      14       -0.000001567133    -0.000000103425     0.000007639467
      15        0.000003962690     0.000002791162    -0.000003339040
      16       -0.000001023106     0.000002827205    -0.000009459197
      17        0.000016766961    -0.000009077121    -0.000003634852
      18       -0.000001215568    -0.000002490263     0.000016262656
      19        0.000002662974    -0.000000562496    -0.000005559737
      20       -0.000004531875     0.000011680156     0.000003892639
      21        0.000003720019     0.000000576676     0.000000118096

  **** Optimization is complete! (in 6 steps) ****
    Final optimized geometry and variables:
    Molecular point group: c1

    Geometry (in Angstrom), charge = 0, multiplicity = 1:

    H           -3.479581847073     0.675107070460     1.613003021515
    O           -2.828961214032     0.088939599643     1.273296409162
    C           -2.458890264698     0.477095618440    -0.026084994838
    C           -1.299434174584    -0.395662757888    -0.482310921509
    H           -3.302251228711     0.349214574559    -0.699518658675
    H           -2.177782158228     1.527344621557    -0.048790539387
    C            0.070049485489     0.105026714157    -0.035297112357
    H           -1.339889421975    -0.508928228540    -1.561827158159
    H           -1.474581164792    -1.388433674355    -0.079534447694
    C            1.203208670685    -0.844007070707    -0.418819731377
    H            0.244340591275     1.085959702066    -0.466921735043
    H            0.060202428292     0.237431227529     1.042868948455
    C            2.589188843799    -0.421140788250     0.071269579641
    H            1.226611117153    -0.958731963921    -1.500579471761
    H            0.981294590564    -1.827903295985    -0.015254817900
    C            3.128490208561     0.858271199638    -0.564009302748
    H            3.285767901849    -1.229084673341    -0.130968539074
    H            2.566194278241    -0.305034781728     1.151571995755
    H            3.155492102947     0.774344019037    -1.645900015363
    H            2.523604774469     1.721640046204    -0.314419304282
    H            4.138078985035     1.060007833658    -0.224425291371

  Mulliken Charges: (a.u.)
   Center  Symbol    Alpha    Beta     Spin     Total
       1     H     0.39527  0.39527  0.00000  0.20946
       2     O     4.20001  4.20001  0.00000 -0.40002
       3     C     2.96949  2.96949  0.00000  0.06101
       4     C     3.09089  3.09089  0.00000 -0.18177
       5     H     0.46717  0.46717  0.00000  0.06565
       6     H     0.47565  0.47565  0.00000  0.04870
       7     C     3.09383  3.09383  0.00000 -0.18765
       8     H     0.45205  0.45205  0.00000  0.09590
       9     H     0.45008  0.45008  0.00000  0.09983
      10     C     3.09560  3.09560  0.00000 -0.19120
      11     H     0.45578  0.45578  0.00000  0.08845
      12     H     0.44844  0.44844  0.00000  0.10311
      13     C     3.08983  3.08983  0.00000 -0.17966
      14     H     0.45553  0.45553  0.00000  0.08895
      15     H     0.44827  0.44827  0.00000  0.10346
      16     C     3.15254  3.15254  0.00000 -0.30508
      17     H     0.44902  0.44902  0.00000  0.10196
      18     H     0.45430  0.45430  0.00000  0.09140
      19     H     0.45544  0.45544  0.00000  0.08911
      20     H     0.45412  0.45412  0.00000  0.09176
      21     H     0.44669  0.44669  0.00000  0.10662

   Total alpha = 29.00000, Total beta = 29.00000, Total charge = -0.00000

*** Psi4 exiting successfully. Buy a developer a beer!
