  ==> Input File <==

--------------------------------------------------------------------------
set {
	reference rhf
	basis 6-31G*
}

set_num_threads( 1 )
memory 2 gb

molecule MOL {
0 1

H	 -2.698709	 -0.000305	 0.034435
C	 -1.693833	 0.000034	 0.434417
O	 -0.828952	 -0.000968	 -0.659236
H	 -1.574200	 0.882896	 1.055746
H	 -1.574147	 -0.881698	 1.057355
C	 -1.366208	 -0.216900	 -1.943461
C	 -1.982016	 -1.606499	 -2.094161
C	 -2.325039	 0.892484	 -2.371091
H	 -0.495192	 -0.168556	 -2.586132
H	 -1.293779	 -2.363945	 -1.734779
H	 -2.193626	 -1.807186	 -3.139714
H	 -2.915056	 -1.703983	 -1.548179
H	 -1.874549	 1.864680	 -2.202714
H	 -2.550828	 0.800471	 -3.428928
H	 -3.266262	 0.852571	 -1.832252

	symmetry c1
}
set optking {
	frozen_dihedral = ("
		9 6 3 2
	")
}

ee = energy('scf')
oeprop('DIPOLE', 'QUADRUPOLE', 'MULLIKEN_CHARGES')
f=open( 'psi4out.xyz', 'w' )
f.write( "15  " )
f.write( str(ee) + "\n" )
f.write( MOL.save_string_xyz() )
f.close()
--------------------------------------------------------------------------

    Molecular point group: c1

    Geometry (in Angstrom), charge = 0, multiplicity = 1:

       Center              X                  Y                   Z               Mass
    ------------   -----------------  -----------------  -----------------  -----------------
           H         -1.048172916645     0.185064002726     1.339539655163     1.007825032070
           C         -0.043296916645     0.185403002726     1.739521655163    12.000000000000
           O          0.821584083355     0.184401002726     0.645868655163    15.994914619560
           H          0.076336083355     1.068265002726     2.360850655163     1.007825032070
           H          0.076389083355    -0.696328997274     2.362459655163     1.007825032070
           C          0.284328083355    -0.031530997274    -0.638356344837    12.000000000000
           C         -0.331479916645    -1.421129997274    -0.789056344837    12.000000000000
           C         -0.674502916645     1.077853002726    -1.065986344837    12.000000000000
           H          1.155344083355     0.016813002726    -1.281027344837     1.007825032070
           H          0.356757083355    -2.178575997274    -0.429674344837     1.007825032070
           H         -0.543089916645    -1.621816997274    -1.834609344837     1.007825032070
           H         -1.264519916645    -1.518613997274    -0.243074344837     1.007825032070
           H         -0.224012916645     2.050049002726    -0.897609344837     1.007825032070
           H         -0.900291916645     0.985840002726    -2.123823344837     1.007825032070
           H         -1.615725916645     1.037940002726    -0.527147344837     1.007825032070

  Charge       = 0
  Multiplicity = 1
  Basis Set: 6-31G*
  Basis Set:

    Orbital Energies (a.u.)
    -----------------------

    Doubly Occupied:

       1A    -20.545211     2A    -11.275683     3A    -11.261252
       4A    -11.211183     5A    -11.210878     6A     -1.369464
       7A     -1.050553     8A     -0.940065     9A     -0.931448
      10A     -0.781840    11A     -0.678332    12A     -0.638075
      13A     -0.632443    14A     -0.573739    15A     -0.563664
      16A     -0.549687    17A     -0.538477    18A     -0.502087
      19A     -0.498106    20A     -0.439199    21A     -0.403886

  @DF-RHF Final Energy:  -232.13309345368447

   => Energetics <=

    Nuclear Repulsion Energy =            198.9717337359806493
    One-Electron Energy =                -709.0190206587570856
    Two-Electron Energy =                 277.9141934690916287
    DFT Exchange-Correlation Energy =       0.0000000000000000
    Empirical Dispersion Energy =           0.0000000000000000
    PCM Polarization Energy =               0.0000000000000000
    EFP Energy =                            0.0000000000000000
    Total Energy =                       -232.1330934536848076

  Mulliken Charges: (a.u.)
   Center  Symbol    Alpha    Beta     Spin     Total
       1     H     0.43285  0.43285  0.00000  0.13429
       2     C     3.07515  3.07515  0.00000 -0.15030
       3     O     4.31518  4.31518  0.00000 -0.63035
       4     H     0.41916  0.41916  0.00000  0.16167
       5     H     0.42331  0.42331  0.00000  0.15339
       6     C     2.91196  2.91196  0.00000  0.17609
       7     C     3.25165  3.25165  0.00000 -0.50329
       8     C     3.25229  3.25229  0.00000 -0.50458
       9     H     0.41453  0.41453  0.00000  0.17094
      10     H     0.41114  0.41114  0.00000  0.17772
      11     H     0.41959  0.41959  0.00000  0.16082
      12     H     0.42181  0.42181  0.00000  0.15637
      13     H     0.41100  0.41100  0.00000  0.17800
      14     H     0.41926  0.41926  0.00000  0.16149
      15     H     0.42113  0.42113  0.00000  0.15775

   Total alpha = 21.00000, Total beta = 21.00000, Total charge = -0.00000
