  ==> Input File <==

--------------------------------------------------------------------------
set {
	reference rhf
	basis 6-31G*
}

set_num_threads( 1 )
memory 2 gb

molecule MOL {
0 1

H	 -3.420663	 1.227371	 -1.044276
O	 -3.452007	 0.283848	 -0.965577
C	 -3.181085	 -0.079926	 0.364119
C	 -1.765924	 0.277073	 0.805136
H	 -3.327791	 -1.152017	 0.410903
H	 -3.905698	 0.375695	 1.036898
C	 -0.677594	 -0.417312	 -0.014550
H	 -1.637766	 1.358238	 0.744969
H	 -1.659588	 0.017670	 1.857098
C	 0.659814	 -0.513392	 0.722529
H	 -0.542523	 0.114865	 -0.951168
H	 -1.016774	 -1.417699	 -0.278323
C	 1.742524	 -1.214887	 -0.101928
H	 0.988003	 0.487763	 0.991604
H	 0.519097	 -1.050696	 1.659603
C	 3.075936	 -1.414602	 0.627648
H	 1.916259	 -0.653880	 -1.018871
H	 1.368655	 -2.189180	 -0.409808
C	 3.817294	 -0.119226	 0.963496
H	 3.719260	 -2.032565	 0.005920
H	 2.904645	 -1.979977	 1.541549
H	 3.991534	 0.473436	 0.069331
H	 4.783422	 -0.332789	 1.410514
H	 3.263751	 0.495715	 1.665352

	symmetry c1
}
set optking {
	frozen_dihedral = ("
		20 16 13 17,
		17 13 10 7,
		13 10 7 11,
		1 2 3 5,
		7 4 3 2
	")
}

ee = energy('scf')
oeprop('DIPOLE', 'QUADRUPOLE', 'MULLIKEN_CHARGES')
f=open( 'psi4out.xyz', 'w' )
f.write( "24  " )
f.write( str(ee) + "\n" )
f.write( MOL.save_string_xyz() )
f.close()
--------------------------------------------------------------------------

    Molecular point group: c1

    Geometry (in Angstrom), charge = 0, multiplicity = 1:

       Center              X                  Y                   Z               Mass
    ------------   -----------------  -----------------  -----------------  -----------------
           H         -3.393475690051     1.602449502697    -1.325920208835     1.007825032070
           O         -3.424819690051     0.658926502697    -1.247221208835    15.994914619560
           C         -3.153897690051     0.295152502697     0.082474791165    12.000000000000
           C         -1.738736690051     0.652151502697     0.523491791165    12.000000000000
           H         -3.300603690051    -0.776938497303     0.129258791165     1.007825032070
           H         -3.878510690051     0.750773502697     0.755253791165     1.007825032070
           C         -0.650406690051    -0.042233497303    -0.296194208835    12.000000000000
           H         -1.610578690051     1.733316502697     0.463324791165     1.007825032070
           H         -1.632400690051     0.392748502697     1.575453791165     1.007825032070
           C          0.687001309949    -0.138313497303     0.440884791165    12.000000000000
           H         -0.515335690051     0.489943502697    -1.232812208835     1.007825032070
           H         -0.989586690051    -1.042620497303    -0.559967208835     1.007825032070
           C          1.769711309949    -0.839808497303    -0.383572208835    12.000000000000
           H          1.015190309949     0.862841502697     0.709959791165     1.007825032070
           H          0.546284309949    -0.675617497303     1.377958791165     1.007825032070
           C          3.103123309949    -1.039523497303     0.346003791165    12.000000000000
           H          1.943446309949    -0.278801497303    -1.300515208835     1.007825032070
           H          1.395842309949    -1.814101497303    -0.691452208835     1.007825032070
           C          3.844481309949     0.255852502697     0.681851791165    12.000000000000
           H          3.746447309949    -1.657486497303    -0.275724208835     1.007825032070
           H          2.931832309949    -1.604898497303     1.259904791165     1.007825032070
           H          4.018721309949     0.848514502697    -0.212313208835     1.007825032070
           H          4.810609309949     0.042289502697     1.128869791165     1.007825032070
           H          3.290938309949     0.870793502697     1.383707791165     1.007825032070

  Charge       = 0
  Multiplicity = 1
  Basis Set: 6-31G*
  Basis Set:

    Orbital Energies (a.u.)
    -----------------------

    Doubly Occupied:

       1A    -20.553053     2A    -11.267576     3A    -11.217065
       4A    -11.214143     5A    -11.212719     6A    -11.211687
       7A    -11.211502     8A    -11.207431     9A     -1.359642
      10A     -1.088833    11A     -1.048413    12A     -0.985489
      13A     -0.914953    14A     -0.850953    15A     -0.800674
      16A     -0.776586    17A     -0.678511    18A     -0.652705
      19A     -0.628195    20A     -0.617077    21A     -0.600210
      22A     -0.581738    23A     -0.554983    24A     -0.544784
      25A     -0.516954    26A     -0.502614    27A     -0.501252
      28A     -0.475020    29A     -0.468560    30A     -0.460291
      31A     -0.454744    32A     -0.449319    33A     -0.418522

  @DF-RHF Final Energy:  -349.24590719246504

   => Energetics <=

    Nuclear Repulsion Energy =            384.0582740092352765
    One-Electron Energy =               -1234.5558062139311915
    Two-Electron Energy =                 501.2516250122309884
    DFT Exchange-Correlation Energy =       0.0000000000000000
    Empirical Dispersion Energy =           0.0000000000000000
    PCM Polarization Energy =               0.0000000000000000
    EFP Energy =                            0.0000000000000000
    Total Energy =                       -349.2459071924649834

  Mulliken Charges: (a.u.)
   Center  Symbol    Alpha    Beta     Spin     Total
       1     H     0.28344  0.28344  0.00000  0.43312
       2     O     4.36866  4.36866  0.00000 -0.73731
       3     C     2.99710  2.99710  0.00000  0.00581
       4     C     3.16979  3.16979  0.00000 -0.33958
       5     H     0.41619  0.41619  0.00000  0.16762
       6     H     0.42871  0.42871  0.00000  0.14258
       7     C     3.14777  3.14777  0.00000 -0.29554
       8     H     0.42698  0.42698  0.00000  0.14604
       9     H     0.42195  0.42195  0.00000  0.15611
      10     C     3.15509  3.15509  0.00000 -0.31018
      11     H     0.41720  0.41720  0.00000  0.16559
      12     H     0.42078  0.42078  0.00000  0.15844
      13     C     3.15243  3.15243  0.00000 -0.30487
      14     H     0.42265  0.42265  0.00000  0.15469
      15     H     0.42510  0.42510  0.00000  0.14980
      16     C     3.15233  3.15233  0.00000 -0.30465
      17     H     0.42397  0.42397  0.00000  0.15206
      18     H     0.42167  0.42167  0.00000  0.15667
      19     C     3.24102  3.24102  0.00000 -0.48203
      20     H     0.42102  0.42102  0.00000  0.15796
      21     H     0.42376  0.42376  0.00000  0.15248
      22     H     0.42239  0.42239  0.00000  0.15521
      23     H     0.41952  0.41952  0.00000  0.16096
      24     H     0.42050  0.42050  0.00000  0.15901

   Total alpha = 33.00000, Total beta = 33.00000, Total charge =  0.00000
