  ==> Input File <==

--------------------------------------------------------------------------
set {
	reference rhf
	basis cc-pvtz
}

set_num_threads( 4 )
memory 2 gb

molecule MOL {
0 1

H	 2.565151	 1.190250	 1.428709
N	 1.697314	 0.699008	 1.395097
C	 1.263552	 0.494993	 0.021953
H	 1.030948	 1.243197	 1.902198
C	 -0.016533	 -0.325589	 -0.026925
H	 2.051134	 -0.039820	 -0.498319
H	 1.110858	 1.430302	 -0.518294
C	 -1.280353	 0.525521	 0.047747
H	 -0.016686	 -0.912532	 -0.939714
H	 -0.014099	 -1.037598	 0.796369
C	 -2.560681	 -0.301323	 -0.007747
H	 -1.279957	 1.241025	 -0.770189
H	 -1.270445	 1.110526	 0.963468
H	 -2.617064	 -0.872870	 -0.928010
H	 -3.439525	 0.331102	 0.043462
H	 -2.609427	 -1.002736	 0.818585

	symmetry c1
}
set optking {
	frozen_dihedral = ("
		6 3 5 9
	")
}

ee = optimize('scf')
oeprop('DIPOLE', 'QUADRUPOLE', 'MULLIKEN_CHARGES')
f=open( 'psi4out.xyz', 'w' )
f.write( "16  " )
f.write( str(ee) + "\n" )
f.write( MOL.save_string_xyz() )
f.close()
--------------------------------------------------------------------------

    Molecular point group: c1
  Charge       = 0
  Multiplicity = 1
  Basis Set: CC-PVTZ
  Basis Set:
  @DF-RHF Final Energy:  -212.39704514284051
    Total Energy =                       -212.3970451428405681
    Molecular point group: c1
  Basis Set: CC-PVTZ
  Basis Set:
  Basis Set: CC-PVTZ
  Basis Set:
  @DF-RHF Final Energy:  -212.39733493168762
    Total Energy =                       -212.3973349316874533
  Basis Set: CC-PVTZ
  Basis Set:
  Basis Set: CC-PVTZ
  Basis Set:
  @DF-RHF Final Energy:  -212.39740980141937
    Total Energy =                       -212.3974098014193714
  Basis Set: CC-PVTZ
  Basis Set:
  Charge       = 0
  Multiplicity = 1
  Basis Set: CC-PVTZ
  Basis Set:

    Orbital Energies (a.u.)
    -----------------------

    Doubly Occupied:

       1A    -15.526909     2A    -11.238186     3A    -11.214298
       4A    -11.207602     5A    -11.206398     6A     -1.178212
       7A     -1.059450     8A     -0.960802     9A     -0.850190
      10A     -0.786421    11A     -0.667389    12A     -0.639618
      13A     -0.601360    14A     -0.585277    15A     -0.554253
      16A     -0.524780    17A     -0.514333    18A     -0.472760
      19A     -0.465913    20A     -0.454560    21A     -0.383318

  @DF-RHF Final Energy:  -212.39741062655372

   => Energetics <=

    Nuclear Repulsion Energy =            188.2897683708532668
    One-Electron Energy =                -659.1903020442981642
    Two-Electron Energy =                 258.5031230468911190
    DFT Exchange-Correlation Energy =       0.0000000000000000
    Empirical Dispersion Energy =           0.0000000000000000
    PCM Polarization Energy =               0.0000000000000000
    EFP Energy =                            0.0000000000000000
    Total Energy =                       -212.3974106265537785
    Molecular point group: c1
  Basis Set: CC-PVTZ
  Basis Set:

  -Total Gradient:
     Atom            X                  Y                   Z
    ------   -----------------  -----------------  -----------------
       1        0.000032580556     0.000020661075     0.000010342940
       2        0.000022487678    -0.000011623554     0.000049445572
       3        0.001461298122    -0.002914119016     0.004453918809
       4       -0.000010752758     0.000002816095    -0.000010459460
       5       -0.002271091873     0.004015295860    -0.003039222586
       6       -0.000906729053     0.001803794567    -0.003283059690
       7        0.000002200193     0.000002989007     0.000008875155
       8       -0.000035136706     0.000022632390    -0.000062253920
       9        0.001666997379    -0.002916669513     0.001845110778
      10        0.000000818397    -0.000001037993     0.000000126404
      11        0.000022206183    -0.000003327917     0.000042158248
      12        0.000020029747    -0.000002513773    -0.000006616705
      13        0.000007510251    -0.000018295255    -0.000009290344
      14        0.000004298172     0.000012892483     0.000001723813
      15       -0.000006840037     0.000002807850     0.000009940181
      16       -0.000009876247    -0.000016302304    -0.000010739196

  **** Optimization is complete! (in 4 steps) ****
    Final optimized geometry and variables:
    Molecular point group: c1

    Geometry (in Angstrom), charge = 0, multiplicity = 1:

    H            2.722252762768     0.961055191567     1.141716254202
    N            1.855094715783     0.468157625666     1.105286406329
    C            1.442823557960     0.247036341983    -0.272927257103
    H            1.185542187257     1.024104951306     1.594688255119
    C            0.142847816086    -0.552442626373    -0.357210187541
    H            2.230723135370    -0.292564049415    -0.784482508785
    H            1.319160123818     1.179172905046    -0.827786894264
    C           -1.124533248575     0.293429109697    -0.267966766437
    H            0.137705905093    -1.132099046125    -1.275713828220
    H            0.150086382594    -1.281368775262     0.447641838915
    C           -2.400554114960    -0.540786484959    -0.301268833738
    H           -1.138153401112     1.006676247201    -1.087418053095
    H           -1.109356396147     0.881220714106     0.646382275608
    H           -2.465643884376    -1.116543505028    -1.218591327146
    H           -3.282736291416     0.086285792171    -0.241145833370
    H           -2.432622352619    -1.239024259305     0.528202717166

  Mulliken Charges: (a.u.)
   Center  Symbol    Alpha    Beta     Spin     Total
       1     H     0.42959  0.42959  0.00000  0.14083
       2     N     3.68703  3.68703  0.00000 -0.37407
       3     C     3.03419  3.03419  0.00000 -0.06837
       4     H     0.43108  0.43108  0.00000  0.13784
       5     C     3.09309  3.09309  0.00000 -0.18619
       6     H     0.45204  0.45204  0.00000  0.09593
       7     H     0.46865  0.46865  0.00000  0.06270
       8     C     3.08109  3.08109  0.00000 -0.16219
       9     H     0.45191  0.45191  0.00000  0.09619
      10     H     0.44994  0.44994  0.00000  0.10012
      11     C     3.14988  3.14988  0.00000 -0.29977
      12     H     0.45491  0.45491  0.00000  0.09017
      13     H     0.45916  0.45916  0.00000  0.08169
      14     H     0.45483  0.45483  0.00000  0.09034
      15     H     0.44902  0.44902  0.00000  0.10196
      16     H     0.45359  0.45359  0.00000  0.09282

   Total alpha = 21.00000, Total beta = 21.00000, Total charge = -0.00000
