  ==> Input File <==

--------------------------------------------------------------------------
set {
	reference rhf
	basis 6-31G*
}

set_num_threads( 4 )
memory 2 gb

molecule MOL {
0 1

O	 -2.732327	 1.187458	 0.804343
C	 -2.621219	 0.065165	 0.426548
C	 -3.759428	 -0.921501	 0.379244
O	 -1.481751	 -0.454642	 0.000584
H	 -4.542964	 -0.518815	 -0.251453
H	 -3.443470	 -1.883475	 0.003458
H	 -4.166251	 -1.031447	 1.377386
C	 -0.334255	 0.388708	 0.000906
C	 0.891947	 -0.504646	 0.000751
H	 -0.365390	 1.025305	 -0.873475
H	 -0.365484	 1.024911	 0.875569
C	 2.191998	 0.301789	 0.000897
H	 0.855148	 -1.151283	 -0.871571
H	 0.855132	 -1.151660	 0.872805
C	 3.441114	 -0.581407	 0.000108
H	 2.215074	 0.954890	 -0.869742
H	 2.215465	 0.953923	 0.872248
C	 4.739576	 0.224112	 -0.001102
H	 3.419457	 -1.233487	 -0.870178
H	 3.420834	 -1.233096	 0.870717
H	 4.804918	 0.861552	 -0.878265
H	 5.606527	 -0.429058	 -0.001824
H	 4.806469	 0.861674	 0.875853

	symmetry c1
}
set optking {
	frozen_dihedral = ("
		2 4 8 10
	")
}

ee = optimize('scf')
oeprop('DIPOLE', 'QUADRUPOLE', 'MULLIKEN_CHARGES')
f=open( 'psi4out.xyz', 'w' )
f.write( "23  " )
f.write( str(ee) + "\n" )
f.write( MOL.save_string_xyz() )
f.close()
--------------------------------------------------------------------------

    Molecular point group: c1
  Charge       = 0
  Multiplicity = 1
  Basis Set: 6-31G*
  Basis Set:
  @DF-RHF Final Energy:  -422.97875944955757
    Total Energy =                       -422.9787594495571739
    Molecular point group: c1
  Basis Set: 6-31G*
  Basis Set:
  Basis Set: 6-31G*
  Basis Set:
  @DF-RHF Final Energy:  -422.97880544441847
    Total Energy =                       -422.9788054444179579
  Basis Set: 6-31G*
  Basis Set:
  Basis Set: 6-31G*
  Basis Set:
  @DF-RHF Final Energy:  -422.97868959069427
    Total Energy =                       -422.9786895906943300
  Basis Set: 6-31G*
  Basis Set:
  Basis Set: 6-31G*
  Basis Set:
  @DF-RHF Final Energy:  -422.97888479945948
    Total Energy =                       -422.9788847994592516
  Basis Set: 6-31G*
  Basis Set:
  Basis Set: 6-31G*
  Basis Set:
  @DF-RHF Final Energy:  -422.97889321359787
    Total Energy =                       -422.9788932135976438
  Basis Set: 6-31G*
  Basis Set:
  Charge       = 0
  Multiplicity = 1
  Basis Set: 6-31G*
  Basis Set:

    Orbital Energies (a.u.)
    -----------------------

    Doubly Occupied:

       1A    -20.602861     2A    -20.540348     3A    -11.374516
       4A    -11.281230     5A    -11.232196     6A    -11.224397
       7A    -11.223801     8A    -11.221736     9A    -11.212999
      10A     -1.467173    11A     -1.360957    12A     -1.094230
      13A     -1.042298    14A     -1.003321    15A     -0.931192
      16A     -0.842316    17A     -0.802333    18A     -0.774201
      19A     -0.694246    20A     -0.683058    21A     -0.666886
      22A     -0.646886    23A     -0.606116    24A     -0.588365
      25A     -0.582666    26A     -0.567862    27A     -0.557439
      28A     -0.536912    29A     -0.523685    30A     -0.505062
      31A     -0.491086    32A     -0.478003    33A     -0.471377
      34A     -0.467697    35A     -0.449123    36A     -0.434509

  @DF-RHF Final Energy:  -422.97889332100516

   => Energetics <=

    Nuclear Repulsion Energy =            449.6844239997371346
    One-Electron Energy =               -1466.9604616488338706
    Two-Electron Energy =                 594.2971443280906669
    DFT Exchange-Correlation Energy =       0.0000000000000000
    Empirical Dispersion Energy =           0.0000000000000000
    PCM Polarization Energy =               0.0000000000000000
    EFP Energy =                            0.0000000000000000
    Total Energy =                       -422.9788933210060122
    Molecular point group: c1
  Basis Set: 6-31G*
  Basis Set:

  -Total Gradient:
     Atom            X                  Y                   Z
    ------   -----------------  -----------------  -----------------
       1       -0.000028585620    -0.000000472059     0.000000764088
       2        0.000271287618    -0.000381489247     0.001246922713
       3        0.000005017752     0.000019053477    -0.000025527515
       4       -0.000194618585     0.000261036155    -0.001954741861
       5       -0.000002583270     0.000003271244     0.000009169015
       6        0.000007396307     0.000006071939     0.000002230645
       7        0.000005724356    -0.000007037484     0.000009270907
       8       -0.000854228375     0.001123587299     0.001468006007
       9       -0.000007245191     0.000008157083    -0.000002851476
      10        0.000788268116    -0.001025421117    -0.000767686679
      11        0.000007698540    -0.000003544892    -0.000004314132
      12       -0.000001544440    -0.000001252146     0.000003488405
      13       -0.000006400707     0.000003029054     0.000000434998
      14        0.000007127216    -0.000004121059     0.000001707548
      15       -0.000000993010     0.000000529828     0.000014710950
      16        0.000000605183     0.000003806270     0.000003574999
      17       -0.000001685320    -0.000003203326     0.000001537048
      18        0.000002201043    -0.000001937711    -0.000011947180
      19       -0.000002460443    -0.000002898737     0.000004514280
      20        0.000004143255     0.000002978620     0.000003733209
      21        0.000000016097     0.000003856155     0.000001205112
      22        0.000001777263     0.000000579827    -0.000004691258
      23       -0.000000917784    -0.000004579175     0.000000490177

  **** Optimization is complete! (in 6 steps) ****
    Final optimized geometry and variables:
    Molecular point group: c1

    Geometry (in Angstrom), charge = 0, multiplicity = 1:

    O           -2.787908248418     1.222896794245     0.592397837020
    C           -2.650604114213     0.097381086203     0.233475750906
    C           -3.771337806224    -0.909314577305     0.187708280335
    O           -1.498979287869    -0.411993072997    -0.173115575299
    H           -4.551639693830    -0.531681823582    -0.462198467171
    H           -3.433823720590    -1.872670097200    -0.164985936738
    H           -4.191582295015    -1.007019396551     1.181568461455
    C           -0.346309427375     0.424908126131    -0.149115234457
    C            0.876755680292    -0.474183100026    -0.162975353109
    H           -0.368039117339     1.062671465380    -1.024587647553
    H           -0.375833587489     1.050875218109     0.730056661429
    C            2.180066686256     0.326882908483    -0.172685406661
    H            0.830108473068    -1.119371616769    -1.035825367795
    H            0.844488132972    -1.122339709946     0.708552613860
    C            3.425614948128    -0.561261066877    -0.183337975768
    H            2.199169128313     0.979879143307    -1.043577582557
    H            2.212909137861     0.978986624829     0.698388543889
    C            4.727211182566     0.239102533551    -0.196333708309
    H            3.393852566246    -1.214010105761    -1.052820418774
    H            3.410141850583    -1.212088865820     0.688001503016
    H            4.787531442710     0.875763703353    -1.074437930531
    H            5.591500790344    -0.417527551882    -0.204178485140
    H            4.804278036155     0.876911826030     0.679594600751

  Mulliken Charges: (a.u.)
   Center  Symbol    Alpha    Beta     Spin     Total
       1     O     4.28368  4.28368  0.00000 -0.56737
       2     C     2.61544  2.61544  0.00000  0.76911
       3     C     3.28794  3.28794  0.00000 -0.57588
       4     O     4.31299  4.31299  0.00000 -0.62598
       5     H     0.39745  0.39745  0.00000  0.20509
       6     H     0.39991  0.39991  0.00000  0.20018
       7     H     0.39766  0.39766  0.00000  0.20468
       8     C     2.99765  2.99765  0.00000  0.00469
       9     C     3.16429  3.16429  0.00000 -0.32859
      10     H     0.41485  0.41485  0.00000  0.17030
      11     H     0.40349  0.40349  0.00000  0.19302
      12     C     3.16023  3.16023  0.00000 -0.32046
      13     H     0.41405  0.41405  0.00000  0.17190
      14     H     0.41506  0.41506  0.00000  0.16989
      15     C     3.15139  3.15139  0.00000 -0.30278
      16     H     0.42118  0.42118  0.00000  0.15765
      17     H     0.42045  0.42045  0.00000  0.15910
      18     C     3.23988  3.23988  0.00000 -0.47976
      19     H     0.42141  0.42141  0.00000  0.15717
      20     H     0.42132  0.42132  0.00000  0.15736
      21     H     0.42096  0.42096  0.00000  0.15809
      22     H     0.41798  0.41798  0.00000  0.16403
      23     H     0.42073  0.42073  0.00000  0.15854

   Total alpha = 36.00000, Total beta = 36.00000, Total charge =  0.00000
