  ==> Input File <==

--------------------------------------------------------------------------
set {
	reference rhf
	basis 6-31G*
}

set_num_threads( 1 )
memory 2 gb

molecule MOL {
0 1

O	 -1.276010	 1.052711	 -0.768302
C	 -1.204840	 0.067374	 -0.106123
C	 -2.388195	 -0.672128	 0.458071
O	 -0.067104	 -0.527208	 0.221609
H	 -2.388023	 -1.694060	 0.097175
H	 -3.300579	 -0.174919	 0.164318
H	 -2.315377	 -0.706351	 1.539059
C	 0.011707	 -1.245549	 1.460844
C	 1.479281	 -1.244962	 1.850477
C	 -0.556119	 -2.644740	 1.280610
H	 -0.570103	 -0.706807	 2.194165
H	 1.847848	 -0.230607	 1.952893
H	 1.614654	 -1.756207	 2.797913
H	 2.075719	 -1.751233	 1.099075
H	 -0.478309	 -3.201454	 2.209066
H	 -1.600601	 -2.601914	 0.999189
H	 -0.006685	 -3.180966	 0.513412

	symmetry c1
}
set optking {
	frozen_dihedral = ("
		11 8 4 2
	")
}

ee = energy('scf')
oeprop('DIPOLE', 'QUADRUPOLE', 'MULLIKEN_CHARGES')
f=open( 'psi4out.xyz', 'w' )
f.write( "17  " )
f.write( str(ee) + "\n" )
f.write( MOL.save_string_xyz() )
f.close()
--------------------------------------------------------------------------

    Molecular point group: c1

    Geometry (in Angstrom), charge = 0, multiplicity = 1:

       Center              X                  Y                   Z               Mass
    ------------   -----------------  -----------------  -----------------  -----------------
           O         -0.702446574841     1.803233970351    -1.397829486729    15.994914619560
           C         -0.631276574841     0.817896970351    -0.735650486729    12.000000000000
           C         -1.814631574841     0.078394970351    -0.171456486729    12.000000000000
           O          0.506459425159     0.223314970351    -0.407918486729    15.994914619560
           H         -1.814459574841    -0.943537029649    -0.532352486729     1.007825032070
           H         -2.727015574841     0.575603970351    -0.465209486729     1.007825032070
           H         -1.741813574841     0.044171970351     0.909531513271     1.007825032070
           C          0.585270425159    -0.495026029649     0.831316513271    12.000000000000
           C          2.052844425159    -0.494439029649     1.220949513271    12.000000000000
           C          0.017444425159    -1.894217029649     0.651082513271    12.000000000000
           H          0.003460425159     0.043715970351     1.564637513271     1.007825032070
           H          2.421411425159     0.519915970351     1.323365513271     1.007825032070
           H          2.188217425159    -1.005684029649     2.168385513271     1.007825032070
           H          2.649282425159    -1.000710029649     0.469547513271     1.007825032070
           H          0.095254425159    -2.450931029649     1.579538513271     1.007825032070
           H         -1.027037574841    -1.851391029649     0.369661513271     1.007825032070
           H          0.566878425159    -2.430443029649    -0.116115486729     1.007825032070

  Charge       = 0
  Multiplicity = 1
  Basis Set: 6-31G*
  Basis Set:

    Orbital Energies (a.u.)
    -----------------------

    Doubly Occupied:

       1A    -20.597588     2A    -20.544495     3A    -11.376165
       4A    -11.308435     5A    -11.234485     6A    -11.227819
       7A    -11.227437     8A     -1.463336     9A     -1.367340
      10A     -1.081682    11A     -1.028465    12A     -0.956649
      13A     -0.859829    14A     -0.781810    15A     -0.708868
      16A     -0.674468    17A     -0.657519    18A     -0.635466
      19A     -0.608951    20A     -0.580786    21A     -0.560972
      22A     -0.558578    23A     -0.550199    24A     -0.519940
      25A     -0.514211    26A     -0.482951    27A     -0.445980
      28A     -0.432954

  @DF-RHF Final Energy:  -344.87168602372685

   => Energetics <=

    Nuclear Repulsion Energy =            327.5006728525190738
    One-Electron Energy =               -1118.7699522349364543
    Two-Electron Energy =                 446.3975933586901874
    DFT Exchange-Correlation Energy =       0.0000000000000000
    Empirical Dispersion Energy =           0.0000000000000000
    PCM Polarization Energy =               0.0000000000000000
    EFP Energy =                            0.0000000000000000
    Total Energy =                       -344.8716860237271931

  Mulliken Charges: (a.u.)
   Center  Symbol    Alpha    Beta     Spin     Total
       1     O     4.26826  4.26826  0.00000 -0.53652
       2     C     2.60588  2.60588  0.00000  0.78825
       3     C     3.32202  3.32202  0.00000 -0.64405
       4     O     4.30624  4.30624  0.00000 -0.61249
       5     H     0.39491  0.39491  0.00000  0.21019
       6     H     0.39063  0.39063  0.00000  0.21874
       7     H     0.40322  0.40322  0.00000  0.19355
       8     C     2.93915  2.93915  0.00000  0.12170
       9     C     3.23782  3.23782  0.00000 -0.47564
      10     C     3.24948  3.24948  0.00000 -0.49896
      11     H     0.41308  0.41308  0.00000  0.17384
      12     H     0.40559  0.40559  0.00000  0.18882
      13     H     0.41824  0.41824  0.00000  0.16352
      14     H     0.40888  0.40888  0.00000  0.18223
      15     H     0.41590  0.41590  0.00000  0.16820
      16     H     0.41236  0.41236  0.00000  0.17528
      17     H     0.40833  0.40833  0.00000  0.18334

   Total alpha = 28.00000, Total beta = 28.00000, Total charge =  0.00000
