                              Psi4 1.0.54 Driver

  ==> Input File <==

--------------------------------------------------------------------------
set {
	reference rhf
	basis cc-pvtz
}

set_num_threads( 4 )
memory 2 gb

molecule MOL {
0 1

H	 2.867672	 -0.456275	 0.875795
C	 2.403497	 -0.020426	 0.000000
N	 0.989899	 -0.304564	 0.000000
H	 2.867672	 -0.456275	 -0.875795
H	 2.620366	 1.051270	 0.000000
C	 0.711121	 -1.725779	 -0.000000
C	 0.293408	 0.352358	 -1.086702
H	 1.117960	 -2.212914	 -0.891586
H	 1.179431	 -2.181011	 0.864972
C	 -0.785921	 -1.962387	 0.055888
H	 0.455230	 1.421922	 -1.019079
H	 0.668829	 0.021529	 -2.060024
C	 -1.192901	 0.062354	 -1.002892
H	 -1.007041	 -3.016531	 -0.036381
H	 -1.174285	 -1.610579	 1.009568
O	 -1.439089	 -1.312586	 -0.994004
H	 -1.708202	 0.471770	 -1.860488
H	 -1.602325	 0.518936	 -0.104001

	symmetry c1
}
set optking {
	frozen_dihedral = ("
		6 3 2 5
	")
}

ee,wfn = optimize('scf', return_wfn=True)
oeprop( wfn, 'DIPOLE', 'QUADRUPOLE', 'MULLIKEN_CHARGES')
f=open( 'psi4out.xyz', 'w' )
f.write( "18  " )
f.write( str(ee) + "\n" )
f.write( MOL.save_string_xyz() )
f.close()
--------------------------------------------------------------------------

    Molecular point group: c1
  Charge       = 0
  Multiplicity = 1
  Basis Set: CC-PVTZ
  Basis Set:
  @DF-RHF Final Energy:  -325.14509075673783
    Total Energy =                       -325.1450907567379431
    Molecular point group: c1
  Basis Set: CC-PVTZ
  Basis Set:
  Basis Set: CC-PVTZ
  Basis Set:
  @DF-RHF Final Energy:  -325.14570982210915
    Total Energy =                       -325.1457098221090405
  Basis Set: CC-PVTZ
  Basis Set:
  Basis Set: CC-PVTZ
  Basis Set:
  @DF-RHF Final Energy:  -325.14579700107834
    Total Energy =                       -325.1457970010784493
  Basis Set: CC-PVTZ
  Basis Set:
  Charge       = 0
  Multiplicity = 1
  Basis Set: CC-PVTZ
  Basis Set:

    Orbital Energies (a.u.)
    -----------------------

    Doubly Occupied:

       1A    -20.547664     2A    -15.544746     3A    -11.264452
       4A    -11.264424     5A    -11.242606     6A    -11.242545
       7A    -11.239252     8A     -1.386621     9A     -1.234530
      10A     -1.039231    11A     -0.982214    12A     -0.884112
      13A     -0.869543    14A     -0.774829    15A     -0.685245
      16A     -0.646702    17A     -0.645478    18A     -0.635507
      19A     -0.631272    20A     -0.574385    21A     -0.557324
      22A     -0.540264    23A     -0.527551    24A     -0.501822
      25A     -0.485310    26A     -0.454104    27A     -0.410803
      28A     -0.356271

  @DF-RHF Final Energy:  -325.14579788540721

   => Energetics <=

    Nuclear Repulsion Energy =            342.0044990512332106
    One-Electron Energy =               -1119.9629818925423024
    Two-Electron Energy =                 452.8126849559022276
    DFT Exchange-Correlation Energy =       0.0000000000000000
    Empirical Dispersion Energy =           0.0000000000000000
    PCM Polarization Energy =               0.0000000000000000
    EFP Energy =                            0.0000000000000000
    Total Energy =                       -325.1457978854068642
    Molecular point group: c1
  Basis Set: CC-PVTZ
  Basis Set:

  -Total Gradient:
     Atom            X                  Y                   Z
    ------   -----------------  -----------------  -----------------
       1       -0.000025405149    -0.000003695152     0.000005618028
       2       -0.000018245370    -0.000047094433     0.000753599079
       3       -0.000038519055    -0.000019442515     0.000662729101
       4       -0.000019062193    -0.000010291683    -0.000010843450
       5       -0.000023718820    -0.000010954893    -0.000776732199
       6        0.000105997763    -0.000057004019    -0.000646462233
       7        0.000012943623    -0.000027169143     0.000035688635
       8        0.000011395460     0.000003781336    -0.000006817436
       9        0.000018600995     0.000012849949     0.000009711177
      10        0.000007858687     0.000165777004     0.000031255626
      11       -0.000004466898    -0.000001405147    -0.000002724544
      12       -0.000020569459     0.000003556608    -0.000001061540
      13       -0.000001091432     0.000011450936    -0.000035766288
      14        0.000045266062     0.000027993047    -0.000008626494
      15       -0.000025510471    -0.000015942771     0.000031020973
      16       -0.000021440053    -0.000016801872    -0.000036221215
      17       -0.000015880036    -0.000006886806    -0.000002695660
      18        0.000011846341    -0.000008720442    -0.000001671558

  **** Optimization is complete! (in 4 steps) ****
    Final optimized geometry and variables:
    Molecular point group: c1

    Geometry (in Angstrom), charge = 0, multiplicity = 1:

    H            2.704245167403     0.311337599139     1.356619026122
    C            2.249066155245     0.711174409881     0.459107757189
    N            0.837791612439     0.415634582764     0.447319651272
    H            2.775397802725     0.292716216340    -0.403336144404
    H            2.401236455697     1.783093837974     0.451456012797
    C            0.574843085036    -1.008567069440     0.456857137376
    C            0.148951564276     1.051019698548    -0.657362629885
    H            0.997266038086    -1.498070861716    -0.426108196042
    H            1.038873213874    -1.451449566789     1.330785476175
    C           -0.920004820875    -1.261521002762     0.497943907001
    H            0.297988106287     2.123152795117    -0.601757697781
    H            0.540212058030     0.711667523544    -1.621521719108
    C           -1.335346311498     0.746231147849    -0.589159990906
    H           -1.127556865852    -2.319204883572     0.414676674923
    H           -1.323507099272    -0.904257851870     1.443360781329
    O           -1.567902044281    -0.630831412679    -0.566664121860
    H           -1.843729785974     1.140415127975    -1.458038588987
    H           -1.760516710491     1.209539869857     0.298980711734

  Mulliken Charges: (a.u.)
   Center  Symbol    Alpha    Beta     Spin     Total
       1     H     0.45105  0.45105  0.00000  0.09789
       2     C     3.09490  3.09490  0.00000 -0.18980
       3     N     3.61698  3.61698  0.00000 -0.23396
       4     H     0.46965  0.46965  0.00000  0.06070
       5     H     0.45184  0.45184  0.00000  0.09631
       6     C     3.04133  3.04133  0.00000 -0.08266
       7     C     3.04088  3.04088  0.00000 -0.08175
       8     H     0.46852  0.46852  0.00000  0.06296
       9     H     0.45401  0.45401  0.00000  0.09199
      10     C     2.98343  2.98343  0.00000  0.03315
      11     H     0.45389  0.45389  0.00000  0.09222
      12     H     0.46901  0.46901  0.00000  0.06198
      13     C     2.98358  2.98358  0.00000  0.03283
      14     H     0.44976  0.44976  0.00000  0.10047
      15     H     0.46748  0.46748  0.00000  0.06505
      16     O     4.18646  4.18646  0.00000 -0.37292
      17     H     0.44971  0.44971  0.00000  0.10057
      18     H     0.46752  0.46752  0.00000  0.06497

   Total alpha = 28.00000, Total beta = 28.00000, Total charge = -0.00000

*** Psi4 exiting successfully. Buy a developer a beer!
