                              Psi4 1.0.54 Driver

  ==> Input File <==

--------------------------------------------------------------------------
set {
	reference rhf
	basis cc-pvtz
}

set_num_threads( 4 )
memory 2 gb

molecule MOL {
0 1

H	 2.436343	 0.175537	 5.877117
C	 2.008767	 -0.651474	 5.322051
C	 0.955104	 -0.165236	 4.332763
H	 2.818258	 -1.159147	 4.809012
H	 1.583961	 -1.346647	 6.039042
C	 0.322092	 -1.306046	 3.539152
H	 1.407088	 0.543729	 3.648644
H	 0.177208	 0.370875	 4.871544
C	 -0.741177	 -0.849858	 2.545050
H	 1.093347	 -1.848382	 3.006361
H	 -0.136587	 -2.006633	 4.230943
C	 -0.199783	 -0.120383	 1.327165
H	 -1.283783	 -1.711501	 2.164371
H	 -1.485135	 -0.225216	 3.030711
C	 -1.180025	 0.697761	 0.509157
O	 0.942904	 -0.199736	 1.008978
C	 -2.285431	 -0.137488	 -0.145671
H	 -0.606438	 1.215816	 -0.247452
H	 -1.629406	 1.444442	 1.158556
C	 -3.646545	 0.082747	 0.508954
H	 -2.348635	 0.118247	 -1.199806
H	 -2.034895	 -1.192387	 -0.096473
C	 -4.757412	 -0.737227	 -0.138149
H	 -3.900211	 1.137405	 0.459735
H	 -3.580878	 -0.166775	 1.564416
H	 -4.867876	 -0.486707	 -1.187777
H	 -4.549650	 -1.800049	 -0.072540
H	 -5.709585	 -0.556397	 0.346597

	symmetry c1
}
set optking {
	frozen_dihedral = ("
		12 15 17 21
	")
}

ee,wfn = optimize('scf', return_wfn=True)
oeprop( wfn, 'DIPOLE', 'QUADRUPOLE', 'MULLIKEN_CHARGES')
f=open( 'psi4out.xyz', 'w' )
f.write( "28  " )
f.write( str(ee) + "\n" )
f.write( MOL.save_string_xyz() )
f.close()
--------------------------------------------------------------------------

    Molecular point group: c1
  Charge       = 0
  Multiplicity = 1
  Basis Set: CC-PVTZ
  Basis Set:
  @DF-RHF Final Energy:  -426.31429861983418
    Total Energy =                       -426.3142986198336075
    Molecular point group: c1
  Basis Set: CC-PVTZ
  Basis Set:
  Basis Set: CC-PVTZ
  Basis Set:
  @DF-RHF Final Energy:  -426.31466409996278
    Total Energy =                       -426.3146640999625561
  Basis Set: CC-PVTZ
  Basis Set:
  Basis Set: CC-PVTZ
  Basis Set:
  @DF-RHF Final Energy:  -426.31492248840357
    Total Energy =                       -426.3149224884040223
  Basis Set: CC-PVTZ
  Basis Set:
  Basis Set: CC-PVTZ
  Basis Set:
  @DF-RHF Final Energy:  -426.31497611694897
    Total Energy =                       -426.3149761169488556
  Basis Set: CC-PVTZ
  Basis Set:
  @DF-RHF Final Energy:  -426.31503912981930
    Total Energy =                       -426.3150391298189561
  @DF-RHF Final Energy:  -426.31507329743420
    Total Energy =                       -426.3150732974345374
  Basis Set: CC-PVTZ
  Basis Set:
  @DF-RHF Final Energy:  -426.31507068921235
    Total Energy =                       -426.3150706892129165
  Basis Set: CC-PVTZ
  Basis Set:
  Basis Set: CC-PVTZ
  Basis Set:
  @DF-RHF Final Energy:  -426.31511911326095
    Total Energy =                       -426.3151191132610620
  Basis Set: CC-PVTZ
  Basis Set:
  Basis Set: CC-PVTZ
  Basis Set:
  @DF-RHF Final Energy:  -426.31512330688531
    Total Energy =                       -426.3151233068854253
  Basis Set: CC-PVTZ
  Basis Set:
  Charge       = 0
  Multiplicity = 1
  Basis Set: CC-PVTZ
  Basis Set:

    Orbital Energies (a.u.)
    -----------------------

    Doubly Occupied:

       1A    -20.536516     2A    -11.316614     3A    -11.230222
       4A    -11.228938     5A    -11.226422     6A    -11.225384
       7A    -11.215104     8A    -11.214465     9A    -11.209260
      10A    -11.203080    11A     -1.396688    12A     -1.094700
      13A     -1.077993    14A     -1.022862    15A     -0.992008
      16A     -0.908940    17A     -0.874716    18A     -0.812374
      19A     -0.797216    20A     -0.726356    21A     -0.670979
      22A     -0.653858    23A     -0.624092    24A     -0.616052
      25A     -0.612473    26A     -0.592355    27A     -0.578265
      28A     -0.573101    29A     -0.547491    30A     -0.533096
      31A     -0.522353    32A     -0.514621    33A     -0.502992
      34A     -0.481562    35A     -0.479692    36A     -0.477527
      37A     -0.466257    38A     -0.463318    39A     -0.456458
      40A     -0.394706

  @DF-RHF Final Energy:  -426.31512422180595

   => Energetics <=

    Nuclear Repulsion Energy =            537.5652536561883608
    One-Electron Energy =               -1643.6185348592111950
    Two-Electron Energy =                 679.7381569812168891
    DFT Exchange-Correlation Energy =       0.0000000000000000
    Empirical Dispersion Energy =           0.0000000000000000
    PCM Polarization Energy =               0.0000000000000000
    EFP Energy =                            0.0000000000000000
    Total Energy =                       -426.3151242218059451
    Molecular point group: c1
  Basis Set: CC-PVTZ
  Basis Set:

  -Total Gradient:
     Atom            X                  Y                   Z
    ------   -----------------  -----------------  -----------------
       1       -0.000002248119    -0.000002703787    -0.000001984832
       2        0.000002689713     0.000005141363    -0.000007086730
       3        0.000010685593     0.000002195320    -0.000008041966
       4       -0.000002282262     0.000001051830     0.000002890870
       5       -0.000000673125    -0.000001870305     0.000003224355
       6       -0.000000857102     0.000003137979    -0.000000193429
       7       -0.000007121722    -0.000008423678     0.000006348136
       8       -0.000002972737     0.000000940789     0.000000730372
       9       -0.000038854517    -0.000054544047    -0.000033801888
      10        0.000010544998    -0.000012294422     0.000002640205
      11        0.000006095947     0.000002990835     0.000002598392
      12        0.000473549306    -0.000135358919    -0.000627525658
      13        0.000007108946     0.000014736726     0.000020386033
      14        0.000005783026     0.000038099969    -0.000012318136
      15       -0.000510483096    -0.000023449207     0.000765531353
      16       -0.000004282916     0.000042094279     0.000044110365
      17       -0.000710794915     0.000781793562     0.000000564549
      18       -0.000012147146     0.000017574623    -0.000007736737
      19        0.000001984991     0.000009680025    -0.000005900693
      20       -0.000000545961    -0.000016736453     0.000050935814
      21        0.000741515461    -0.000701559200    -0.000167115442
      22        0.000011010758    -0.000002183260    -0.000003774082
      23        0.000009090018     0.000024409533    -0.000024657797
      24       -0.000002677261     0.000006836382     0.000012818462
      25        0.000000245060     0.000001131216    -0.000010057455
      26       -0.000003868164    -0.000008538330    -0.000009333781
      27        0.000001568532    -0.000002321494     0.000004859354
      28        0.000017936691     0.000018168670     0.000001890366

  **** Optimization is complete! (in 10 steps) ****
    Final optimized geometry and variables:
    Molecular point group: c1

    Geometry (in Angstrom), charge = 0, multiplicity = 1:

    H            3.707055644752     0.177172875110     3.803903510084
    C            3.056372541612    -0.544579308325     3.323754913058
    C            2.027522435062     0.146632596040     2.435596655087
    H            3.679563981026    -1.217596868524     2.744980512850
    H            2.575890212191    -1.126876988160     4.103534872464
    C            1.082660003375    -0.840264267532     1.753192252521
    H            2.539399949928     0.734804802871     1.683767570303
    H            1.444606034144     0.841400852445     3.035923341541
    C            0.038979748601    -0.180306840006     0.857810858416
    H            1.658454564034    -1.545357405404     1.165724303296
    H            0.563344749787    -1.414801695119     2.514890468254
    C            0.567875367737     0.358516516889    -0.459282964442
    H           -0.745137703428    -0.890812970285     0.609562236762
    H           -0.461245339912     0.631375937034     1.379113417173
    C           -0.403070509387     1.128076486035    -1.335134297050
    O            1.685096141540     0.165186878829    -0.816264551641
    C           -1.418164893473     0.207980261259    -2.056304230185
    H            0.196669220352     1.662215903578    -2.057355679668
    H           -0.931519616252     1.860694348974    -0.734589103585
    C           -2.841986192204     0.293291981013    -1.511644273388
    H           -1.426395961038     0.462375895729    -3.109590714183
    H           -1.076675698639    -0.822198387194    -2.013261812968
    C           -3.811203983521    -0.631656106599    -2.239225802923
    H           -3.190400271981     1.318953413402    -1.593798747266
    H           -2.845328568415     0.056624698177    -0.451737007898
    H           -3.854187225880    -0.398388498577    -3.297740133486
    H           -3.509900360938    -1.669362731354    -2.142845090304
    H           -4.814192285272    -0.539960030020    -1.839301822365

  Mulliken Charges: (a.u.)
   Center  Symbol    Alpha    Beta     Spin     Total
       1     H     0.44868  0.44868  0.00000  0.10264
       2     C     3.15196  3.15196  0.00000 -0.30392
       3     C     3.08355  3.08355  0.00000 -0.16710
       4     H     0.45205  0.45205  0.00000  0.09591
       5     H     0.45731  0.45731  0.00000  0.08539
       6     C     3.08651  3.08651  0.00000 -0.17302
       7     H     0.44404  0.44404  0.00000  0.11192
       8     H     0.45884  0.45884  0.00000  0.08231
       9     C     3.13258  3.13258  0.00000 -0.26515
      10     H     0.44575  0.44575  0.00000  0.10850
      11     H     0.44810  0.44810  0.00000  0.10379
      12     C     2.86249  2.86249  0.00000  0.27502
      13     H     0.43330  0.43330  0.00000  0.13340
      14     H     0.44195  0.44195  0.00000  0.11610
      15     C     3.10156  3.10156  0.00000 -0.20312
      16     O     4.17856  4.17856  0.00000 -0.35712
      17     C     3.11087  3.11087  0.00000 -0.22174
      18     H     0.43349  0.43349  0.00000  0.13301
      19     H     0.44820  0.44820  0.00000  0.10360
      20     C     3.08520  3.08520  0.00000 -0.17039
      21     H     0.43926  0.43926  0.00000  0.12147
      22     H     0.44702  0.44702  0.00000  0.10596
      23     C     3.15011  3.15011  0.00000 -0.30022
      24     H     0.45162  0.45162  0.00000  0.09675
      25     H     0.45287  0.45287  0.00000  0.09425
      26     H     0.45307  0.45307  0.00000  0.09386
      27     H     0.45402  0.45402  0.00000  0.09196
      28     H     0.44701  0.44701  0.00000  0.10597

   Total alpha = 40.00000, Total beta = 40.00000, Total charge =  0.00000

*** Psi4 exiting successfully. Buy a developer a beer!
