  ==> Input File <==

--------------------------------------------------------------------------
set {
	reference rhf
	basis cc-pvtz
}

set_num_threads( 4 )
memory 2 gb

molecule MOL {
0 1

H	 1.179002	 0.284078	 1.809197
O	 1.360291	 -0.092411	 0.966675
C	 0.706474	 0.636793	 -0.025501
C	 -0.793473	 0.591216	 0.050087
H	 1.028512	 0.222085	 -0.973451
H	 1.027297	 1.676844	 -0.017452
C	 -1.534243	 -0.493009	 -0.013340
H	 -1.266611	 1.552628	 0.164437
H	 -1.101195	 -1.466332	 -0.144046
H	 -2.604242	 -0.437780	 0.050785

	symmetry c1
}
set optking {
	frozen_dihedral = ("
		5 3 4 7
	")
}

ee = optimize('scf')
oeprop('DIPOLE', 'QUADRUPOLE', 'MULLIKEN_CHARGES')
f=open( 'psi4out.xyz', 'w' )
f.write( "10  " )
f.write( str(ee) + "\n" )
f.write( MOL.save_string_xyz() )
f.close()
--------------------------------------------------------------------------

    Molecular point group: c1
  Charge       = 0
  Multiplicity = 1
  Basis Set: CC-PVTZ
  Basis Set:
  @DF-RHF Final Energy:  -191.99320338709185
    Total Energy =                       -191.9932033870918531
    Molecular point group: c1
  Basis Set: CC-PVTZ
  Basis Set:
  Basis Set: CC-PVTZ
  Basis Set:
  @DF-RHF Final Energy:  -191.99388185715438
    Total Energy =                       -191.9938818571544630
  Basis Set: CC-PVTZ
  Basis Set:
  Basis Set: CC-PVTZ
  Basis Set:
  @DF-RHF Final Energy:  -191.99399445687351
    Total Energy =                       -191.9939944568735655
  Basis Set: CC-PVTZ
  Basis Set:
  Basis Set: CC-PVTZ
  Basis Set:
  @DF-RHF Final Energy:  -191.99401219213746
    Total Energy =                       -191.9940121921373759
  Basis Set: CC-PVTZ
  Basis Set:
  Basis Set: CC-PVTZ
  Basis Set:
  @DF-RHF Final Energy:  -191.99401478281052
    Total Energy =                       -191.9940147828105239
  Basis Set: CC-PVTZ
  Basis Set:
  Charge       = 0
  Multiplicity = 1
  Basis Set: CC-PVTZ
  Basis Set:

    Orbital Energies (a.u.)
    -----------------------

    Doubly Occupied:

       1A    -20.549025     2A    -11.274730     3A    -11.229498
       4A    -11.223496     5A     -1.367148     6A     -1.063376
       7A     -0.925705     8A     -0.778988     9A     -0.680981
      10A     -0.664604    11A     -0.608362    12A     -0.580054
      13A     -0.555258    14A     -0.478357    15A     -0.450117
      16A     -0.374231

  @DF-RHF Final Energy:  -191.99401493195433

   => Energetics <=

    Nuclear Repulsion Energy =            118.6539821790942000
    One-Electron Energy =                -495.6881384085694435
    Two-Electron Energy =                 185.0401412975208757
    DFT Exchange-Correlation Energy =       0.0000000000000000
    Empirical Dispersion Energy =           0.0000000000000000
    PCM Polarization Energy =               0.0000000000000000
    EFP Energy =                            0.0000000000000000
    Total Energy =                       -191.9940149319543536
    Molecular point group: c1
  Basis Set: CC-PVTZ
  Basis Set:

  -Total Gradient:
     Atom            X                  Y                   Z
    ------   -----------------  -----------------  -----------------
       1       -0.000001555386    -0.000000547563     0.000004099654
       2        0.000016084459    -0.000049455778     0.000020044622
       3       -0.000188273843     0.002020097337    -0.001683593034
       4        0.000171899277    -0.000573260193     0.002509453718
       5        0.000091229021    -0.001538244586     0.000744701218
       6       -0.000003552872     0.000009348991    -0.000026759529
       7       -0.000108794586     0.000128667037    -0.001562478524
       8        0.000013112914     0.000005614643     0.000004452676
       9        0.000007649340     0.000000259231    -0.000003518088
      10        0.000002201679    -0.000002479119    -0.000006402710

  **** Optimization is complete! (in 6 steps) ****
    Final optimized geometry and variables:
    Molecular point group: c1

    Geometry (in Angstrom), charge = 0, multiplicity = 1:

    H            1.003356543531    -0.027554947111     1.509205002780
    O            1.343965218423    -0.260449264764     0.664334812566
    C            0.699364505696     0.490119580991    -0.330530161312
    C           -0.810801201821     0.452906727324    -0.231016468922
    H            1.018516940964     0.054055014776    -1.267259082073
    H            1.041256841130     1.519956604746    -0.312477052672
    C           -1.520481881196    -0.653967454847    -0.260943203175
    H           -1.316126671086     1.399560376449    -0.145732726312
    H           -1.054341075827    -1.618779154460    -0.348290493921
    H           -2.591390960720    -0.635493306978    -0.185675678640

  Mulliken Charges: (a.u.)
   Center  Symbol    Alpha    Beta     Spin     Total
       1     H     0.39519  0.39519  0.00000  0.20963
       2     O     4.19886  4.19886  0.00000 -0.39773
       3     C     2.95358  2.95358  0.00000  0.09284
       4     C     3.10375  3.10375  0.00000 -0.20750
       5     H     0.45351  0.45351  0.00000  0.09298
       6     H     0.46580  0.46580  0.00000  0.06841
       7     C     3.16255  3.16255  0.00000 -0.32511
       8     H     0.41640  0.41640  0.00000  0.16721
       9     H     0.42437  0.42437  0.00000  0.15127
      10     H     0.42600  0.42600  0.00000  0.14800

   Total alpha = 16.00000, Total beta = 16.00000, Total charge =  0.00000
