  ==> Input File <==

--------------------------------------------------------------------------
set {
	reference rhf
	basis 6-31G*
}

set_num_threads( 4 )
memory 2 gb

molecule MOL {
0 1

H	 -2.698709	 -0.000305	 0.034435
C	 -1.693833	 0.000034	 0.434417
O	 -0.828952	 -0.000968	 -0.659236
H	 -1.574200	 0.882896	 1.055746
H	 -1.574147	 -0.881698	 1.057355
C	 0.559449	 -0.000018	 -0.420814
C	 1.193677	 1.368435	 -0.661664
C	 0.918735	 -0.573491	 0.948493
H	 0.939292	 -0.679059	 -1.174906
H	 0.876988	 1.766457	 -1.619701
H	 2.275468	 1.279648	 -0.670587
H	 0.931727	 2.084535	 0.110830
H	 0.411199	 -1.519165	 1.105231
H	 1.988616	 -0.747166	 1.008952
H	 0.651234	 0.097749	 1.758259

	symmetry c1
}
set optking {
	frozen_dihedral = ("
		9 6 3 2
	")
}

ee = optimize('scf')
oeprop('DIPOLE', 'QUADRUPOLE', 'MULLIKEN_CHARGES')
f=open( 'psi4out.xyz', 'w' )
f.write( "15  " )
f.write( str(ee) + "\n" )
f.write( MOL.save_string_xyz() )
f.close()
--------------------------------------------------------------------------

    Molecular point group: c1
  Charge       = 0
  Multiplicity = 1
  Basis Set: 6-31G*
  Basis Set:
  @DF-RHF Final Energy:  -232.13254838373442
    Total Energy =                       -232.1325483837345018
    Molecular point group: c1
  Basis Set: 6-31G*
  Basis Set:
  Basis Set: 6-31G*
  Basis Set:
  @DF-RHF Final Energy:  -232.13307066728692
    Total Energy =                       -232.1330706672869724
  Basis Set: 6-31G*
  Basis Set:
  Basis Set: 6-31G*
  Basis Set:
  @DF-RHF Final Energy:  -232.13454771401553
    Total Energy =                       -232.1345477140152411
  Basis Set: 6-31G*
  Basis Set:
  Basis Set: 6-31G*
  Basis Set:
  @DF-RHF Final Energy:  -232.13465020818984
    Total Energy =                       -232.1346502081898393
  Basis Set: 6-31G*
  Basis Set:
  Basis Set: 6-31G*
  Basis Set:
  @DF-RHF Final Energy:  -232.13466686664353
    Total Energy =                       -232.1346668666433288
  Basis Set: 6-31G*
  Basis Set:
  Basis Set: 6-31G*
  Basis Set:
  @DF-RHF Final Energy:  -232.13467315348765
    Total Energy =                       -232.1346731534875403
  Basis Set: 6-31G*
  Basis Set:
  Charge       = 0
  Multiplicity = 1
  Basis Set: 6-31G*
  Basis Set:

    Orbital Energies (a.u.)
    -----------------------

    Doubly Occupied:

       1A    -20.545833     2A    -11.274584     3A    -11.262255
       4A    -11.215047     5A    -11.206326     6A     -1.367335
       7A     -1.051823     8A     -0.946914     9A     -0.921537
      10A     -0.781353    11A     -0.674792    12A     -0.642512
      13A     -0.631398    14A     -0.579339    15A     -0.555525
      16A     -0.546740    17A     -0.535879    18A     -0.506315
      19A     -0.492722    20A     -0.444858    21A     -0.400539

  @DF-RHF Final Energy:  -232.13467346617759

   => Energetics <=

    Nuclear Repulsion Energy =            198.3288033942104960
    One-Electron Energy =                -707.7597007661338466
    Two-Electron Energy =                 277.2962239057458191
    DFT Exchange-Correlation Energy =       0.0000000000000000
    Empirical Dispersion Energy =           0.0000000000000000
    PCM Polarization Energy =               0.0000000000000000
    EFP Energy =                            0.0000000000000000
    Total Energy =                       -232.1346734661775599
    Molecular point group: c1
  Basis Set: 6-31G*
  Basis Set:

  -Total Gradient:
     Atom            X                  Y                   Z
    ------   -----------------  -----------------  -----------------
       1        0.000001414151    -0.000006358991    -0.000007345781
       2       -0.000114747194    -0.003229791021     0.000041483338
       3        0.000092063879     0.004238594695     0.000415635065
       4        0.000007143064     0.000005776639    -0.000000549528
       5       -0.000013185830     0.000017024267    -0.000014928055
       6        0.000472937839     0.001770569611    -0.002769557760
       7        0.000021646778     0.000005318357    -0.000015628537
       8        0.000024438228    -0.000024949139     0.000010070159
       9       -0.000514602136    -0.002777587377     0.002339479510
      10        0.000009028197    -0.000000408750    -0.000010041241
      11       -0.000005499201    -0.000005734877     0.000010253860
      12        0.000008892370     0.000003899353    -0.000003639673
      13        0.000018998544    -0.000003978452    -0.000005142992
      14        0.000000492173     0.000006200138     0.000004507011
      15       -0.000009020859     0.000001425546     0.000005404627

  **** Optimization is complete! (in 7 steps) ****
    Final optimized geometry and variables:
    Molecular point group: c1

    Geometry (in Angstrom), charge = 0, multiplicity = 1:

    H           -2.716589856665    -0.013620951516     0.049316284032
    C           -1.728284426253    -0.110022964223     0.478534609697
    O           -0.836726400971    -0.147673677952    -0.591148413552
    H           -1.558339770964     0.741022155141     1.134156376768
    H           -1.701267992929    -1.016841935030     1.074304852085
    C            0.556947511833    -0.192392488990    -0.358265936456
    C            1.146646838376     1.191047654529    -0.603478537529
    C            0.964514407622    -0.754422314954     1.003473102104
    H            0.936945641595    -0.885603204189    -1.101096578490
    H            0.861689558254     1.548063078661    -1.586311002044
    H            2.230894979796     1.171164143442    -0.544292040971
    H            0.780469331808     1.900991612633     0.132837910695
    H            0.549436752839    -1.743249392041     1.164629570626
    H            2.045543787342    -0.841753940896     1.038656430027
    H            0.660345440861    -0.114497257529     1.825067263074

  Mulliken Charges: (a.u.)
   Center  Symbol    Alpha    Beta     Spin     Total
       1     H     0.41229  0.41229  0.00000  0.17543
       2     C     3.07714  3.07714  0.00000 -0.15428
       3     O     4.31816  4.31816  0.00000 -0.63633
       4     H     0.43181  0.43181  0.00000  0.13639
       5     H     0.42867  0.42867  0.00000  0.14266
       6     C     2.90387  2.90387  0.00000  0.19225
       7     C     3.24075  3.24075  0.00000 -0.48149
       8     C     3.26342  3.26342  0.00000 -0.52684
       9     H     0.41922  0.41922  0.00000  0.16156
      10     H     0.41120  0.41120  0.00000  0.17760
      11     H     0.42479  0.42479  0.00000  0.15042
      12     H     0.42238  0.42238  0.00000  0.15524
      13     H     0.41303  0.41303  0.00000  0.17395
      14     H     0.41482  0.41482  0.00000  0.17035
      15     H     0.41846  0.41846  0.00000  0.16308

   Total alpha = 21.00000, Total beta = 21.00000, Total charge =  0.00000
