                              Psi4 1.0.54 Driver

  ==> Input File <==

--------------------------------------------------------------------------
set {
	reference rhf
	basis cc-pvtz
}

set_num_threads( 4 )
memory 2 gb

molecule MOL {
0 1

H	 -2.498963	 -0.741158	 -0.729149
O	 -2.346257	 -0.289210	 0.080372
C	 -1.183935	 0.486039	 -0.009831
C	 0.062853	 -0.375310	 0.027457
H	 -1.178881	 1.094526	 -0.908634
H	 -1.184406	 1.155156	 0.838676
O	 -0.327560	 -1.709110	 0.030044
H	 0.647059	 -0.145985	 0.920211
H	 0.685338	 -0.151339	 -0.836212
C	 0.721985	 -2.619973	 0.032139
H	 1.346645	 -2.504517	 0.915171
H	 0.298133	 -3.613469	 0.033313
H	 1.348183	 -2.506574	 -0.849641

	symmetry c1
}
set optking {
	frozen_dihedral = ("
		8 4 3 5
	")
}

ee,wfn = optimize('scf', return_wfn=True)
oeprop( wfn, 'DIPOLE', 'QUADRUPOLE', 'MULLIKEN_CHARGES')
f=open( 'psi4out.xyz', 'w' )
f.write( "13  " )
f.write( str(ee) + "\n" )
f.write( MOL.save_string_xyz() )
f.close()
--------------------------------------------------------------------------

    Molecular point group: c1
  Charge       = 0
  Multiplicity = 1
  Basis Set: CC-PVTZ
  Basis Set:
  @DF-RHF Final Energy:  -268.04923527708058
    Total Energy =                       -268.0492352770805269
    Molecular point group: c1
  Basis Set: CC-PVTZ
  Basis Set:
  Basis Set: CC-PVTZ
  Basis Set:
  @DF-RHF Final Energy:  -268.05076685074971
    Total Energy =                       -268.0507668507495964
  Basis Set: CC-PVTZ
  Basis Set:
  Basis Set: CC-PVTZ
  Basis Set:
  @DF-RHF Final Energy:  -268.05266578178168
    Total Energy =                       -268.0526657817818545
  Basis Set: CC-PVTZ
  Basis Set:
  Basis Set: CC-PVTZ
  Basis Set:
  @DF-RHF Final Energy:  -268.05317141672595
    Total Energy =                       -268.0531714167260589
  Basis Set: CC-PVTZ
  Basis Set:
  @DF-RHF Final Energy:  -268.05352995351541
    Total Energy =                       -268.0535299535152944
  @DF-RHF Final Energy:  -268.05428642097843
    Total Energy =                       -268.0542864209783147
  @DF-RHF Final Energy:  -268.05372299558712
    Total Energy =                       -268.0537229955870657
  @DF-RHF Final Energy:  -268.05497790868543
    Total Energy =                       -268.0549779086854869
  Basis Set: CC-PVTZ
  Basis Set:
  @DF-RHF Final Energy:  -268.05509255307066
    Total Energy =                       -268.0550925530707218
  Basis Set: CC-PVTZ
  Basis Set:
  Basis Set: CC-PVTZ
  Basis Set:
  @DF-RHF Final Energy:  -268.05512132100318
    Total Energy =                       -268.0551213210031278
  Basis Set: CC-PVTZ
  Basis Set:
  Basis Set: CC-PVTZ
  Basis Set:
  @DF-RHF Final Energy:  -268.05512297517282
    Total Energy =                       -268.0551229751727078
  Basis Set: CC-PVTZ
  Basis Set:
  Charge       = 0
  Multiplicity = 1
  Basis Set: CC-PVTZ
  Basis Set:

    Orbital Energies (a.u.)
    -----------------------

    Doubly Occupied:

       1A    -20.568787     2A    -20.533215     3A    -11.278972
       4A    -11.276691     5A    -11.266846     6A     -1.405925
       7A     -1.351774     8A     -1.017162     9A     -0.929018
      10A     -0.837404    11A     -0.701010    12A     -0.692208
      13A     -0.672309    14A     -0.625274    15A     -0.607931
      16A     -0.570427    17A     -0.548448    18A     -0.500339
      19A     -0.475377    20A     -0.451473    21A     -0.413645

  @DF-RHF Final Energy:  -268.05512309827054

   => Energetics <=

    Nuclear Repulsion Energy =            195.1788896749277740
    One-Electron Energy =                -753.0195537049946779
    Two-Electron Energy =                 289.7855409317963336
    DFT Exchange-Correlation Energy =       0.0000000000000000
    Empirical Dispersion Energy =           0.0000000000000000
    PCM Polarization Energy =               0.0000000000000000
    EFP Energy =                            0.0000000000000000
    Total Energy =                       -268.0551230982705988
    Molecular point group: c1
  Basis Set: CC-PVTZ
  Basis Set:

  -Total Gradient:
     Atom            X                  Y                   Z
    ------   -----------------  -----------------  -----------------
       1       -0.000002690030     0.000013659162     0.000000619572
       2       -0.000020955415    -0.000026016857     0.000004902871
       3       -0.001026126436    -0.001492111218    -0.001522148948
       4       -0.001108604224    -0.001459706606     0.001611330958
       5        0.001074136302     0.001518254829     0.001017540858
       6       -0.000003268201    -0.000010723831    -0.000006987403
       7       -0.000015800640    -0.000001221799     0.000006189068
       8        0.001097737094     0.001451434436    -0.001110856645
       9       -0.000004102616     0.000002398566     0.000003383205
      10        0.000019460268    -0.000002136609    -0.000004957478
      11       -0.000003660481     0.000000124986    -0.000000686372
      12       -0.000005513562     0.000005892649     0.000001336925
      13       -0.000000612066     0.000000152292     0.000000333390

  **** Optimization is complete! (in 12 steps) ****
    Final optimized geometry and variables:
    Molecular point group: c1

    Geometry (in Angstrom), charge = 0, multiplicity = 1:

    H           -1.583221949880    -0.198048378222    -0.060070259550
    O           -1.755048898251     0.722908030342     0.027642202354
    C           -0.551075112924     1.418690202503    -0.051548387617
    C            0.699556659303     0.510233872264    -0.001378925351
    H           -0.526025692737     2.009461220616    -0.961143801799
    H           -0.511545952542     2.118170914970     0.775007300654
    O            0.311390616217    -0.827678355344     0.000404725268
    H            1.294381539902     0.731356635308     0.880997144897
    H            1.330306578374     0.705544277292    -0.865273086852
    C            1.363023865922    -1.738341522594     0.026449617393
    H            1.969602053425    -1.613513295854     0.919407869106
    H            0.939258171121    -2.731554331134     0.026968017001
    H            2.001913826474    -1.627869754063    -0.845752892819

  Mulliken Charges: (a.u.)
   Center  Symbol    Alpha    Beta     Spin     Total
       1     H     0.38090  0.38090  0.00000  0.23821
       2     O     4.20805  4.20805  0.00000 -0.41610
       3     C     2.95370  2.95370  0.00000  0.09260
       4     C     2.97224  2.97224  0.00000  0.05552
       5     H     0.47593  0.47593  0.00000  0.04813
       6     H     0.47236  0.47236  0.00000  0.05528
       7     O     4.18017  4.18017  0.00000 -0.36034
       8     H     0.47166  0.47166  0.00000  0.05667
       9     H     0.47224  0.47224  0.00000  0.05552
      10     C     3.03164  3.03164  0.00000 -0.06327
      11     H     0.46765  0.46765  0.00000  0.06470
      12     H     0.44546  0.44546  0.00000  0.10907
      13     H     0.46801  0.46801  0.00000  0.06398

   Total alpha = 21.00000, Total beta = 21.00000, Total charge = -0.00000

*** Psi4 exiting successfully. Buy a developer a beer!
