                              Psi4 1.0.54 Driver

  ==> Input File <==

--------------------------------------------------------------------------
set {
	reference rhf
	basis cc-pvtz
}

set_num_threads( 4 )
memory 2 gb

molecule MOL {
0 1

H	 -1.123413	 4.002574	 0.283071
O	 -1.122172	 3.071697	 0.407651
C	 0.056734	 2.515718	 -0.114923
C	 0.027642	 1.012027	 0.090274
H	 0.925897	 2.926223	 0.392826
H	 0.153999	 2.755977	 -1.170042
C	 -1.138737	 0.285728	 -0.581921
H	 -0.006130	 0.820388	 1.157813
H	 0.969446	 0.607256	 -0.272190
C	 -1.933983	 -0.631436	 0.343653
H	 -0.763151	 -0.285569	 -1.422081
H	 -1.808359	 1.035291	 -0.992333
H	 -2.789188	 -1.049673	 -0.174718
H	 -1.335629	 -1.461368	 0.700418
H	 -2.305435	 -0.092167	 1.209725

	symmetry c1
}
set optking {
	frozen_dihedral = ("
		8 4 7 11
	")
}

ee,wfn = optimize('scf', return_wfn=True)
oeprop( wfn, 'DIPOLE', 'QUADRUPOLE', 'MULLIKEN_CHARGES')
f=open( 'psi4out.xyz', 'w' )
f.write( "15  " )
f.write( str(ee) + "\n" )
f.write( MOL.save_string_xyz() )
f.close()
--------------------------------------------------------------------------

    Molecular point group: c1
  Charge       = 0
  Multiplicity = 1
  Basis Set: CC-PVTZ
  Basis Set:
  @DF-RHF Final Energy:  -232.23376223078463
    Total Energy =                       -232.2337622307846914
    Molecular point group: c1
  Basis Set: CC-PVTZ
  Basis Set:
  Basis Set: CC-PVTZ
  Basis Set:
  @DF-RHF Final Energy:  -232.23435595144088
    Total Energy =                       -232.2343559514409890
  Basis Set: CC-PVTZ
  Basis Set:
  Basis Set: CC-PVTZ
  Basis Set:
  @DF-RHF Final Energy:  -232.23447109615259
    Total Energy =                       -232.2344710961526175
  Basis Set: CC-PVTZ
  Basis Set:
  Basis Set: CC-PVTZ
  Basis Set:
  @DF-RHF Final Energy:  -232.23447538704028
    Total Energy =                       -232.2344753870402769
  Basis Set: CC-PVTZ
  Basis Set:
  Basis Set: CC-PVTZ
  Basis Set:
  @DF-RHF Final Energy:  -232.23447787857259
    Total Energy =                       -232.2344778785726476
  Basis Set: CC-PVTZ
  Basis Set:
  Charge       = 0
  Multiplicity = 1
  Basis Set: CC-PVTZ
  Basis Set:

    Orbital Energies (a.u.)
    -----------------------

    Doubly Occupied:

       1A    -20.546856     2A    -11.266414     3A    -11.210260
       4A    -11.207628     5A    -11.200468     6A     -1.364755
       7A     -1.063141     8A     -0.974450     9A     -0.856329
      10A     -0.787304    11A     -0.708808    12A     -0.638549
      13A     -0.607812    14A     -0.595956    15A     -0.547438
      16A     -0.530567    17A     -0.511220    18A     -0.475846
      19A     -0.462097    20A     -0.456773    21A     -0.433452

  @DF-RHF Final Energy:  -232.23447798168030

   => Energetics <=

    Nuclear Repulsion Energy =            190.0019042111497924
    One-Electron Energy =                -691.5805190875462358
    Two-Electron Energy =                 269.3441368947161436
    DFT Exchange-Correlation Energy =       0.0000000000000000
    Empirical Dispersion Energy =           0.0000000000000000
    PCM Polarization Energy =               0.0000000000000000
    EFP Energy =                            0.0000000000000000
    Total Energy =                       -232.2344779816802998
    Molecular point group: c1
  Basis Set: CC-PVTZ
  Basis Set:

  -Total Gradient:
     Atom            X                  Y                   Z
    ------   -----------------  -----------------  -----------------
       1        0.000001155689    -0.000001581108     0.000006435577
       2        0.000001953361     0.000011973140    -0.000002342772
       3       -0.000004606969    -0.000002666658    -0.000008011238
       4       -0.001403335081     0.001733934154     0.000626723641
       5       -0.000000764620     0.000001574314    -0.000003395776
       6       -0.000001413895     0.000003115105    -0.000003439860
       7       -0.000021736847     0.001600528126    -0.001621451658
       8        0.001170120133    -0.001701053069    -0.000244626490
       9       -0.000000832581    -0.000005962675    -0.000006854619
      10       -0.000007703277    -0.000009737003     0.000010344702
      11        0.000249035778    -0.001633791934     0.001240300271
      12        0.000011987200    -0.000005737480     0.000006400519
      13        0.000003134220     0.000006880201     0.000000366440
      14        0.000004955959    -0.000002855713    -0.000006081714
      15       -0.000001949071     0.000005380600     0.000005632978

  **** Optimization is complete! (in 6 steps) ****
    Final optimized geometry and variables:
    Molecular point group: c1

    Geometry (in Angstrom), charge = 0, multiplicity = 1:

    H           -0.275385967908     2.700593126655     0.223376115987
    O           -0.251978923975     1.779567344752     0.405292978740
    C            0.891097783069     1.200448198804    -0.168862786428
    C            0.848797132319    -0.296590478954     0.062157389851
    H            1.790371721529     1.615324205001     0.279322499783
    H            0.927592973078     1.409790845714    -1.236279150486
    C           -0.323432796636    -1.006878998507    -0.642047489506
    H            0.810165956474    -0.479410607031     1.130656113172
    H            1.793078226945    -0.711279376067    -0.277285253001
    C           -1.098030356926    -1.944219901245     0.280313394117
    H            0.053704148612    -1.583374437196    -1.480387284908
    H           -1.006515559743    -0.269556474640    -1.044874926147
    H           -1.900647165383    -2.443017454306    -0.251467900099
    H           -0.450284525254    -2.710240326964     0.694866028555
    H           -1.534503863783    -1.395704659283     1.107408850194

  Mulliken Charges: (a.u.)
   Center  Symbol    Alpha    Beta     Spin     Total
       1     H     0.39530  0.39530  0.00000  0.20940
       2     O     4.19974  4.19974  0.00000 -0.39949
       3     C     2.97479  2.97479  0.00000  0.05041
       4     C     3.09183  3.09183  0.00000 -0.18367
       5     H     0.46443  0.46443  0.00000  0.07113
       6     H     0.47260  0.47260  0.00000  0.05480
       7     C     3.08266  3.08266  0.00000 -0.16531
       8     H     0.45302  0.45302  0.00000  0.09396
       9     H     0.45141  0.45141  0.00000  0.09719
      10     C     3.14841  3.14841  0.00000 -0.29682
      11     H     0.45435  0.45435  0.00000  0.09130
      12     H     0.45193  0.45193  0.00000  0.09613
      13     H     0.45170  0.45170  0.00000  0.09660
      14     H     0.45701  0.45701  0.00000  0.08597
      15     H     0.45080  0.45080  0.00000  0.09840

   Total alpha = 21.00000, Total beta = 21.00000, Total charge = -0.00000

*** Psi4 exiting successfully. Buy a developer a beer!
