                              Psi4 1.0.54 Driver

  ==> Input File <==

--------------------------------------------------------------------------
set {
	reference rhf
	basis cc-pvtz
}

set_num_threads( 4 )
memory 2 gb

molecule MOL {
0 1

H	 -3.863318	 0.392480	 1.378525
O	 -3.155188	 -0.163215	 1.110289
C	 -2.302264	 0.528872	 0.237390
C	 -1.175688	 -0.398187	 -0.171891
H	 -2.847350	 0.861101	 -0.643676
H	 -1.895919	 1.413262	 0.723772
C	 0.196029	 0.106276	 0.266738
H	 -1.201873	 -0.515469	 -1.250677
H	 -1.365975	 -1.378728	 0.252664
C	 1.330220	 -0.826136	 -0.155230
H	 0.359542	 1.097229	 -0.145561
H	 0.212134	 0.218135	 1.348778
C	 2.719700	 -0.407669	 0.328325
H	 1.339388	 -0.911200	 -1.239363
H	 1.119001	 -1.821953	 0.224128
C	 3.241564	 0.893452	 -0.276737
H	 3.418299	 -1.204729	 0.093035
H	 2.711776	 -0.323368	 1.411960
H	 3.254204	 0.841071	 -1.360784
H	 2.634460	 1.745075	 0.005842
H	 4.254264	 1.092401	 0.054971

	symmetry c1
}
set optking {
	frozen_dihedral = ("
		2 3 4 8
	")
}

ee,wfn = optimize('scf', return_wfn=True)
oeprop( wfn, 'DIPOLE', 'QUADRUPOLE', 'MULLIKEN_CHARGES')
f=open( 'psi4out.xyz', 'w' )
f.write( "21  " )
f.write( str(ee) + "\n" )
f.write( MOL.save_string_xyz() )
f.close()
--------------------------------------------------------------------------

    Molecular point group: c1
  Charge       = 0
  Multiplicity = 1
  Basis Set: CC-PVTZ
  Basis Set:
  @DF-RHF Final Energy:  -310.32691340044369
    Total Energy =                       -310.3269134004437433
    Molecular point group: c1
  Basis Set: CC-PVTZ
  Basis Set:
  Basis Set: CC-PVTZ
  Basis Set:
  @DF-RHF Final Energy:  -310.32726454847995
    Total Energy =                       -310.3272645484801728
  Basis Set: CC-PVTZ
  Basis Set:
  Basis Set: CC-PVTZ
  Basis Set:
  @DF-RHF Final Energy:  -310.32738282536860
    Total Energy =                       -310.3273828253686588
  Basis Set: CC-PVTZ
  Basis Set:
  Basis Set: CC-PVTZ
  Basis Set:
  @DF-RHF Final Energy:  -310.32738162721694
    Total Energy =                       -310.3273816272175054
  Basis Set: CC-PVTZ
  Basis Set:
  Basis Set: CC-PVTZ
  Basis Set:
  @DF-RHF Final Energy:  -310.32738432875948
    Total Energy =                       -310.3273843287593081
  Basis Set: CC-PVTZ
  Basis Set:
  Charge       = 0
  Multiplicity = 1
  Basis Set: CC-PVTZ
  Basis Set:

    Orbital Energies (a.u.)
    -----------------------

    Doubly Occupied:

       1A    -20.545134     2A    -11.265316     3A    -11.211960
       4A    -11.210939     5A    -11.209609     6A    -11.208881
       7A    -11.205290     8A     -1.362127     9A     -1.085195
      10A     -1.031588    11A     -0.953982    12A     -0.876688
      13A     -0.807500    14A     -0.777847    15A     -0.704131
      16A     -0.642389    17A     -0.631839    18A     -0.602929
      19A     -0.586035    20A     -0.572701    21A     -0.535940
      22A     -0.524433    23A     -0.508700    24A     -0.485697
      25A     -0.482689    26A     -0.460201    27A     -0.454885
      28A     -0.448433    29A     -0.426769

  @DF-RHF Final Energy:  -310.32738453654355

   => Energetics <=

    Nuclear Repulsion Energy =            313.5709325969042425
    One-Electron Energy =               -1042.1569796336832496
    Two-Electron Energy =                 418.2586625002352321
    DFT Exchange-Correlation Energy =       0.0000000000000000
    Empirical Dispersion Energy =           0.0000000000000000
    PCM Polarization Energy =               0.0000000000000000
    EFP Energy =                            0.0000000000000000
    Total Energy =                       -310.3273845365438319
    Molecular point group: c1
  Basis Set: CC-PVTZ
  Basis Set:

  -Total Gradient:
     Atom            X                  Y                   Z
    ------   -----------------  -----------------  -----------------
       1       -0.000012871779    -0.000003432395     0.000009044495
       2       -0.000315533709    -0.000166950629    -0.000497057763
       3        0.000322813194     0.000085111807     0.000628269890
       4        0.000513168110     0.000726609813    -0.000237468524
       5       -0.000005719126    -0.000002614080     0.000004141524
       6       -0.000006055435     0.000000442238     0.000006043406
       7       -0.000016051955    -0.000006525821     0.000013179409
       8       -0.000488231009    -0.000630590032     0.000080547377
       9        0.000003320596    -0.000000515372     0.000002796716
      10        0.000001057474     0.000004788248    -0.000012301542
      11       -0.000008562004    -0.000003681834     0.000003287789
      12       -0.000001698400    -0.000002981847     0.000002713250
      13        0.000002490449     0.000000522621     0.000000344401
      14        0.000001051202    -0.000002957414    -0.000002512149
      15        0.000004309300     0.000005049299    -0.000000038986
      16        0.000002008607    -0.000000813257    -0.000001717147
      17        0.000003041062    -0.000000455763     0.000001868873
      18       -0.000002908079     0.000000727265     0.000000507335
      19       -0.000000709673     0.000001306069    -0.000001993955
      20        0.000004232311    -0.000001736430     0.000001267525
      21        0.000000848863    -0.000001302483    -0.000000921924

  **** Optimization is complete! (in 6 steps) ****
    Final optimized geometry and variables:
    Molecular point group: c1

    Geometry (in Angstrom), charge = 0, multiplicity = 1:

    H           -3.936308172043     0.443421902240     1.152630042370
    O           -3.231709023600    -0.115449122067     0.880682004059
    C           -2.377232343891     0.580377896775     0.007145007479
    C           -1.228278604617    -0.344848765336    -0.405993668535
    H           -2.931671766920     0.911019414460    -0.866388965749
    H           -1.986498148119     1.467934599541     0.497732652547
    C            0.147350650137     0.138710502990     0.046602660088
    H           -1.229868510227    -0.477541462970    -1.482977536714
    H           -1.430920111223    -1.319201692164     0.021820621115
    C            1.271012068181    -0.814830394068    -0.352521808622
    H            0.332099006597     1.124776592767    -0.369019867183
    H            0.142557206280     0.256729714719     1.127698897124
    C            2.660066461826    -0.418979265012     0.151267644055
    H            1.296814614682    -0.906385974580    -1.436224693373
    H            1.035571205208    -1.804597399767     0.028548431793
    C            3.215922776425     0.868135299322    -0.453350858611
    H            3.347765396470    -1.230193314123    -0.067174600703
    H            2.635453601200    -0.327177483386     1.233905966621
    H            3.245059980908     0.808454950494    -1.536749292046
    H            2.620382643436     1.732666683768    -0.185881617984
    H            4.226732527374     1.050369557431    -0.106579882908

  Mulliken Charges: (a.u.)
   Center  Symbol    Alpha    Beta     Spin     Total
       1     H     0.39563  0.39563  0.00000  0.20873
       2     O     4.19760  4.19760  0.00000 -0.39520
       3     C     2.96530  2.96530  0.00000  0.06941
       4     C     3.09092  3.09092  0.00000 -0.18183
       5     H     0.47231  0.47231  0.00000  0.05539
       6     H     0.47559  0.47559  0.00000  0.04882
       7     C     3.09950  3.09950  0.00000 -0.19900
       8     H     0.45265  0.45265  0.00000  0.09470
       9     H     0.44476  0.44476  0.00000  0.11048
      10     C     3.09652  3.09652  0.00000 -0.19305
      11     H     0.45408  0.45408  0.00000  0.09184
      12     H     0.45105  0.45105  0.00000  0.09790
      13     C     3.08993  3.08993  0.00000 -0.17986
      14     H     0.45457  0.45457  0.00000  0.09086
      15     H     0.44811  0.44811  0.00000  0.10377
      16     C     3.15235  3.15235  0.00000 -0.30470
      17     H     0.44869  0.44869  0.00000  0.10263
      18     H     0.45445  0.45445  0.00000  0.09111
      19     H     0.45517  0.45517  0.00000  0.08965
      20     H     0.45426  0.45426  0.00000  0.09147
      21     H     0.44655  0.44655  0.00000  0.10690

   Total alpha = 29.00000, Total beta = 29.00000, Total charge = -0.00000

*** Psi4 exiting successfully. Buy a developer a beer!
