  ==> Input File <==

--------------------------------------------------------------------------
set {
	reference rhf
	basis 6-31G*
}

set_num_threads( 4 )
memory 2 gb

molecule MOL {
0 1

O	 0.652047	 -0.125326	 -0.494188
C	 1.705091	 0.115954	 0.001797
C	 2.069569	 1.398280	 0.709374
O	 2.721346	 -0.737485	 -0.000216
C	 0.933701	 2.416287	 0.742682
H	 2.391864	 1.134931	 1.713110
H	 2.947585	 1.804042	 0.214234
C	 1.329837	 3.704468	 1.465681
H	 0.069634	 1.972216	 1.226807
H	 0.626649	 2.642901	 -0.273523
C	 0.201729	 4.736618	 1.509221
H	 1.640127	 3.470125	 2.482932
H	 2.198236	 4.143678	 0.976947
C	 0.598524	 6.023983	 2.230674
H	 -0.665679	 4.300258	 1.999459
H	 -0.108731	 4.972397	 0.493760
H	 0.881474	 5.825377	 3.260582
H	 -0.221399	 6.735307	 2.244665
H	 1.443212	 6.502643	 1.743131
C	 4.024888	 -0.184556	 -0.001949
H	 4.179030	 0.422472	 -0.882452
H	 4.701782	 -1.024608	 -0.003642
H	 4.181981	 0.421185	 0.878906

	symmetry c1
}
set optking {
	frozen_dihedral = ("
		1 2 4 20
	")
}

ee = optimize('scf')
oeprop('DIPOLE', 'QUADRUPOLE', 'MULLIKEN_CHARGES')
f=open( 'psi4out.xyz', 'w' )
f.write( "23  " )
f.write( str(ee) + "\n" )
f.write( MOL.save_string_xyz() )
f.close()
--------------------------------------------------------------------------

    Molecular point group: c1
  Charge       = 0
  Multiplicity = 1
  Basis Set: 6-31G*
  Basis Set:
  @DF-RHF Final Energy:  -422.95055664750777
    Total Energy =                       -422.9505566475086198
    Molecular point group: c1
  Basis Set: 6-31G*
  Basis Set:
  Basis Set: 6-31G*
  Basis Set:
  @DF-RHF Final Energy:  -422.95024080343183
    Total Energy =                       -422.9502408034318250
  Basis Set: 6-31G*
  Basis Set:
  Basis Set: 6-31G*
  Basis Set:
  @DF-RHF Final Energy:  -422.95777911488335
    Total Energy =                       -422.9577791148828965
  Basis Set: 6-31G*
  Basis Set:
  Basis Set: 6-31G*
  Basis Set:
  @DF-RHF Final Energy:  -422.95911076669989
    Total Energy =                       -422.9591107666994958
  Basis Set: 6-31G*
  Basis Set:
  @DF-RHF Final Energy:  -422.95827046592643
    Total Energy =                       -422.9582704659266028
  Basis Set: 6-31G*
  Basis Set:
  @DF-RHF Final Energy:  -422.95938420907623
    Total Energy =                       -422.9593842090763474
  Basis Set: 6-31G*
  Basis Set:
  Basis Set: 6-31G*
  Basis Set:
  @DF-RHF Final Energy:  -422.95951196917474
    Total Energy =                       -422.9595119691742866
  Basis Set: 6-31G*
  Basis Set:
  Basis Set: 6-31G*
  Basis Set:
  @DF-RHF Final Energy:  -422.95951300956631
    Total Energy =                       -422.9595130095656259
  Basis Set: 6-31G*
  Basis Set:
  Charge       = 0
  Multiplicity = 1
  Basis Set: 6-31G*
  Basis Set:

    Orbital Energies (a.u.)
    -----------------------

    Doubly Occupied:

       1A    -20.598114     2A    -20.543494     3A    -11.373943
       4A    -11.295979     5A    -11.244831     6A    -11.223539
       7A    -11.221793     8A    -11.219254     9A    -11.212124
      10A     -1.461666    11A     -1.365917    12A     -1.096336
      13A     -1.041750    14A     -0.985426    15A     -0.951942
      16A     -0.854090    17A     -0.799191    18A     -0.766339
      19A     -0.699512    20A     -0.687066    21A     -0.672877
      22A     -0.654928    23A     -0.614657    24A     -0.604395
      25A     -0.580101    26A     -0.568645    27A     -0.560089
      28A     -0.539066    29A     -0.514679    30A     -0.508838
      31A     -0.489627    32A     -0.473047    33A     -0.469323
      34A     -0.466080    35A     -0.447882    36A     -0.430267

  @DF-RHF Final Energy:  -422.95951309973231

   => Energetics <=

    Nuclear Repulsion Energy =            454.5457868149905494
    One-Electron Energy =               -1476.5369896703793984
    Two-Electron Energy =                 599.0316897556563163
    DFT Exchange-Correlation Energy =       0.0000000000000000
    Empirical Dispersion Energy =           0.0000000000000000
    PCM Polarization Energy =               0.0000000000000000
    EFP Energy =                            0.0000000000000000
    Total Energy =                       -422.9595130997324759
    Molecular point group: c1
  Basis Set: 6-31G*
  Basis Set:

  -Total Gradient:
     Atom            X                  Y                   Z
    ------   -----------------  -----------------  -----------------
       1        0.001183237725     0.001109198201    -0.002770522549
       2       -0.001659000358    -0.001606283157     0.002474756019
       3        0.000011287935    -0.000005849806    -0.000010322845
       4        0.000456571117     0.000506703334     0.003060205999
       5       -0.000008383412    -0.000005118151     0.000014044519
       6       -0.000004058534     0.000001802991    -0.000006176286
       7       -0.000001082848    -0.000006876849    -0.000005617971
       8        0.000000664189     0.000004394072    -0.000005862939
       9        0.000003704579    -0.000002964275    -0.000000290533
      10       -0.000001285281     0.000002401289     0.000003126713
      11        0.000001673973     0.000005461996    -0.000004772989
      12       -0.000002334859    -0.000001381479    -0.000000436659
      13        0.000001608907    -0.000000000303     0.000001439223
      14       -0.000001269585    -0.000000498943     0.000001290667
      15        0.000000826847    -0.000000461249    -0.000000908887
      16       -0.000000458428     0.000001442160    -0.000000979705
      17        0.000001105717     0.000000084853     0.000000484658
      18       -0.000000213433    -0.000000582043     0.000001196339
      19       -0.000000909614     0.000000124976    -0.000000680920
      20        0.000003983178    -0.000006723906    -0.002747620168
      21        0.000011595915     0.000007798573    -0.000001915004
      22        0.000005131722     0.000003641637     0.000008289846
      23       -0.000002395452    -0.000006313916    -0.000008726525

  **** Optimization is complete! (in 9 steps) ****
    Final optimized geometry and variables:
    Molecular point group: c1

    Geometry (in Angstrom), charge = 0, multiplicity = 1:

    O           -0.874872667211    -1.926609307762    -1.217671848287
    C            0.167559879660    -1.720898446150    -0.697330425904
    C            0.512166777993    -0.421155028080     0.002753984308
    O            1.099317723867    -2.683418986284    -0.689329845697
    C           -0.670853553085     0.540579245533     0.083280666381
    H            0.882315133879    -0.660636821016     0.996580118456
    H            1.341150212181     0.048864873779    -0.520818521602
    C           -0.308560296957     1.845966300452     0.792958759360
    H           -1.491114268864     0.053313265631     0.600210475976
    H           -1.027627608337     0.749566004366    -0.919455610795
    C           -1.483274337935     2.821663972920     0.882935974229
    H            0.052562527410     1.627681205885     1.796992315761
    H            0.517090223932     2.327924074149     0.270983379873
    C           -1.121860917457     4.126388344045     1.591637823645
    H           -2.308231401717     2.342924114496     1.405524219272
    H           -1.844232815522     3.042329258075    -0.119007176473
    H           -0.789090582795     3.941298926879     2.609138064393
    H           -1.974587236833     4.796271468967     1.639817966259
    H           -0.321831014793     4.646652032155     1.072391185408
    C            2.475672651133    -2.384780447486    -0.683031028002
    H            2.742867596805    -1.751662994762    -1.520693648251
    H            2.983302555195    -3.331449578789    -0.782420309484
    H            2.785133862903    -1.913802988120     0.241635431002

  Mulliken Charges: (a.u.)
   Center  Symbol    Alpha    Beta     Spin     Total
       1     O     4.26271  4.26271  0.00000 -0.52542
       2     C     2.60071  2.60071  0.00000  0.79858
       3     C     3.23193  3.23193  0.00000 -0.46386
       4     O     4.30553  4.30553  0.00000 -0.61106
       5     C     3.14933  3.14933  0.00000 -0.29866
       6     H     0.40275  0.40275  0.00000  0.19451
       7     H     0.40509  0.40509  0.00000  0.18982
       8     C     3.15377  3.15377  0.00000 -0.30755
       9     H     0.40981  0.40981  0.00000  0.18039
      10     H     0.40839  0.40839  0.00000  0.18321
      11     C     3.15189  3.15189  0.00000 -0.30378
      12     H     0.42441  0.42441  0.00000  0.15118
      13     H     0.42506  0.42506  0.00000  0.14988
      14     C     3.23970  3.23970  0.00000 -0.47940
      15     H     0.42047  0.42047  0.00000  0.15905
      16     H     0.42059  0.42059  0.00000  0.15881
      17     H     0.42182  0.42182  0.00000  0.15636
      18     H     0.41776  0.41776  0.00000  0.16447
      19     H     0.42199  0.42199  0.00000  0.15601
      20     C     3.09420  3.09420  0.00000 -0.18840
      21     H     0.41578  0.41578  0.00000  0.16843
      22     H     0.39858  0.39858  0.00000  0.20284
      23     H     0.41772  0.41772  0.00000  0.16457

   Total alpha = 36.00000, Total beta = 36.00000, Total charge = -0.00000
