  ==> Input File <==

--------------------------------------------------------------------------
set {
	reference rhf
	basis 6-31G*
}

set_num_threads( 4 )
memory 2 gb

molecule MOL {
0 1

H	 -0.216825	 0.021369	 -3.357402
C	 0.374198	 0.036393	 -2.447010
C	 -0.521757	 -0.028637	 -1.217342
H	 0.969602	 0.942322	 -2.434777
H	 1.053364	 -0.811668	 -2.481329
N	 0.263400	 0.031178	 0.000000
H	 -1.199035	 0.820290	 -1.219355
H	 -1.147901	 -0.924895	 -1.265384
C	 -0.521757	 -0.028637	 1.217342
H	 0.935769	 -0.712709	 0.000000
C	 0.034161	 -1.075841	 2.173044
H	 -0.480163	 0.948552	 1.689313
H	 -1.578767	 -0.233580	 1.021454
H	 1.069746	 -0.860422	 2.410788
H	 -0.536649	 -1.098905	 3.096078
H	 -0.010144	 -2.069110	 1.733606

	symmetry c1
}
set optking {
	frozen_dihedral = ("
		12 9 6 3
	")
}

ee = optimize('scf')
oeprop('DIPOLE', 'QUADRUPOLE', 'MULLIKEN_CHARGES')
f=open( 'psi4out.xyz', 'w' )
f.write( "16  " )
f.write( str(ee) + "\n" )
f.write( MOL.save_string_xyz() )
f.close()
--------------------------------------------------------------------------

    Molecular point group: c1
  Charge       = 0
  Multiplicity = 1
  Basis Set: 6-31G*
  Basis Set:
  @DF-RHF Final Energy:  -212.30818658196870
    Total Energy =                       -212.3081865819688119
    Molecular point group: c1
  Basis Set: 6-31G*
  Basis Set:
  Basis Set: 6-31G*
  Basis Set:
  @DF-RHF Final Energy:  -212.30862623555711
    Total Energy =                       -212.3086262355572558
  Basis Set: 6-31G*
  Basis Set:
  Basis Set: 6-31G*
  Basis Set:
  @DF-RHF Final Energy:  -212.30872755581032
    Total Energy =                       -212.3087275558103784
  Basis Set: 6-31G*
  Basis Set:
  Basis Set: 6-31G*
  Basis Set:
  @DF-RHF Final Energy:  -212.30873001496087
    Total Energy =                       -212.3087300149606449
  Basis Set: 6-31G*
  Basis Set:
  Charge       = 0
  Multiplicity = 1
  Basis Set: 6-31G*
  Basis Set:

    Orbital Energies (a.u.)
    -----------------------

    Doubly Occupied:

       1A    -15.531208     2A    -11.240610     3A    -11.240277
       4A    -11.213812     5A    -11.207714     6A     -1.201706
       7A     -1.028665     8A     -0.963464     9A     -0.836014
      10A     -0.822095    11A     -0.645613    12A     -0.628112
      13A     -0.619012    14A     -0.581870    15A     -0.553550
      16A     -0.522301    17A     -0.506859    18A     -0.495228
      19A     -0.486453    20A     -0.471690    21A     -0.354389

  @DF-RHF Final Energy:  -212.30873061975899

   => Energetics <=

    Nuclear Repulsion Energy =            189.4452269084870863
    One-Electron Energy =                -661.2066289175552356
    Two-Electron Energy =                 259.4526713893091028
    DFT Exchange-Correlation Energy =       0.0000000000000000
    Empirical Dispersion Energy =           0.0000000000000000
    PCM Polarization Energy =               0.0000000000000000
    EFP Energy =                            0.0000000000000000
    Total Energy =                       -212.3087306197590465
    Molecular point group: c1
  Basis Set: 6-31G*
  Basis Set:

  -Total Gradient:
     Atom            X                  Y                   Z
    ------   -----------------  -----------------  -----------------
       1        0.000005962364    -0.000000697086    -0.000016654198
       2       -0.000006641229    -0.000001447462    -0.000013325856
       3        0.000160043493    -0.002031217085    -0.000019035130
       4       -0.000005738019    -0.000004691323     0.000004995275
       5       -0.000002242914     0.000002646288     0.000000305629
       6        0.000343481665     0.002736927020     0.000340373387
       7        0.000007666942    -0.000001238440     0.000013437918
       8        0.000006072161     0.000005139129     0.000006599215
       9       -0.002631897758     0.000001756123    -0.001622115058
      10        0.000002423759    -0.000001887030    -0.000007340481
      11        0.000004016711     0.000018527949    -0.000005187495
      12        0.002147980663    -0.000748377132     0.001284014812
      13       -0.000017162936     0.000003020149     0.000030972753
      14        0.000000286484    -0.000003009396    -0.000009244706
      15       -0.000010129882     0.000001105853     0.000014286363
      16       -0.000004121504     0.000023442443    -0.000002082428

  **** Optimization is complete! (in 5 steps) ****
    Final optimized geometry and variables:
    Molecular point group: c1

    Geometry (in Angstrom), charge = 0, multiplicity = 1:

    H           -0.140042129486     0.250654019279    -3.312096199375
    C            0.446512955283     0.269589836799    -2.398824792713
    C           -0.454655233745     0.201816255581    -1.173555354906
    H            1.037667977020     1.178200797752    -2.384639946835
    H            1.130034303395    -0.575333382238    -2.428853922388
    N            0.327341193485     0.261266193728     0.046618238212
    H           -1.133479123466     1.049310519302    -1.180780410504
    H           -1.078858223512    -0.695571264831    -1.224772131580
    C           -0.445296301826     0.197410013516     1.283324793394
    H            1.009646662782    -0.470910915318     0.033988200316
    C            0.101334480801    -0.850417602870     2.248335318044
    H           -0.415717450725     1.165260985121     1.776514676151
    H           -1.489605124530    -0.024485732264     1.072810740270
    H            1.145224304573    -0.654713937073     2.476273829553
    H           -0.449671378050    -0.841414751872     3.183338224713
    H            0.029050173878    -1.848822433625     1.825333303866

  Mulliken Charges: (a.u.)
   Center  Symbol    Alpha    Beta     Spin     Total
       1     H     0.42031  0.42031  0.00000  0.15939
       2     C     3.24283  3.24283  0.00000 -0.48567
       3     C     3.05478  3.05478  0.00000 -0.10956
       4     H     0.41172  0.41172  0.00000  0.17657
       5     H     0.42518  0.42518  0.00000  0.14964
       6     N     3.85565  3.85565  0.00000 -0.71130
       7     H     0.41981  0.41981  0.00000  0.16037
       8     H     0.43566  0.43566  0.00000  0.12867
       9     C     3.04331  3.04331  0.00000 -0.08662
      10     H     0.33241  0.33241  0.00000  0.33518
      11     C     3.25573  3.25573  0.00000 -0.51147
      12     H     0.41960  0.41960  0.00000  0.16080
      13     H     0.42757  0.42757  0.00000  0.14486
      14     H     0.41652  0.41652  0.00000  0.16697
      15     H     0.41700  0.41700  0.00000  0.16599
      16     H     0.42191  0.42191  0.00000  0.15617

   Total alpha = 21.00000, Total beta = 21.00000, Total charge =  0.00000
