  ==> Input File <==

--------------------------------------------------------------------------
set {
	reference rhf
	basis 6-31G*
}

set_num_threads( 1 )
memory 2 gb

molecule MOL {
0 1

O	 0.749854	 1.307668	 -0.000040
C	 0.576249	 0.131685	 -0.000108
C	 -0.766779	 -0.556801	 -0.000461
O	 1.568443	 -0.749345	 -0.000005
C	 -1.945214	 0.412366	 0.000161
H	 -0.796911	 -1.211249	 -0.867467
H	 -0.796854	 -1.212390	 0.865687
C	 -2.744455	 0.344436	 -1.300288
H	 -1.578955	 1.421213	 0.157276
H	 -2.590677	 0.190496	 0.843206
H	 -2.126312	 0.593950	 -2.158248
H	 -3.576528	 1.040598	 -1.279951
H	 -3.150178	 -0.650055	 -1.464146
C	 2.886820	 -0.232538	 0.000322
H	 3.059106	 0.369571	 -0.880203
H	 3.540187	 -1.091012	 0.000050
H	 3.059019	 0.368956	 0.881266

	symmetry c1
}
set optking {
	frozen_dihedral = ("
		1 2 3 6,
		14 4 2 1
	")
}

ee = energy('scf')
oeprop('DIPOLE', 'QUADRUPOLE', 'MULLIKEN_CHARGES')
f=open( 'psi4out.xyz', 'w' )
f.write( "17  " )
f.write( str(ee) + "\n" )
f.write( MOL.save_string_xyz() )
f.close()
--------------------------------------------------------------------------

    Molecular point group: c1

    Geometry (in Angstrom), charge = 0, multiplicity = 1:

       Center              X                  Y                   Z               Mass
    ------------   -----------------  -----------------  -----------------  -----------------
           O          0.669872929542     1.210294023115     0.191383952305    15.994914619560
           C          0.496267929542     0.034311023115     0.191315952305    12.000000000000
           C         -0.846760070458    -0.654174976885     0.190962952305    12.000000000000
           O          1.488461929542    -0.846718976885     0.191418952305    15.994914619560
           C         -2.025195070458     0.314992023115     0.191584952305    12.000000000000
           H         -0.876892070458    -1.308622976885    -0.676043047695     1.007825032070
           H         -0.876835070458    -1.309763976885     1.057110952305     1.007825032070
           C         -2.824436070458     0.247062023115    -1.108864047695    12.000000000000
           H         -1.658936070458     1.323839023115     0.348699952305     1.007825032070
           H         -2.670658070458     0.093122023115     1.034629952305     1.007825032070
           H         -2.206293070458     0.496576023115    -1.966824047695     1.007825032070
           H         -3.656509070458     0.943224023115    -1.088527047695     1.007825032070
           H         -3.230159070458    -0.747428976885    -1.272722047695     1.007825032070
           C          2.806838929542    -0.329911976885     0.191745952305    12.000000000000
           H          2.979124929542     0.272197023115    -0.688779047695     1.007825032070
           H          3.460205929542    -1.188385976885     0.191473952305     1.007825032070
           H          2.979037929542     0.271582023115     1.072689952305     1.007825032070

  Charge       = 0
  Multiplicity = 1
  Basis Set: 6-31G*
  Basis Set:

    Orbital Energies (a.u.)
    -----------------------

    Doubly Occupied:

       1A    -20.604767     2A    -20.546829     3A    -11.373448
       4A    -11.281518     5A    -11.234430     6A    -11.217628
       7A    -11.211917     8A     -1.470521     9A     -1.364364
      10A     -1.079518    11A     -1.000402    12A     -0.938604
      13A     -0.828207    14A     -0.766565    15A     -0.704327
      16A     -0.682059    17A     -0.673349    18A     -0.625708
      19A     -0.605812    20A     -0.569400    21A     -0.568622
      22A     -0.532844    23A     -0.524523    24A     -0.487470
      25A     -0.484698    26A     -0.473683    27A     -0.458079
      28A     -0.441041

  @DF-RHF Final Energy:  -344.90190685875746

   => Energetics <=

    Nuclear Repulsion Energy =            314.8487890776115137
    One-Electron Energy =               -1094.0006864502345252
    Two-Electron Energy =                 434.2499905138658391
    DFT Exchange-Correlation Energy =       0.0000000000000000
    Empirical Dispersion Energy =           0.0000000000000000
    PCM Polarization Energy =               0.0000000000000000
    EFP Energy =                            0.0000000000000000
    Total Energy =                       -344.9019068587571724

  Mulliken Charges: (a.u.)
   Center  Symbol    Alpha    Beta     Spin     Total
       1     O     4.28457  4.28457  0.00000 -0.56913
       2     C     2.61163  2.61163  0.00000  0.77673
       3     C     3.20966  3.20966  0.00000 -0.41933
       4     O     4.30540  4.30540  0.00000 -0.61080
       5     C     3.16245  3.16245  0.00000 -0.32489
       6     H     0.39781  0.39781  0.00000  0.20438
       7     H     0.39741  0.39741  0.00000  0.20519
       8     C     3.24313  3.24313  0.00000 -0.48627
       9     H     0.39237  0.39237  0.00000  0.21526
      10     H     0.41864  0.41864  0.00000  0.16273
      11     H     0.41854  0.41854  0.00000  0.16293
      12     H     0.41728  0.41728  0.00000  0.16545
      13     H     0.42255  0.42255  0.00000  0.15490
      14     C     3.09232  3.09232  0.00000 -0.18464
      15     H     0.40898  0.40898  0.00000  0.18203
      16     H     0.40832  0.40832  0.00000  0.18335
      17     H     0.40894  0.40894  0.00000  0.18211

   Total alpha = 28.00000, Total beta = 28.00000, Total charge = -0.00000
