  ==> Input File <==

--------------------------------------------------------------------------
set {
	reference rhf
	basis 6-31G*
}

set_num_threads( 4 )
memory 2 gb

molecule MOL {
0 1

H	 0.011768	 -0.304121	 -0.669204
N	 -0.626943	 -0.667432	 -0.000092
C	 -1.979713	 -0.158776	 0.000050
C	 -0.186146	 -1.614273	 0.863247
H	 -2.520245	 -0.492427	 -0.879443
H	 -1.934741	 0.918111	 -0.004428
H	 -2.517790	 -0.485056	 0.883818
C	 1.268585	 -2.000298	 0.685125
O	 -0.882313	 -2.112532	 1.704262
H	 1.913316	 -1.138508	 0.826523
H	 1.520445	 -2.757715	 1.412161
H	 1.442516	 -2.388987	 -0.313376

	symmetry c1
}
set optking {
	frozen_dihedral = ("
		4 2 3 5
	")
}

ee = optimize('scf')
oeprop('DIPOLE', 'QUADRUPOLE', 'MULLIKEN_CHARGES')
f=open( 'psi4out.xyz', 'w' )
f.write( "12  " )
f.write( str(ee) + "\n" )
f.write( MOL.save_string_xyz() )
f.close()
--------------------------------------------------------------------------

    Molecular point group: c1
  Charge       = 0
  Multiplicity = 1
  Basis Set: 6-31G*
  Basis Set:
  @DF-RHF Final Energy:  -247.00499390974326
    Total Energy =                       -247.0049939097432343
    Molecular point group: c1
  Basis Set: 6-31G*
  Basis Set:
  Basis Set: 6-31G*
  Basis Set:
  @DF-RHF Final Energy:  -247.00541568161123
    Total Energy =                       -247.0054156816112254
  Basis Set: 6-31G*
  Basis Set:
  Basis Set: 6-31G*
  Basis Set:
  @DF-RHF Final Energy:  -247.00543575706456
    Total Energy =                       -247.0054357570646744
  Basis Set: 6-31G*
  Basis Set:
  Basis Set: 6-31G*
  Basis Set:
  @DF-RHF Final Energy:  -247.00547508511659
    Total Energy =                       -247.0054750851167569
  Basis Set: 6-31G*
  Basis Set:
  Basis Set: 6-31G*
  Basis Set:
  @DF-RHF Final Energy:  -247.00548592516566
    Total Energy =                       -247.0054859251655444
  Basis Set: 6-31G*
  Basis Set:
  Basis Set: 6-31G*
  Basis Set:
  @DF-RHF Final Energy:  -247.00548820660475
    Total Energy =                       -247.0054882066049231
  Basis Set: 6-31G*
  Basis Set:
  Basis Set: 6-31G*
  Basis Set:
  @DF-RHF Final Energy:  -247.00548939636818
    Total Energy =                       -247.0054893963679206
  Basis Set: 6-31G*
  Basis Set:
  Charge       = 0
  Multiplicity = 1
  Basis Set: 6-31G*
  Basis Set:

    Orbital Energies (a.u.)
    -----------------------

    Doubly Occupied:

       1A    -20.515937     2A    -15.581249     3A    -11.343144
       4A    -11.253710     5A    -11.229687     6A     -1.384189
       7A     -1.228028     8A     -1.015699     9A     -0.931551
      10A     -0.786398    11A     -0.689184    12A     -0.648037
      13A     -0.632172    14A     -0.585855    15A     -0.579694
      16A     -0.554624    17A     -0.544090    18A     -0.507498
      19A     -0.412911    20A     -0.384174

  @DF-RHF Final Energy:  -247.00548972025547

   => Energetics <=

    Nuclear Repulsion Energy =            181.2699665248973133
    One-Electron Energy =                -694.9352490167673295
    Two-Electron Energy =                 266.6597927716144341
    DFT Exchange-Correlation Energy =       0.0000000000000000
    Empirical Dispersion Energy =           0.0000000000000000
    PCM Polarization Energy =               0.0000000000000000
    EFP Energy =                            0.0000000000000000
    Total Energy =                       -247.0054897202555821
    Molecular point group: c1
  Basis Set: 6-31G*
  Basis Set:

  -Total Gradient:
     Atom            X                  Y                   Z
    ------   -----------------  -----------------  -----------------
       1       -0.000017076715    -0.000007209493    -0.000021082465
       2       -0.000011351443    -0.000087477968    -0.000077367118
       3       -0.000026228201    -0.000051054227     0.000077493924
       4        0.000026300667     0.000081748288     0.000073604654
       5        0.000030114409     0.000081618536    -0.000049318412
       6       -0.000008222822     0.000000647574     0.000003854165
       7        0.000008316980    -0.000003865484    -0.000005188580
       8       -0.000016744235    -0.000040419336    -0.000033862342
       9        0.000006302194     0.000001253492     0.000010695314
      10       -0.000012909666     0.000009709626     0.000020172010
      11        0.000000479771    -0.000000073381     0.000000403627
      12        0.000021019060     0.000015122375     0.000000595223

  **** Optimization is complete! (in 8 steps) ****
    Final optimized geometry and variables:
    Molecular point group: c1

    Geometry (in Angstrom), charge = 0, multiplicity = 1:

    H            0.500310752726     0.977990425639    -1.330572532101
    N           -0.130285099349     0.643298141616    -0.639205305040
    C           -1.486579928939     1.142448122976    -0.652481151642
    C            0.302754532791    -0.310994935915     0.219946826670
    H           -2.019338814927     0.819760200954    -1.541394534010
    H           -1.492729765346     2.226206140250    -0.617912834805
    H           -1.996209918369     0.760250076763     0.217015076761
    C            1.753804680230    -0.709557576184     0.039537353629
    O           -0.396771212429    -0.803356050001     1.061597157606
    H            2.405570369199     0.149999155019     0.159905982591
    H            2.005505177244    -1.455736766882     0.778132518775
    H            1.917520386780    -1.118225599691    -0.952800937887

  Mulliken Charges: (a.u.)
   Center  Symbol    Alpha    Beta     Spin     Total
       1     H     0.31108  0.31108  0.00000  0.37784
       2     N     3.89148  3.89148  0.00000 -0.78296
       3     C     3.14204  3.14204  0.00000 -0.28409
       4     C     2.63070  2.63070  0.00000  0.73859
       5     H     0.41665  0.41665  0.00000  0.16670
       6     H     0.41670  0.41670  0.00000  0.16661
       7     H     0.38609  0.38609  0.00000  0.22783
       8     C     3.29524  3.29524  0.00000 -0.59048
       9     O     4.30239  4.30239  0.00000 -0.60479
      10     H     0.40772  0.40772  0.00000  0.18456
      11     H     0.39184  0.39184  0.00000  0.21632
      12     H     0.40806  0.40806  0.00000  0.18388

   Total alpha = 20.00000, Total beta = 20.00000, Total charge =  0.00000
