                              Psi4 1.0.54 Driver

  ==> Input File <==

--------------------------------------------------------------------------
set {
	reference rhf
	basis cc-pvtz
}

set_num_threads( 4 )
memory 2 gb

molecule MOL {
0 1

H	 2.899240	 -1.218285	 -0.129398
N	 3.091268	 -0.241216	 -0.065538
C	 1.860978	 0.530248	 0.016256
H	 3.615749	 0.009517	 -0.877573
C	 0.644130	 -0.381765	 -0.031064
H	 1.835721	 1.204666	 -0.833114
H	 1.808789	 1.151975	 0.911067
C	 -0.678115	 0.376691	 0.025731
H	 0.693998	 -0.977147	 -0.936845
H	 0.693309	 -1.082142	 0.800523
C	 -1.900706	 -0.535531	 -0.022488
H	 -0.725296	 1.079516	 -0.802982
H	 -0.715474	 0.974884	 0.933278
C	 -3.220513	 0.226854	 0.028039
H	 -1.865036	 -1.134397	 -0.928236
H	 -1.857948	 -1.236381	 0.806820
H	 -3.309098	 0.911849	 -0.808725
H	 -4.066838	 -0.449485	 -0.008086
H	 -3.301685	 0.809374	 0.939860

	symmetry c1
}
set optking {
	frozen_dihedral = ("
		1 2 3 6
	")
}

ee,wfn = optimize('scf', return_wfn=True)
oeprop( wfn, 'DIPOLE', 'QUADRUPOLE', 'MULLIKEN_CHARGES')
f=open( 'psi4out.xyz', 'w' )
f.write( "19  " )
f.write( str(ee) + "\n" )
f.write( MOL.save_string_xyz() )
f.close()
--------------------------------------------------------------------------

    Molecular point group: c1
  Charge       = 0
  Multiplicity = 1
  Basis Set: CC-PVTZ
  Basis Set:
  @DF-RHF Final Energy:  -251.44319325790863
    Total Energy =                       -251.4431932579088880
    Molecular point group: c1
  Basis Set: CC-PVTZ
  Basis Set:
  Basis Set: CC-PVTZ
  Basis Set:
  @DF-RHF Final Energy:  -251.44417879171547
    Total Energy =                       -251.4441787917155011
  Basis Set: CC-PVTZ
  Basis Set:
  Basis Set: CC-PVTZ
  Basis Set:
  @DF-RHF Final Energy:  -251.44433931966446
    Total Energy =                       -251.4443393196645502
  Basis Set: CC-PVTZ
  Basis Set:
  Basis Set: CC-PVTZ
  Basis Set:
  @DF-RHF Final Energy:  -251.44434233498478
    Total Energy =                       -251.4443423349845830
  Basis Set: CC-PVTZ
  Basis Set:
  Charge       = 0
  Multiplicity = 1
  Basis Set: CC-PVTZ
  Basis Set:

    Orbital Energies (a.u.)
    -----------------------

    Doubly Occupied:

       1A    -15.522803     2A    -11.237580     3A    -11.214508
       4A    -11.213763     5A    -11.213094     6A    -11.207278
       7A     -1.174906     8A     -1.076788     9A     -1.001429
      10A     -0.902217    11A     -0.818459    12A     -0.793651
      13A     -0.666424    14A     -0.644321    15A     -0.605595
      16A     -0.599781    17A     -0.566749    18A     -0.550659
      19A     -0.534426    20A     -0.498024    21A     -0.487895
      22A     -0.468151    23A     -0.465165    24A     -0.455887
      25A     -0.376660

  @DF-RHF Final Energy:  -251.44434278480577

   => Energetics <=

    Nuclear Repulsion Energy =            246.0376348856621576
    One-Electron Energy =                -826.3715338233914736
    Two-Electron Energy =                 328.8895561529237170
    DFT Exchange-Correlation Energy =       0.0000000000000000
    Empirical Dispersion Energy =           0.0000000000000000
    PCM Polarization Energy =               0.0000000000000000
    EFP Energy =                            0.0000000000000000
    Total Energy =                       -251.4443427848056558
    Molecular point group: c1
  Basis Set: CC-PVTZ
  Basis Set:

  -Total Gradient:
     Atom            X                  Y                   Z
    ------   -----------------  -----------------  -----------------
       1       -0.000003900298    -0.000031286448     0.000234586172
       2        0.000078726297     0.000040157448    -0.000236418950
       3       -0.000188855287    -0.000173022801    -0.000087939747
       4       -0.000012606570    -0.000002644455    -0.000025573609
       5        0.000071817962     0.000013053330    -0.000007179583
       6        0.000102687609     0.000147114201     0.000111446678
       7       -0.000020566230    -0.000004837542     0.000008422772
       8        0.000013491330     0.000000507055    -0.000000122008
       9        0.000011329861     0.000005453797     0.000003569998
      10       -0.000006419134     0.000002684756    -0.000016154864
      11       -0.000019017775     0.000015526649     0.000011735915
      12        0.000005442253    -0.000009623424     0.000001681968
      13       -0.000010257039     0.000001100274    -0.000007100521
      14       -0.000019729016    -0.000014440456     0.000007416443
      15        0.000006402694     0.000009227680     0.000002269958
      16       -0.000002563397    -0.000001810459    -0.000001600060
      17        0.000003856923    -0.000002648963     0.000000849673
      18       -0.000009428696     0.000004873100     0.000000947211
      19       -0.000000411491     0.000000616259    -0.000000837446

  **** Optimization is complete! (in 5 steps) ****
    Final optimized geometry and variables:
    Molecular point group: c1

    Geometry (in Angstrom), charge = 0, multiplicity = 1:

    H            2.960646515370    -1.212361136546    -0.185852287796
    N            3.117981500283    -0.229913105995    -0.132591556215
    C            1.864436754885     0.517964523200    -0.086750045161
    H            3.680536005450     0.029043045883    -0.911802715174
    C            0.637347057416    -0.383997145621    -0.073769177416
    H            1.799369972073     1.195694091876    -0.933067001014
    H            1.852622781121     1.139166490774     0.804014107386
    C           -0.673868726916     0.383656394722     0.060118269276
    H            0.622374897386    -0.976209175225    -0.985859595350
    H            0.729337034427    -1.086941632538     0.751340156060
    C           -1.904631242227    -0.518682560440     0.078727747390
    H           -0.762378260112     1.091118762382    -0.761094536179
    H           -0.651875721500     0.976556852450     0.971013009261
    C           -3.212359715967     0.254172188299     0.213334448798
    H           -1.928900794317    -1.111247969074    -0.831746705065
    H           -1.818236017158    -1.225498148643     0.899397973340
    H           -3.344861227797     0.945984001525    -0.611913430090
    H           -4.065037018498    -0.415007327380     0.223425632690
    H           -3.233462316347     0.830417477225     1.132341332247

  Mulliken Charges: (a.u.)
   Center  Symbol    Alpha    Beta     Spin     Total
       1     H     0.42858  0.42858  0.00000  0.14285
       2     N     3.69711  3.69711  0.00000 -0.39421
       3     C     3.01620  3.01620  0.00000 -0.03240
       4     H     0.42745  0.42745  0.00000  0.14509
       5     C     3.09020  3.09020  0.00000 -0.18040
       6     H     0.46356  0.46356  0.00000  0.07288
       7     H     0.46303  0.46303  0.00000  0.07394
       8     C     3.09351  3.09351  0.00000 -0.18702
       9     H     0.45712  0.45712  0.00000  0.08576
      10     H     0.45332  0.45332  0.00000  0.09336
      11     C     3.08346  3.08346  0.00000 -0.16692
      12     H     0.45531  0.45531  0.00000  0.08937
      13     H     0.45359  0.45359  0.00000  0.09282
      14     C     3.15000  3.15000  0.00000 -0.30000
      15     H     0.45484  0.45484  0.00000  0.09032
      16     H     0.45426  0.45426  0.00000  0.09149
      17     H     0.45526  0.45526  0.00000  0.08947
      18     H     0.44840  0.44840  0.00000  0.10319
      19     H     0.45479  0.45479  0.00000  0.09041

   Total alpha = 25.00000, Total beta = 25.00000, Total charge = -0.00000

*** Psi4 exiting successfully. Buy a developer a beer!
