                              Psi4 1.0.54 Driver

  ==> Input File <==

--------------------------------------------------------------------------
set {
	reference rhf
	basis cc-pvtz
}

set_num_threads( 4 )
memory 2 gb

molecule MOL {
0 1

O	 -1.451718	 2.403329	 0.467220
C	 -1.539148	 1.451989	 -0.238994
C	 -0.308600	 0.830666	 -0.869675
C	 -2.870698	 0.801629	 -0.530156
C	 0.376695	 -0.140025	 0.100361
H	 0.372075	 1.634230	 -1.120827
H	 -0.575803	 0.311329	 -1.783873
C	 1.630207	 -0.772146	 -0.501001
H	 0.621592	 0.400973	 1.005665
H	 -0.318399	 -0.926653	 0.383840
C	 2.907848	 -0.545876	 0.309149
H	 1.772784	 -0.391628	 -1.509394
H	 1.468529	 -1.842059	 -0.599744
C	 3.373802	 0.906639	 0.372125
H	 3.699140	 -1.146831	 -0.127906
H	 2.764321	 -0.923458	 1.318191
H	 3.519798	 1.311927	 -0.623875
H	 4.316899	 0.983758	 0.900700
H	 2.661122	 1.540651	 0.885346
H	 -3.119216	 0.950348	 -1.576158
H	 -3.640487	 1.236905	 0.088333
H	 -2.819115	 -0.268312	 -0.362364

	symmetry c1
}
set optking {
	frozen_dihedral = ("
		3 5 8 12
	")
}

ee,wfn = optimize('scf', return_wfn=True)
oeprop( wfn, 'DIPOLE', 'QUADRUPOLE', 'MULLIKEN_CHARGES')
f=open( 'psi4out.xyz', 'w' )
f.write( "22  " )
f.write( str(ee) + "\n" )
f.write( MOL.save_string_xyz() )
f.close()
--------------------------------------------------------------------------

    Molecular point group: c1
  Charge       = 0
  Multiplicity = 1
  Basis Set: CC-PVTZ
  Basis Set:
  @DF-RHF Final Energy:  -348.21794907728446
    Total Energy =                       -348.2179490772843451
    Molecular point group: c1
  Basis Set: CC-PVTZ
  Basis Set:
  Basis Set: CC-PVTZ
  Basis Set:
  @DF-RHF Final Energy:  -348.21811569212474
    Total Energy =                       -348.2181156921249681
  Basis Set: CC-PVTZ
  Basis Set:
  Basis Set: CC-PVTZ
  Basis Set:
  @DF-RHF Final Energy:  -348.21832256105120
    Total Energy =                       -348.2183225610509680
  Basis Set: CC-PVTZ
  Basis Set:
  Basis Set: CC-PVTZ
  Basis Set:
  @DF-RHF Final Energy:  -348.21818128260611
    Total Energy =                       -348.2181812826064515
  Basis Set: CC-PVTZ
  Basis Set:
  Basis Set: CC-PVTZ
  Basis Set:
  @DF-RHF Final Energy:  -348.21835443871271
    Total Energy =                       -348.2183544387129359
  Basis Set: CC-PVTZ
  Basis Set:
  Basis Set: CC-PVTZ
  Basis Set:
  @DF-RHF Final Energy:  -348.21835172815878
    Total Energy =                       -348.2183517281587228
  Basis Set: CC-PVTZ
  Basis Set:
  Basis Set: CC-PVTZ
  Basis Set:
  @DF-RHF Final Energy:  -348.21835483542048
    Total Energy =                       -348.2183548354212235
  Basis Set: CC-PVTZ
  Basis Set:
  Charge       = 0
  Multiplicity = 1
  Basis Set: CC-PVTZ
  Basis Set:

    Orbital Energies (a.u.)
    -----------------------

    Doubly Occupied:

       1A    -20.536895     2A    -11.319091     3A    -11.228149
       4A    -11.227539     5A    -11.226860     6A    -11.220077
       7A    -11.218008     8A    -11.208161     9A     -1.396877
      10A     -1.095177    11A     -1.044764    12A     -0.999034
      13A     -0.939205    14A     -0.857092    15A     -0.787725
      16A     -0.735198    17A     -0.659664    18A     -0.650849
      19A     -0.627758    20A     -0.619083    21A     -0.599912
      22A     -0.577821    23A     -0.565188    24A     -0.548027
      25A     -0.532333    26A     -0.513464    27A     -0.506538
      28A     -0.489267    29A     -0.467955    30A     -0.465107
      31A     -0.458888    32A     -0.398086

  @DF-RHF Final Energy:  -348.21835507660347

   => Energetics <=

    Nuclear Repulsion Energy =            376.9806920438369957
    One-Electron Energy =               -1218.9585046979141225
    Two-Electron Energy =                 493.7594575774735972
    DFT Exchange-Correlation Energy =       0.0000000000000000
    Empirical Dispersion Energy =           0.0000000000000000
    PCM Polarization Energy =               0.0000000000000000
    EFP Energy =                            0.0000000000000000
    Total Energy =                       -348.2183550766034728
    Molecular point group: c1
  Basis Set: CC-PVTZ
  Basis Set:

  -Total Gradient:
     Atom            X                  Y                   Z
    ------   -----------------  -----------------  -----------------
       1        0.000000492427    -0.000016281956    -0.000010569864
       2       -0.000006775940    -0.000001822022     0.000011697170
       3        0.000191719655     0.000286392556     0.000129559332
       4       -0.000000974747     0.000016949531    -0.000011064078
       5       -0.000331321654    -0.000482925725    -0.000224818302
       6        0.000000552988    -0.000000006949    -0.000000780043
       7        0.000001431521    -0.000000753419    -0.000000950668
       8        0.000405515224     0.000588496314     0.000278996834
       9        0.000002268015    -0.000000446814    -0.000000253760
      10        0.000001740733    -0.000003656973    -0.000002104968
      11       -0.000000426519     0.000004414349     0.000002758201
      12       -0.000275525339    -0.000381089886    -0.000181394069
      13       -0.000004342358    -0.000001629915     0.000001078014
      14        0.000000048557     0.000005518367     0.000001083333
      15       -0.000000487052    -0.000000616963    -0.000002540482
      16        0.000001654289    -0.000000549072     0.000002526607
      17        0.000002753472    -0.000000677325     0.000004943295
      18       -0.000006574829    -0.000000052749    -0.000002631594
      19        0.000004963941    -0.000004913294    -0.000004389156
      20        0.000001836390    -0.000007885235     0.000011416230
      21        0.000010098656    -0.000002252125    -0.000002597356
      22        0.000001352567     0.000003789304     0.000000035321

  **** Optimization is complete! (in 8 steps) ****
    Final optimized geometry and variables:
    Molecular point group: c1

    Geometry (in Angstrom), charge = 0, multiplicity = 1:

    O           -1.753497240133     1.758866598626     0.552722312633
    C           -1.825356740712     0.799549144352    -0.144579193499
    C           -0.584326326092     0.194007270778    -0.769475490271
    C           -3.146035878756     0.125218985746    -0.429827490146
    C            0.115489560061    -0.760257669839     0.207688033606
    H            0.084541355339     1.005465547434    -1.026033561041
    H           -0.841556329356    -0.336567341256    -1.680222792793
    C            1.398613520546    -1.394143726528    -0.370920630158
    H            0.343328297239    -0.208580346062     1.111083506455
    H           -0.575389188314    -1.543889537587     0.500547968453
    C            2.659132118568    -1.135866438351     0.456639398371
    H            1.562840620230    -1.034016634503    -1.382371730035
    H            1.257798139976    -2.465689530449    -0.459719886528
    C            3.121933941899     0.318625869523     0.447803062410
    H            3.459976930096    -1.760892216681     0.073739141702
    H            2.486623453376    -1.456757350869     1.480372451566
    H            3.354764501216     0.644240199968    -0.560857329020
    H            4.015221128531     0.443425103951     1.048684370288
    H            2.366956615217     0.987560487316     0.844172155120
    H           -3.398771962607     0.265417707783    -1.475980390838
    H           -3.921874037176     0.550522333526     0.188006795194
    H           -3.076521323065    -0.942962965717    -0.257608956879

  Mulliken Charges: (a.u.)
   Center  Symbol    Alpha    Beta     Spin     Total
       1     O     4.17731  4.17731  0.00000 -0.35463
       2     C     2.85862  2.85862  0.00000  0.28276
       3     C     3.09959  3.09959  0.00000 -0.19918
       4     C     3.15535  3.15535  0.00000 -0.31071
       5     C     3.11785  3.11785  0.00000 -0.23570
       6     H     0.43753  0.43753  0.00000  0.12495
       7     H     0.44694  0.44694  0.00000  0.10613
       8     C     3.09995  3.09995  0.00000 -0.19990
       9     H     0.43827  0.43827  0.00000  0.12345
      10     H     0.44130  0.44130  0.00000  0.11741
      11     C     3.08776  3.08776  0.00000 -0.17552
      12     H     0.45368  0.45368  0.00000  0.09264
      13     H     0.44425  0.44425  0.00000  0.11150
      14     C     3.15411  3.15411  0.00000 -0.30823
      15     H     0.44847  0.44847  0.00000  0.10305
      16     H     0.45340  0.45340  0.00000  0.09319
      17     H     0.45506  0.45506  0.00000  0.08989
      18     H     0.44543  0.44543  0.00000  0.10915
      19     H     0.44958  0.44958  0.00000  0.10084
      20     H     0.44838  0.44838  0.00000  0.10324
      21     H     0.43618  0.43618  0.00000  0.12764
      22     H     0.45099  0.45099  0.00000  0.09802

   Total alpha = 32.00000, Total beta = 32.00000, Total charge = -0.00000

*** Psi4 exiting successfully. Buy a developer a beer!
