  ==> Input File <==

--------------------------------------------------------------------------
set {
	reference rhf
	basis 6-31G*
}

set_num_threads( 4 )
memory 2 gb

molecule MOL {
0 1

H	 -3.420663	 1.227371	 -1.044276
O	 -3.452007	 0.283848	 -0.965577
C	 -3.181085	 -0.079926	 0.364119
C	 -1.765924	 0.277073	 0.805136
H	 -3.327791	 -1.152017	 0.410903
H	 -3.905698	 0.375695	 1.036898
C	 -0.677594	 -0.417312	 -0.014550
H	 -1.637766	 1.358238	 0.744969
H	 -1.659588	 0.017670	 1.857098
C	 0.738335	 -0.034840	 0.421385
H	 -0.814977	 -0.178223	 -1.064632
H	 -0.802730	 -1.495410	 0.071702
C	 1.822265	 -0.738362	 -0.399735
H	 0.853533	 1.043532	 0.342250
H	 0.871597	 -0.279636	 1.474438
C	 2.567991	 -1.852828	 0.343241
H	 2.540739	 -0.000707	 -0.753790
H	 1.363075	 -1.164428	 -1.289358
C	 3.418269	 -1.373325	 1.521167
H	 3.213147	 -2.366847	 -0.365170
H	 1.851690	 -2.593678	 0.692895
H	 4.136091	 -0.621682	 1.203513
H	 3.975270	 -2.197945	 1.955435
H	 2.812459	 -0.939797	 2.309971

	symmetry c1
}
set optking {
	frozen_dihedral = ("
		17 13 10 7
	")
}

ee = optimize('scf')
oeprop('DIPOLE', 'QUADRUPOLE', 'MULLIKEN_CHARGES')
f=open( 'psi4out.xyz', 'w' )
f.write( "24  " )
f.write( str(ee) + "\n" )
f.write( MOL.save_string_xyz() )
f.close()
--------------------------------------------------------------------------

    Molecular point group: c1
  Charge       = 0
  Multiplicity = 1
  Basis Set: 6-31G*
  Basis Set:
  @DF-RHF Final Energy:  -349.24235674536584
    Total Energy =                       -349.2423567453658393
    Molecular point group: c1
  Basis Set: 6-31G*
  Basis Set:
  Basis Set: 6-31G*
  Basis Set:
  @DF-RHF Final Energy:  -349.24259896299770
    Total Energy =                       -349.2425989629977039
  Basis Set: 6-31G*
  Basis Set:
  Basis Set: 6-31G*
  Basis Set:
  @DF-RHF Final Energy:  -349.24285843727006
    Total Energy =                       -349.2428584372704563
  Basis Set: 6-31G*
  Basis Set:
  Basis Set: 6-31G*
  Basis Set:
  @DF-RHF Final Energy:  -349.24285815723550
    Total Energy =                       -349.2428581572357302
  Basis Set: 6-31G*
  Basis Set:
  Basis Set: 6-31G*
  Basis Set:
  @DF-RHF Final Energy:  -349.24289195210514
    Total Energy =                       -349.2428919521051967
  Basis Set: 6-31G*
  Basis Set:
  Basis Set: 6-31G*
  Basis Set:
  @DF-RHF Final Energy:  -349.24289728402425
    Total Energy =                       -349.2428972840243659
  Basis Set: 6-31G*
  Basis Set:
  Basis Set: 6-31G*
  Basis Set:
  @DF-RHF Final Energy:  -349.24289607567846
    Total Energy =                       -349.2428960756786296
  Basis Set: 6-31G*
  Basis Set:
  Charge       = 0
  Multiplicity = 1
  Basis Set: 6-31G*
  Basis Set:

    Orbital Energies (a.u.)
    -----------------------

    Doubly Occupied:

       1A    -20.553618     2A    -11.267791     3A    -11.217321
       4A    -11.214292     5A    -11.212420     6A    -11.211417
       7A    -11.211175     8A    -11.207274     9A     -1.360220
      10A     -1.087373    11A     -1.047740    12A     -0.984499
      13A     -0.914334    14A     -0.850880    15A     -0.804399
      16A     -0.773649    17A     -0.679977    18A     -0.650765
      19A     -0.625360    20A     -0.616037    21A     -0.602265
      22A     -0.582822    23A     -0.554619    24A     -0.543527
      25A     -0.518834    26A     -0.505227    27A     -0.497265
      28A     -0.477290    29A     -0.467365    30A     -0.459231
      31A     -0.452415    32A     -0.447136    33A     -0.419529

  @DF-RHF Final Energy:  -349.24289781633877

   => Energetics <=

    Nuclear Repulsion Energy =            385.7097888461433968
    One-Electron Energy =               -1237.8692363788222792
    Two-Electron Energy =                 502.9165497163401710
    DFT Exchange-Correlation Energy =       0.0000000000000000
    Empirical Dispersion Energy =           0.0000000000000000
    PCM Polarization Energy =               0.0000000000000000
    EFP Energy =                            0.0000000000000000
    Total Energy =                       -349.2428978163387114
    Molecular point group: c1
  Basis Set: 6-31G*
  Basis Set:

  -Total Gradient:
     Atom            X                  Y                   Z
    ------   -----------------  -----------------  -----------------
       1       -0.000000206826     0.000000799696    -0.000000752373
       2       -0.000003259423     0.000003177179     0.000001520216
       3        0.000003126417    -0.000007308977    -0.000002584145
       4       -0.000000030277     0.000005012954    -0.000000980265
       5       -0.000000369132    -0.000000526210     0.000000401158
       6        0.000001645058     0.000000153003    -0.000000131154
       7        0.000007263993     0.001034464399    -0.000884142338
       8        0.000002361777     0.000001125091     0.000000838955
       9       -0.000000877236    -0.000000277880    -0.000000430255
      10       -0.000259027233    -0.001376132375     0.000857927121
      11       -0.000001813584    -0.000001234453     0.000001881234
      12        0.000000314755    -0.000000673109    -0.000002497593
      13        0.001238870955     0.000087417714     0.001612044623
      14        0.000000777125    -0.000001324551    -0.000000634107
      15       -0.000001890753     0.000006117647     0.000003625382
      16        0.000007574959     0.000004027504    -0.000006723107
      17       -0.000989784433     0.000248405294    -0.001577257134
      18        0.000007316018    -0.000002999840    -0.000002346585
      19       -0.000007708688    -0.000001922786    -0.000000926350
      20       -0.000001379177    -0.000001385402    -0.000002848511
      21        0.000002251650     0.000003058570     0.000004959963
      22       -0.000003402869    -0.000000865846    -0.000002034895
      23       -0.000000421385    -0.000001884505    -0.000002070453
      24       -0.000001331690     0.000002776879     0.000003160611

  **** Optimization is complete! (in 8 steps) ****
    Final optimized geometry and variables:
    Molecular point group: c1

    Geometry (in Angstrom), charge = 0, multiplicity = 1:

    H           -3.298980747842     1.743628227549    -1.268823507816
    O           -3.329791176105     0.797679025786    -1.229087688549
    C           -3.077226142007     0.380388909611     0.088470957912
    C           -1.668974443309     0.720674794673     0.563800546640
    H           -3.222641302403    -0.692808977575     0.089361054800
    H           -3.812127749365     0.807243082913     0.768811763279
    C           -0.568126734452     0.062726308450    -0.268205959080
    H           -1.541814916800     1.803645800792     0.549910593150
    H           -1.576938737086     0.418597346525     1.605713943394
    C            0.842043286266     0.441651537684     0.192309716477
    H           -0.695197598487     0.336723745853    -1.310697420513
    H           -0.685939385993    -1.019181932370    -0.220847641852
    C            1.953603060982    -0.262166810905    -0.617497240362
    H            0.953300302535     1.520427711038     0.113148612174
    H            0.946119705497     0.211272773893     1.249668438522
    C            2.675157609686    -1.388068672735     0.132863670314
    H            2.684886145534     0.465583980832    -0.960640124993
    H            1.516136448307    -0.677256244401    -1.522229911275
    C            3.608375584914    -0.897480107323     1.240931341464
    H            3.256288125291    -1.969180924055    -0.578920209515
    H            1.938433601492    -2.070972570861     0.551924145056
    H            4.386446600339    -0.256717023206     0.835198514187
    H            4.093621465123    -1.731588016829     1.738692732166
    H            3.077159950824    -0.329666406856     1.998333063811

  Mulliken Charges: (a.u.)
   Center  Symbol    Alpha    Beta     Spin     Total
       1     H     0.28336  0.28336  0.00000  0.43327
       2     O     4.36828  4.36828  0.00000 -0.73656
       3     C     2.99606  2.99606  0.00000  0.00787
       4     C     3.16959  3.16959  0.00000 -0.33918
       5     H     0.41636  0.41636  0.00000  0.16727
       6     H     0.42819  0.42819  0.00000  0.14362
       7     C     3.15388  3.15388  0.00000 -0.30776
       8     H     0.42824  0.42824  0.00000  0.14352
       9     H     0.42237  0.42237  0.00000  0.15525
      10     C     3.15530  3.15530  0.00000 -0.31060
      11     H     0.41142  0.41142  0.00000  0.17716
      12     H     0.42361  0.42361  0.00000  0.15278
      13     C     3.15734  3.15734  0.00000 -0.31467
      14     H     0.42239  0.42239  0.00000  0.15522
      15     H     0.42230  0.42230  0.00000  0.15540
      16     C     3.15355  3.15355  0.00000 -0.30710
      17     H     0.42167  0.42167  0.00000  0.15665
      18     H     0.41831  0.41831  0.00000  0.16338
      19     C     3.23999  3.23999  0.00000 -0.47997
      20     H     0.42129  0.42129  0.00000  0.15742
      21     H     0.42368  0.42368  0.00000  0.15264
      22     H     0.42211  0.42211  0.00000  0.15577
      23     H     0.41975  0.41975  0.00000  0.16050
      24     H     0.42094  0.42094  0.00000  0.15812

   Total alpha = 33.00000, Total beta = 33.00000, Total charge = -0.00000
