  ==> Input File <==

--------------------------------------------------------------------------
set {
	reference rhf
	basis 6-31G*
}

set_num_threads( 4 )
memory 2 gb

molecule MOL {
0 1

H	 1.219364	 -0.042320	 0.912176
C	 0.850167	 0.441173	 0.000644
C	 -0.623425	 0.760064	 0.000248
O	 1.595589	 0.679166	 -0.893476
C	 -1.518387	 -0.473136	 -0.000101
H	 -0.818289	 1.390622	 -0.866171
H	 -0.818694	 1.390413	 0.866696
H	 -1.333417	 -1.085530	 -0.874338
H	 -2.563510	 -0.183466	 -0.000351
H	 -1.333864	 -1.085676	 0.874123

	symmetry c1
}
set optking {
	frozen_dihedral = ("
		4 2 3 6
	")
}

ee = optimize('scf')
oeprop('DIPOLE', 'QUADRUPOLE', 'MULLIKEN_CHARGES')
f=open( 'psi4out.xyz', 'w' )
f.write( "10  " )
f.write( str(ee) + "\n" )
f.write( MOL.save_string_xyz() )
f.close()
--------------------------------------------------------------------------

    Molecular point group: c1
  Charge       = 0
  Multiplicity = 1
  Basis Set: 6-31G*
  Basis Set:
  @DF-RHF Final Energy:  -191.94948158687117
    Total Energy =                       -191.9494815868711726
    Molecular point group: c1
  Basis Set: 6-31G*
  Basis Set:
  Basis Set: 6-31G*
  Basis Set:
  @DF-RHF Final Energy:  -191.94955474253953
    Total Energy =                       -191.9495547425395898
  Basis Set: 6-31G*
  Basis Set:
  Basis Set: 6-31G*
  Basis Set:
  @DF-RHF Final Energy:  -191.94899641786705
    Total Energy =                       -191.9489964178670220
  Basis Set: 6-31G*
  Basis Set:
  Basis Set: 6-31G*
  Basis Set:
  @DF-RHF Final Energy:  -191.95007626880755
    Total Energy =                       -191.9500762688075781
  Basis Set: 6-31G*
  Basis Set:
  Basis Set: 6-31G*
  Basis Set:
  @DF-RHF Final Energy:  -191.95008265579673
    Total Energy =                       -191.9500826557967059
  Basis Set: 6-31G*
  Basis Set:
  Charge       = 0
  Multiplicity = 1
  Basis Set: 6-31G*
  Basis Set:

    Orbital Energies (a.u.)
    -----------------------

    Doubly Occupied:

       1A    -20.564079     2A    -11.327810     3A    -11.238902
       4A    -11.234436     5A     -1.403878     6A     -1.066601
       7A     -0.904546     8A     -0.792748     9A     -0.676450
      10A     -0.640363    11A     -0.611313    12A     -0.570409
      13A     -0.543305    14A     -0.513127    15A     -0.496508
      16A     -0.412415

  @DF-RHF Final Energy:  -191.95008320277498

   => Energetics <=

    Nuclear Repulsion Energy =            117.5302751538317096
    One-Electron Energy =                -492.9669394848777983
    Two-Electron Energy =                 183.4865811282711263
    DFT Exchange-Correlation Energy =       0.0000000000000000
    Empirical Dispersion Energy =           0.0000000000000000
    PCM Polarization Energy =               0.0000000000000000
    EFP Energy =                            0.0000000000000000
    Total Energy =                       -191.9500832027749482
    Molecular point group: c1
  Basis Set: 6-31G*
  Basis Set:

  -Total Gradient:
     Atom            X                  Y                   Z
    ------   -----------------  -----------------  -----------------
       1        0.000003678673     0.000004847778    -0.000008552520
       2        0.000251590784     0.001061588990     0.000515715447
       3       -0.000249378324    -0.001007614572    -0.000584992224
       4       -0.000163216319    -0.000644137741    -0.000284568548
       5        0.000022908763     0.000002557966     0.000006437776
       6        0.000138727806     0.000580018768     0.000375953797
       7        0.000001190183    -0.000001457755    -0.000017421497
       8       -0.000005759232    -0.000006067805     0.000002779522
       9       -0.000000423246     0.000015239344    -0.000001160106
      10        0.000000680906    -0.000004974972    -0.000004191646

  **** Optimization is complete! (in 6 steps) ****
    Final optimized geometry and variables:
    Molecular point group: c1

    Geometry (in Angstrom), charge = 0, multiplicity = 1:

    H            1.115746742615    -0.392889590179     1.152519943149
    C            0.764506641435     0.099101034617     0.237545862523
    C           -0.700153189885     0.453665388148     0.221369195290
    O            1.515742551678     0.295182480674    -0.661896324929
    C           -1.573442280304    -0.807375063906     0.230040579936
    H           -0.894935547271     1.061971798903    -0.653259579183
    H           -0.916825042414     1.049695272106     1.105329198043
    H           -1.401725770358    -1.404920385684    -0.658683818234
    H           -2.623533170536    -0.540453743837     0.257855210412
    H           -1.366199301994    -1.426582056810     1.097737299417

  Mulliken Charges: (a.u.)
   Center  Symbol    Alpha    Beta     Spin     Total
       1     H     0.43196  0.43196  0.00000  0.13607
       2     C     2.83252  2.83252  0.00000  0.33495
       3     C     3.20501  3.20501  0.00000 -0.41002
       4     O     4.23548  4.23548  0.00000 -0.47095
       5     C     3.25141  3.25141  0.00000 -0.50282
       6     H     0.39869  0.39869  0.00000  0.20263
       7     H     0.41101  0.41101  0.00000  0.17798
       8     H     0.40864  0.40864  0.00000  0.18272
       9     H     0.40895  0.40895  0.00000  0.18210
      10     H     0.41633  0.41633  0.00000  0.16734

   Total alpha = 16.00000, Total beta = 16.00000, Total charge =  0.00000
