  ==> Input File <==

--------------------------------------------------------------------------
set {
	reference rhf
	basis 6-31G*
}

set_num_threads( 1 )
memory 2 gb

molecule MOL {
0 1

H	 1.748059	 -1.687468	 0.254128
O	 1.073768	 -1.108019	 -0.070310
C	 1.135793	 0.118896	 0.612333
C	 0.031547	 1.023609	 0.088541
H	 2.099474	 0.597675	 0.448081
H	 1.029748	 -0.034863	 1.683880
C	 -1.134819	 0.293262	 -0.585751
H	 0.474374	 1.714721	 -0.623187
H	 -0.338529	 1.620940	 0.920081
C	 -1.917817	 -0.639439	 0.339494
H	 -0.758119	 -0.268455	 -1.433105
H	 -1.813832	 1.041889	 -0.986690
H	 -2.777680	 -1.057197	 -0.174994
H	 -1.310268	 -1.471279	 0.680599
H	 -2.283753	 -0.111424	 1.216626

	symmetry c1
}
set optking {
	frozen_dihedral = ("
		8 4 7 11,
		1 2 3 4
	")
}

ee = energy('scf')
oeprop('DIPOLE', 'QUADRUPOLE', 'MULLIKEN_CHARGES')
f=open( 'psi4out.xyz', 'w' )
f.write( "15  " )
f.write( str(ee) + "\n" )
f.write( MOL.save_string_xyz() )
f.close()
--------------------------------------------------------------------------

    Molecular point group: c1

    Geometry (in Angstrom), charge = 0, multiplicity = 1:

       Center              X                  Y                   Z               Mass
    ------------   -----------------  -----------------  -----------------  -----------------
           H          1.875095653805    -1.581903477687     0.168648237855     1.007825032070
           O          1.200804653805    -1.002454477687    -0.155789762145    15.994914619560
           C          1.262829653805     0.224460522313     0.526853237855    12.000000000000
           C          0.158583653805     1.129173522313     0.003061237855    12.000000000000
           H          2.226510653805     0.703239522313     0.362601237855     1.007825032070
           H          1.156784653805     0.070701522313     1.598400237855     1.007825032070
           C         -1.007782346195     0.398826522313    -0.671230762145    12.000000000000
           H          0.601410653805     1.820285522313    -0.708666762145     1.007825032070
           H         -0.211492346195     1.726504522313     0.834601237855     1.007825032070
           C         -1.790780346195    -0.533874477687     0.254014237855    12.000000000000
           H         -0.631082346195    -0.162890477687    -1.518584762145     1.007825032070
           H         -1.686795346195     1.147453522313    -1.072169762145     1.007825032070
           H         -2.650643346195    -0.951632477687    -0.260473762145     1.007825032070
           H         -1.183231346195    -1.365714477687     0.595119237855     1.007825032070
           H         -2.156716346195    -0.005859477687     1.131146237855     1.007825032070

  Charge       = 0
  Multiplicity = 1
  Basis Set: 6-31G*
  Basis Set:

    Orbital Energies (a.u.)
    -----------------------

    Doubly Occupied:

       1A    -20.554469     2A    -11.267708     3A    -11.210889
       4A    -11.204815     5A    -11.195102     6A     -1.362101
       7A     -1.059068     8A     -0.968354     9A     -0.863612
      10A     -0.771094    11A     -0.705624    12A     -0.651598
      13A     -0.605254    14A     -0.566384    15A     -0.558431
      16A     -0.525039    17A     -0.506914    18A     -0.475521
      19A     -0.460453    20A     -0.450147    21A     -0.425223

  @DF-RHF Final Energy:  -232.13746867293125

   => Energetics <=

    Nuclear Repulsion Energy =            194.7873911235023172
    One-Electron Energy =                -701.0740975847511436
    Two-Electron Energy =                 274.1492377883174072
    DFT Exchange-Correlation Energy =       0.0000000000000000
    Empirical Dispersion Energy =           0.0000000000000000
    PCM Polarization Energy =               0.0000000000000000
    EFP Energy =                            0.0000000000000000
    Total Energy =                       -232.1374686729314476

  Mulliken Charges: (a.u.)
   Center  Symbol    Alpha    Beta     Spin     Total
       1     H     0.28050  0.28050  0.00000  0.43899
       2     O     4.37087  4.37087  0.00000 -0.74173
       3     C     2.99402  2.99402  0.00000  0.01196
       4     C     3.17142  3.17142  0.00000 -0.34284
       5     H     0.42838  0.42838  0.00000  0.14324
       6     H     0.43029  0.43029  0.00000  0.13943
       7     C     3.14550  3.14550  0.00000 -0.29099
       8     H     0.41849  0.41849  0.00000  0.16302
       9     H     0.42221  0.42221  0.00000  0.15558
      10     C     3.24275  3.24275  0.00000 -0.48551
      11     H     0.40855  0.40855  0.00000  0.18289
      12     H     0.42528  0.42528  0.00000  0.14944
      13     H     0.42276  0.42276  0.00000  0.15447
      14     H     0.41024  0.41024  0.00000  0.17952
      15     H     0.42873  0.42873  0.00000  0.14253

   Total alpha = 21.00000, Total beta = 21.00000, Total charge = -0.00000
