  ==> Input File <==

--------------------------------------------------------------------------
set {
	reference rhf
	basis 6-31G*
}

set_num_threads( 4 )
memory 2 gb

molecule MOL {
0 1

H	 -3.970298	 -0.394618	 -1.376028
O	 -3.452007	 0.283848	 -0.965577
C	 -3.181085	 -0.079926	 0.364119
C	 -1.765924	 0.277073	 0.805136
H	 -3.327791	 -1.152017	 0.410903
H	 -3.905698	 0.375695	 1.036898
C	 -0.677594	 -0.417312	 -0.014550
H	 -1.637766	 1.358238	 0.744969
H	 -1.659588	 0.017670	 1.857098
C	 0.738335	 -0.034840	 0.421385
H	 -0.814977	 -0.178223	 -1.064632
H	 -0.802730	 -1.495410	 0.071702
C	 1.822265	 -0.738362	 -0.399735
H	 0.853533	 1.043532	 0.342250
H	 0.871597	 -0.279636	 1.474438
C	 3.258060	 -0.455774	 0.057203
H	 1.718003	 -0.459167	 -1.447053
H	 1.651028	 -1.811884	 -0.354513
C	 3.709143	 0.994797	 -0.123830
H	 3.930637	 -1.101717	 -0.501982
H	 3.365259	 -0.739518	 1.102287
H	 3.601178	 1.310569	 -1.158127
H	 4.753787	 1.110486	 0.148516
H	 3.135362	 1.678896	 0.492569

	symmetry c1
}
set optking {
	frozen_dihedral = ("
		1 2 3 5
	")
}

ee = optimize('scf')
oeprop('DIPOLE', 'QUADRUPOLE', 'MULLIKEN_CHARGES')
f=open( 'psi4out.xyz', 'w' )
f.write( "24  " )
f.write( str(ee) + "\n" )
f.write( MOL.save_string_xyz() )
f.close()
--------------------------------------------------------------------------

    Molecular point group: c1
  Charge       = 0
  Multiplicity = 1
  Basis Set: 6-31G*
  Basis Set:
  @DF-RHF Final Energy:  -349.24490776659724
    Total Energy =                       -349.2449077665972368
    Molecular point group: c1
  Basis Set: 6-31G*
  Basis Set:
  Basis Set: 6-31G*
  Basis Set:
  @DF-RHF Final Energy:  -349.24617016222760
    Total Energy =                       -349.2461701622277133
  Basis Set: 6-31G*
  Basis Set:
  Basis Set: 6-31G*
  Basis Set:
  @DF-RHF Final Energy:  -349.24652523352773
    Total Energy =                       -349.2465252335278478
  Basis Set: 6-31G*
  Basis Set:
  Basis Set: 6-31G*
  Basis Set:
  @DF-RHF Final Energy:  -349.24653112429911
    Total Energy =                       -349.2465311242990538
  Basis Set: 6-31G*
  Basis Set:
  Basis Set: 6-31G*
  Basis Set:
  @DF-RHF Final Energy:  -349.24653216580191
    Total Energy =                       -349.2465321658020230
  Basis Set: 6-31G*
  Basis Set:
  Charge       = 0
  Multiplicity = 1
  Basis Set: 6-31G*
  Basis Set:

    Orbital Energies (a.u.)
    -----------------------

    Doubly Occupied:

       1A    -20.552046     2A    -11.268091     3A    -11.212424
       4A    -11.211526     5A    -11.210059     6A    -11.209281
       7A    -11.208145     8A    -11.205303     9A     -1.358334
      10A     -1.086077    11A     -1.046434    12A     -0.984539
      13A     -0.913201    14A     -0.844951    15A     -0.789133
      16A     -0.774146    17A     -0.705680    18A     -0.640043
      19A     -0.633604    20A     -0.608388    21A     -0.592585
      22A     -0.575747    23A     -0.557619    24A     -0.535584
      25A     -0.512861    26A     -0.505148    27A     -0.496217
      28A     -0.471800    29A     -0.465336    30A     -0.458657
      31A     -0.451052    32A     -0.449586    33A     -0.418364

  @DF-RHF Final Energy:  -349.24653215726386

   => Energetics <=

    Nuclear Repulsion Energy =            384.5623639734167796
    One-Electron Energy =               -1235.7138802063434468
    Two-Electron Energy =                 501.9049840756626963
    DFT Exchange-Correlation Energy =       0.0000000000000000
    Empirical Dispersion Energy =           0.0000000000000000
    PCM Polarization Energy =               0.0000000000000000
    EFP Energy =                            0.0000000000000000
    Total Energy =                       -349.2465321572640278
    Molecular point group: c1
  Basis Set: 6-31G*
  Basis Set:

  -Total Gradient:
     Atom            X                  Y                   Z
    ------   -----------------  -----------------  -----------------
       1        0.001186729243    -0.000640678720    -0.000431002032
       2       -0.001803555630     0.000820092499     0.000584382990
       3        0.001817476638    -0.000356896411    -0.000469854311
       4       -0.000024385978    -0.000015914254     0.000072804441
       5       -0.001201998291     0.000193698233     0.000250001529
       6        0.000016922299    -0.000011700230     0.000028670155
       7       -0.000014290956    -0.000033433556    -0.000017552964
       8       -0.000024902305     0.000011071586    -0.000006409212
       9        0.000020510718     0.000018410521    -0.000015374408
      10        0.000003291117    -0.000004652431    -0.000002846438
      11        0.000008603021     0.000004164636     0.000012636079
      12        0.000000147707     0.000005980382    -0.000006844209
      13        0.000001739055     0.000009763016     0.000002834961
      14       -0.000013449769    -0.000015550768    -0.000009313917
      15        0.000007479655     0.000007974958     0.000003527717
      16       -0.000003144812    -0.000004046786     0.000016369445
      17        0.000001382918     0.000014102874     0.000002730240
      18       -0.000000364121    -0.000000577491    -0.000011096478
      19        0.000007899274     0.000001644674    -0.000004740876
      20       -0.000000932836    -0.000006505145     0.000005618641
      21       -0.000000968005     0.000006732987     0.000004009831
      22       -0.000001164940     0.000003167975    -0.000002598859
      23       -0.000000226060    -0.000002578337    -0.000002935865
      24        0.000017202074    -0.000004270213    -0.000003016460

  **** Optimization is complete! (in 6 steps) ****
    Final optimized geometry and variables:
    Molecular point group: c1

    Geometry (in Angstrom), charge = 0, multiplicity = 1:

    H           -3.923446983198    -0.267060639270    -1.422222167583
    O           -3.408848213476     0.362940445524    -0.941426865637
    C           -3.178868153234    -0.095731498609     0.370159453618
    C           -1.768982892288     0.273323881434     0.801473906568
    H           -3.322077224719    -1.172719280151     0.430460380862
    H           -3.900870429320     0.359870284133     1.043727042510
    C           -0.678374447915    -0.426511306882    -0.009846566148
    H           -1.658893272482     1.351246687694     0.713820060921
    H           -1.659785410658     0.030919569449     1.857210310657
    C            0.735466162383    -0.031175002516     0.421372081774
    H           -0.817060550922    -0.194032773820    -1.060997116819
    H           -0.794887765831    -1.505475156079     0.088551266627
    C            1.823781130486    -0.734173280380    -0.394326228294
    H            0.841743954592     1.046876479431     0.331829827816
    H            0.871397315125    -0.265683343563     1.476509144036
    C            3.257948563542    -0.438129072731     0.059290814462
    H            1.717155159262    -0.464110047241    -1.443785196138
    H            1.660263597883    -1.808739317932    -0.340178713061
    C            3.700083585186     1.013101360592    -0.137642884827
    H            3.934541639079    -1.086137156260    -0.492722392598
    H            3.366691893187    -0.709704996382     1.107484349120
    H            3.590143323307     1.316867388892    -1.175268420564
    H            4.744028635784     1.138122924196     0.133451875231
    H            3.121838247210     1.700240470305     0.470955294558

  Mulliken Charges: (a.u.)
   Center  Symbol    Alpha    Beta     Spin     Total
       1     H     0.27955  0.27955  0.00000  0.44090
       2     O     4.37149  4.37149  0.00000 -0.74299
       3     C     2.99837  2.99837  0.00000  0.00325
       4     C     3.15845  3.15845  0.00000 -0.31689
       5     H     0.43284  0.43284  0.00000  0.13431
       6     H     0.42478  0.42478  0.00000  0.15043
       7     C     3.15488  3.15488  0.00000 -0.30977
       8     H     0.41466  0.41466  0.00000  0.17067
       9     H     0.42491  0.42491  0.00000  0.15019
      10     C     3.15373  3.15373  0.00000 -0.30747
      11     H     0.41057  0.41057  0.00000  0.17886
      12     H     0.42887  0.42887  0.00000  0.14225
      13     C     3.15211  3.15211  0.00000 -0.30423
      14     H     0.42056  0.42056  0.00000  0.15888
      15     H     0.42610  0.42610  0.00000  0.14780
      16     C     3.15213  3.15213  0.00000 -0.30427
      17     H     0.42375  0.42375  0.00000  0.15250
      18     H     0.42358  0.42358  0.00000  0.15284
      19     C     3.24099  3.24099  0.00000 -0.48198
      20     H     0.42173  0.42173  0.00000  0.15654
      21     H     0.42402  0.42402  0.00000  0.15196
      22     H     0.42208  0.42208  0.00000  0.15584
      23     H     0.41999  0.41999  0.00000  0.16002
      24     H     0.41983  0.41983  0.00000  0.16034

   Total alpha = 33.00000, Total beta = 33.00000, Total charge =  0.00000
