  ==> Input File <==

--------------------------------------------------------------------------
set {
	reference rhf
	basis 6-31G*
}

set_num_threads( 4 )
memory 2 gb

molecule MOL {
0 1

O	 -2.821601	 1.309235	 -0.001213
C	 -2.668563	 0.129746	 -0.000350
C	 -3.801572	 -0.864014	 -0.000442
O	 -1.481751	 -0.454642	 0.000584
H	 -4.417280	 -0.689587	 -0.874708
H	 -3.443784	 -1.883046	 -0.000565
H	 -4.417179	 -0.689832	 0.873954
C	 -0.334255	 0.388708	 0.000906
C	 0.891947	 -0.504646	 0.000751
H	 -0.365390	 1.025305	 -0.873475
H	 -0.365484	 1.024911	 0.875569
C	 1.190483	 -1.073115	 1.389344
H	 1.743077	 0.067382	 -0.358138
H	 0.736690	 -1.313958	 -0.707324
C	 2.424630	 -1.976861	 1.410579
H	 1.333425	 -0.255760	 2.094031
H	 0.328990	 -1.635572	 1.745090
C	 2.723543	 -2.543547	 2.797801
H	 3.286534	 -1.416270	 1.055707
H	 2.282530	 -2.795484	 0.708629
H	 2.903872	 -1.748553	 3.515771
H	 3.603152	 -3.179339	 2.780747
H	 1.892494	 -3.138395	 3.165935

	symmetry c1
}
set optking {
	frozen_dihedral = ("
		13 9 8 10
	")
}

ee = optimize('scf')
oeprop('DIPOLE', 'QUADRUPOLE', 'MULLIKEN_CHARGES')
f=open( 'psi4out.xyz', 'w' )
f.write( "23  " )
f.write( str(ee) + "\n" )
f.write( MOL.save_string_xyz() )
f.close()
--------------------------------------------------------------------------

    Molecular point group: c1
  Charge       = 0
  Multiplicity = 1
  Basis Set: 6-31G*
  Basis Set:
  @DF-RHF Final Energy:  -422.97846203778499
    Total Energy =                       -422.9784620377847659
    Molecular point group: c1
  Basis Set: 6-31G*
  Basis Set:
  Basis Set: 6-31G*
  Basis Set:
  @DF-RHF Final Energy:  -422.97868406030420
    Total Energy =                       -422.9786840603029532
  Basis Set: 6-31G*
  Basis Set:
  Basis Set: 6-31G*
  Basis Set:
  @DF-RHF Final Energy:  -422.97871781129680
    Total Energy =                       -422.9787178112965194
  Basis Set: 6-31G*
  Basis Set:
  Basis Set: 6-31G*
  Basis Set:
  @DF-RHF Final Energy:  -422.97860447050664
    Total Energy =                       -422.9786044705065251
  Basis Set: 6-31G*
  Basis Set:
  Basis Set: 6-31G*
  Basis Set:
  @DF-RHF Final Energy:  -422.97876481484479
    Total Energy =                       -422.9787648148450216
  Basis Set: 6-31G*
  Basis Set:
  Charge       = 0
  Multiplicity = 1
  Basis Set: 6-31G*
  Basis Set:

    Orbital Energies (a.u.)
    -----------------------

    Doubly Occupied:

       1A    -20.604023     2A    -20.541214     3A    -11.374764
       4A    -11.281873     5A    -11.233024     6A    -11.224861
       7A    -11.219779     8A    -11.219125     9A    -11.211657
      10A     -1.468678    11A     -1.361501    12A     -1.091952
      13A     -1.041546    14A     -1.002986    15A     -0.930861
      16A     -0.842763    17A     -0.800379    18A     -0.779355
      19A     -0.688456    20A     -0.681764    21A     -0.667036
      22A     -0.643358    23A     -0.607855    24A     -0.584176
      25A     -0.577859    26A     -0.573669    27A     -0.559037
      28A     -0.533598    29A     -0.528855    30A     -0.506804
      31A     -0.495972    32A     -0.474026    33A     -0.469462
      34A     -0.461481    35A     -0.446016    36A     -0.437392

  @DF-RHF Final Energy:  -422.97876482819282

   => Energetics <=

    Nuclear Repulsion Energy =            457.0383690014395484
    One-Electron Energy =               -1481.6999569804177099
    Two-Electron Energy =                 601.6828231507852252
    DFT Exchange-Correlation Energy =       0.0000000000000000
    Empirical Dispersion Energy =           0.0000000000000000
    PCM Polarization Energy =               0.0000000000000000
    EFP Energy =                            0.0000000000000000
    Total Energy =                       -422.9787648281928796
    Molecular point group: c1
  Basis Set: 6-31G*
  Basis Set:

  -Total Gradient:
     Atom            X                  Y                   Z
    ------   -----------------  -----------------  -----------------
       1       -0.000007893266     0.000010385507    -0.000048528798
       2        0.000035611782    -0.000015397541     0.000083179311
       3        0.000000178871     0.000002242254    -0.000004259136
       4       -0.000012593915    -0.000005623993    -0.000118957040
       5        0.000002898334     0.000000104253    -0.000002753535
       6        0.000001636429     0.000000304612    -0.000001585531
       7       -0.000000416335     0.000002288607    -0.000001067583
       8       -0.002095332888    -0.003178826579    -0.002423872070
       9        0.001076688096     0.001818270896     0.003906143818
      10        0.001563751561     0.002287564659     0.001539821478
      11        0.000014411046     0.000004671682    -0.000002285236
      12       -0.000026713280     0.000106599378    -0.000019962638
      13       -0.000565216696    -0.000925163655    -0.002920181931
      14        0.000039956918    -0.000049769587     0.000005054928
      15       -0.000035124394    -0.000038796362    -0.000046686170
      16        0.000022192674    -0.000021172096     0.000013585190
      17       -0.000008642493     0.000019730670     0.000032101732
      18        0.000007657263     0.000004524854     0.000008448440
      19       -0.000023873493    -0.000009837083     0.000009257458
      20        0.000007418821    -0.000013507966    -0.000006486975
      21       -0.000011131262     0.000000833453     0.000001164627
      22        0.000007068214     0.000006538430     0.000005621975
      23        0.000007468019    -0.000005964392    -0.000007752308

  **** Optimization is complete! (in 6 steps) ****
    Final optimized geometry and variables:
    Molecular point group: c1

    Geometry (in Angstrom), charge = 0, multiplicity = 1:

    O           -2.381309534673     1.920270223938    -0.651891531539
    C           -2.219509529178     0.742271266998    -0.630149903080
    C           -3.345109369351    -0.259531001054    -0.604975563640
    O           -1.028170445639     0.166576376366    -0.627301221796
    H           -3.968035746429    -0.104888828262    -1.477819355845
    H           -2.980039416977    -1.275887543376    -0.589851583174
    H           -3.955936381389    -0.074500029791     0.270545059249
    C            0.113270311902     1.017669534019    -0.645893914031
    C            1.354443959361     0.142938799063    -0.601257219887
    H            0.090561276902     1.635798668884    -1.533209230378
    H            0.065906230978     1.683317038586     0.206442025367
    C            1.648037655672    -0.444355999669     0.779055265866
    H            2.197272554597     0.731802126664    -0.955878455288
    H            1.228273453608    -0.658996476643    -1.324173979334
    C            2.868160530181    -1.366459233113     0.789647611954
    H            1.803917725079     0.366525242517     1.488698853596
    H            0.776321607661    -0.993858249213     1.125428212400
    C            3.165353529135    -1.944936324915     2.172518219679
    H            3.737829203232    -0.818159912045     0.433387431311
    H            2.710309628653    -2.179660548422     0.084575780413
    H            3.360323033187    -1.156462414997     2.893893543704
    H            4.035433474022    -2.593580878230     2.148585153516
    H            2.327006078084    -2.529197989932     2.541057380791

  Mulliken Charges: (a.u.)
   Center  Symbol    Alpha    Beta     Spin     Total
       1     O     4.28362  4.28362  0.00000 -0.56724
       2     C     2.61469  2.61469  0.00000  0.77062
       3     C     3.28770  3.28770  0.00000 -0.57541
       4     O     4.30981  4.30981  0.00000 -0.61962
       5     H     0.39727  0.39727  0.00000  0.20546
       6     H     0.40017  0.40017  0.00000  0.19966
       7     H     0.39738  0.39738  0.00000  0.20524
       8     C     3.00460  3.00460  0.00000 -0.00921
       9     C     3.16654  3.16654  0.00000 -0.33309
      10     H     0.40798  0.40798  0.00000  0.18403
      11     H     0.41025  0.41025  0.00000  0.17950
      12     C     3.15472  3.15472  0.00000 -0.30945
      13     H     0.41744  0.41744  0.00000  0.16513
      14     H     0.41264  0.41264  0.00000  0.17472
      15     C     3.15247  3.15247  0.00000 -0.30494
      16     H     0.42300  0.42300  0.00000  0.15401
      17     H     0.41488  0.41488  0.00000  0.17024
      18     C     3.23947  3.23947  0.00000 -0.47894
      19     H     0.42288  0.42288  0.00000  0.15425
      20     H     0.42165  0.42165  0.00000  0.15669
      21     H     0.42121  0.42121  0.00000  0.15758
      22     H     0.41857  0.41857  0.00000  0.16285
      23     H     0.42103  0.42103  0.00000  0.15793

   Total alpha = 36.00000, Total beta = 36.00000, Total charge =  0.00000
