                              Psi4 1.0.54 Driver

  ==> Input File <==

--------------------------------------------------------------------------
set {
	reference rhf
	basis cc-pvtz
}

set_num_threads( 4 )
memory 2 gb

molecule MOL {
0 1

H	 -2.362939	 -1.309000	 -0.383250
C	 -1.359344	 -1.272457	 0.020748
C	 -0.684082	 0.000127	 -0.464918
H	 -0.825835	 -2.151141	 -0.318537
H	 -1.416276	 -1.292399	 1.099455
C	 -1.359089	 1.272668	 0.021259
N	 0.742439	 -0.000109	 0.007333
H	 -0.596914	 0.000345	 -1.538146
H	 -2.362696	 1.309620	 -0.382686
H	 -0.825392	 2.151374	 -0.317674
H	 -1.415983	 1.292181	 1.099973
O	 1.512562	 0.676366	 -0.586752
O	 1.007988	 -0.676632	 0.944398

	symmetry c1
}
set optking {
	frozen_dihedral = ("
		12 7 3 8
	")
}

ee,wfn = optimize('scf', return_wfn=True)
oeprop( wfn, 'DIPOLE', 'QUADRUPOLE', 'MULLIKEN_CHARGES')
f=open( 'psi4out.xyz', 'w' )
f.write( "13  " )
f.write( str(ee) + "\n" )
f.write( MOL.save_string_xyz() )
f.close()
--------------------------------------------------------------------------

    Molecular point group: c1
  Charge       = 0
  Multiplicity = 1
  Basis Set: CC-PVTZ
  Basis Set:
  @DF-RHF Final Energy:  -321.86319272122051
    Total Energy =                       -321.8631927212202868
    Molecular point group: c1
  Basis Set: CC-PVTZ
  Basis Set:
  Basis Set: CC-PVTZ
  Basis Set:
  @DF-RHF Final Energy:  -321.85855353473971
    Total Energy =                       -321.8585535347396558
  Basis Set: CC-PVTZ
  Basis Set:
  Basis Set: CC-PVTZ
  Basis Set:
  @DF-RHF Final Energy:  -321.86220050877262
    Total Energy =                       -321.8622005087725029
  Basis Set: CC-PVTZ
  Basis Set:
  Basis Set: CC-PVTZ
  Basis Set:
  @DF-RHF Final Energy:  -321.86376575347737
    Total Energy =                       -321.8637657534773666
  Basis Set: CC-PVTZ
  Basis Set:
  Basis Set: CC-PVTZ
  Basis Set:
  @DF-RHF Final Energy:  -321.86360960517317
    Total Energy =                       -321.8636096051735080
  Basis Set: CC-PVTZ
  Basis Set:
  Basis Set: CC-PVTZ
  Basis Set:
  @DF-RHF Final Energy:  -321.86391849071640
    Total Energy =                       -321.8639184907162871
  Basis Set: CC-PVTZ
  Basis Set:
  Charge       = 0
  Multiplicity = 1
  Basis Set: CC-PVTZ
  Basis Set:

    Orbital Energies (a.u.)
    -----------------------

    Doubly Occupied:

       1A    -20.590718     2A    -20.586732     3A    -15.833043
       4A    -11.305119     5A    -11.244825     6A    -11.238422
       7A     -1.634092     8A     -1.418300     9A     -1.141843
      10A     -0.972062    11A     -0.957466    12A     -0.815920
      13A     -0.757468    14A     -0.731127    15A     -0.725760
      16A     -0.646909    17A     -0.593674    18A     -0.587577
      19A     -0.571244    20A     -0.528502    21A     -0.521815
      22A     -0.484938    23A     -0.471354    24A     -0.451597

  @DF-RHF Final Energy:  -321.86391937277301

   => Energetics <=

    Nuclear Repulsion Energy =            257.4113494682062537
    One-Electron Energy =                -948.9295271138399812
    Two-Electron Energy =                 369.6542582728606021
    DFT Exchange-Correlation Energy =       0.0000000000000000
    Empirical Dispersion Energy =           0.0000000000000000
    PCM Polarization Energy =               0.0000000000000000
    EFP Energy =                            0.0000000000000000
    Total Energy =                       -321.8639193727731254
    Molecular point group: c1
  Basis Set: CC-PVTZ
  Basis Set:

  -Total Gradient:
     Atom            X                  Y                   Z
    ------   -----------------  -----------------  -----------------
       1       -0.000001507287    -0.000004702957    -0.000002036053
       2       -0.000012330577    -0.000061383188     0.000027230829
       3       -0.000229252338     0.001510204122     0.000234588994
       4       -0.000004468133    -0.000004470561     0.000004852327
       5        0.000002464859     0.000004101544    -0.000012516862
       6        0.000071451889    -0.000039390463    -0.000001683771
       7        0.000435223169    -0.001130699586    -0.000887795171
       8        0.000095640334    -0.001022017534     0.000032069792
       9        0.000005705880    -0.000010338683    -0.000014432015
      10        0.000003198156     0.000033587366     0.000005563414
      11        0.000005064925    -0.000003260666    -0.000011443459
      12       -0.000298973293     0.000794781061     0.000575025465
      13       -0.000072217583    -0.000066410459     0.000050576509

  **** Optimization is complete! (in 7 steps) ****
    Final optimized geometry and variables:
    Molecular point group: c1

    Geometry (in Angstrom), charge = 0, multiplicity = 1:

    H           -2.346134725582    -1.372552688741    -0.394571099405
    C           -1.355690721679    -1.321494067426     0.040870839707
    C           -0.685140470375    -0.055537809057    -0.454402142730
    H           -0.805533012176    -2.202612261314    -0.258747760412
    H           -1.448113344416    -1.325599401707     1.116772909109
    C           -1.373330860014     1.222756348803     0.007175340925
    N            0.746897702279     0.016086907270     0.005092425363
    H           -0.600079386928    -0.064058129597    -1.529588786791
    H           -2.391990374795     1.224041255560    -0.357702371686
    H           -0.867259042200     2.096324897507    -0.376933296158
    H           -1.398206793992     1.273961286368     1.088570008813
    O            1.463281875054     0.726471704715    -0.618482973403
    O            1.065367529274    -0.601467326499     0.963763673850

  Mulliken Charges: (a.u.)
   Center  Symbol    Alpha    Beta     Spin     Total
       1     H     0.45018  0.45018  0.00000  0.09963
       2     C     3.14334  3.14334  0.00000 -0.28667
       3     C     3.00758  3.00758  0.00000 -0.01517
       4     H     0.43983  0.43983  0.00000  0.12034
       5     H     0.44014  0.44014  0.00000  0.11973
       6     C     3.14322  3.14322  0.00000 -0.28645
       7     N     3.27416  3.27416  0.00000  0.45168
       8     H     0.42705  0.42705  0.00000  0.14590
       9     H     0.44865  0.44865  0.00000  0.10270
      10     H     0.43429  0.43429  0.00000  0.13143
      11     H     0.44416  0.44416  0.00000  0.11168
      12     O     4.17547  4.17547  0.00000 -0.35093
      13     O     4.17193  4.17193  0.00000 -0.34386

   Total alpha = 24.00000, Total beta = 24.00000, Total charge =  0.00000

*** Psi4 exiting successfully. Buy a developer a beer!
