                              Psi4 1.0.54 Driver

  ==> Input File <==

--------------------------------------------------------------------------
set {
	reference rhf
	basis cc-pvtz
}

set_num_threads( 4 )
memory 2 gb

molecule MOL {
0 1

H	 3.721907	 -0.933076	 -0.066039
O	 2.824271	 -1.154299	 0.131461
C	 2.076458	 -0.067370	 -0.038225
C	 0.626018	 -0.337582	 0.258241
O	 2.538288	 0.965419	 -0.381593
C	 -0.267326	 0.883135	 0.076490
H	 0.325620	 -1.161483	 -0.378003
H	 0.574537	 -0.713685	 1.275261
C	 -1.726822	 0.642622	 0.463839
H	 -0.210803	 1.217591	 -0.953497
H	 0.129920	 1.693110	 0.675679
C	 -2.480891	 -0.340606	 -0.429852
H	 -2.243098	 1.597649	 0.438609
H	 -1.776542	 0.301208	 1.495542
C	 -1.617447	 -1.518842	 -0.868830
H	 -3.351714	 -0.711676	 0.104011
H	 -2.856700	 0.167331	 -1.312304
H	 -2.175772	 -2.201390	 -1.498976
H	 -1.255712	 -2.078801	 -0.013090
H	 -0.752935	 -1.181920	 -1.431197

	symmetry c1
}
set optking {
	frozen_dihedral = ("
		16 12 9 6
	")
}

ee,wfn = optimize('scf', return_wfn=True)
oeprop( wfn, 'DIPOLE', 'QUADRUPOLE', 'MULLIKEN_CHARGES')
f=open( 'psi4out.xyz', 'w' )
f.write( "20  " )
f.write( str(ee) + "\n" )
f.write( MOL.save_string_xyz() )
f.close()
--------------------------------------------------------------------------

    Molecular point group: c1
  Charge       = 0
  Multiplicity = 1
  Basis Set: CC-PVTZ
  Basis Set:
  @DF-RHF Final Energy:  -384.06644005301069
    Total Energy =                       -384.0664400530105240
    Molecular point group: c1
  Basis Set: CC-PVTZ
  Basis Set:
  Basis Set: CC-PVTZ
  Basis Set:
  @DF-RHF Final Energy:  -384.08212954820959
    Total Energy =                       -384.0821295482095366
  Basis Set: CC-PVTZ
  Basis Set:
  Basis Set: CC-PVTZ
  Basis Set:
  @DF-RHF Final Energy:  -384.08581978471113
    Total Energy =                       -384.0858197847112478
  Basis Set: CC-PVTZ
  Basis Set:
  Basis Set: CC-PVTZ
  Basis Set:
  @DF-RHF Final Energy:  -384.08651499559306
    Total Energy =                       -384.0865149955931201
  Basis Set: CC-PVTZ
  Basis Set:
  @DF-RHF Final Energy:  -384.06877155762538
    Total Energy =                       -384.0687715576258370
  @DF-RHF Final Energy:  -384.08614383885913
    Total Energy =                       -384.0861438388586748
  @DF-RHF Final Energy:  -384.06931365373828
    Total Energy =                       -384.0693136537383907
  @DF-RHF Final Energy:  -384.08738624076949
    Total Energy =                       -384.0873862407697743
  @DF-RHF Final Energy:  -384.08772153055872
    Total Energy =                       -384.0877215305584969
  @DF-RHF Final Energy:  -384.08775554987886
    Total Energy =                       -384.0877555498785796
  Basis Set: CC-PVTZ
  Basis Set:
  @DF-RHF Final Energy:  -384.08775849778777
    Total Energy =                       -384.0877584977877177
  Basis Set: CC-PVTZ
  Basis Set:
  Basis Set: CC-PVTZ
  Basis Set:
  @DF-RHF Final Energy:  -384.08775622322958
    Total Energy =                       -384.0877562232293485
  Basis Set: CC-PVTZ
  Basis Set:
  Basis Set: CC-PVTZ
  Basis Set:
  @DF-RHF Final Energy:  -384.08775881667265
    Total Energy =                       -384.0877588166732721
  Basis Set: CC-PVTZ
  Basis Set:
  Charge       = 0
  Multiplicity = 1
  Basis Set: CC-PVTZ
  Basis Set:

    Orbital Energies (a.u.)
    -----------------------

    Doubly Occupied:

       1A    -20.603462     2A    -20.540194     3A    -11.372904
       4A    -11.237596     5A    -11.220922     6A    -11.219288
       7A    -11.218712     8A    -11.211856     9A     -1.477034
      10A     -1.368591    11A     -1.095034    12A     -1.039180
      13A     -0.962761    14A     -0.881822    15A     -0.809384
      16A     -0.774674    17A     -0.703177    18A     -0.689471
      19A     -0.669376    20A     -0.631449    21A     -0.620187
      22A     -0.592941    23A     -0.572168    24A     -0.559145
      25A     -0.533935    26A     -0.515693    27A     -0.507809
      28A     -0.483979    29A     -0.470003    30A     -0.460966
      31A     -0.455981    32A     -0.443785

  @DF-RHF Final Energy:  -384.08775849615427

   => Energetics <=

    Nuclear Repulsion Energy =            383.9248568429337638
    One-Electron Energy =               -1284.1382742497326035
    Two-Electron Energy =                 516.1256589106445745
    DFT Exchange-Correlation Energy =       0.0000000000000000
    Empirical Dispersion Energy =           0.0000000000000000
    PCM Polarization Energy =               0.0000000000000000
    EFP Energy =                            0.0000000000000000
    Total Energy =                       -384.0877584961542652
    Molecular point group: c1
  Basis Set: CC-PVTZ
  Basis Set:

  -Total Gradient:
     Atom            X                  Y                   Z
    ------   -----------------  -----------------  -----------------
       1       -0.000025040942     0.000010294702    -0.000025189491
       2        0.000023611471    -0.000074900050     0.000103602737
       3        0.000032568419     0.000204222044    -0.000206667020
       4       -0.000087875870     0.000090709280    -0.000001828745
       5       -0.000045998436    -0.000064535137     0.000108263531
       6        0.000678395758    -0.001772810054     0.004079253660
       7       -0.000028177650    -0.000148357187     0.000013299394
       8        0.000046401623    -0.000010310003    -0.000044314356
       9       -0.000553601364     0.001854881946    -0.005065239304
      10        0.000031187572    -0.000010312685    -0.000037413469
      11       -0.000010338542    -0.000028262388     0.000006285267
      12       -0.002858056770     0.002442479574    -0.003418749586
      13        0.000009915435    -0.000006028331     0.000043299222
      14        0.000021517385    -0.000038333850     0.000045044783
      15        0.000016578585    -0.000004306445     0.000022011106
      16        0.002681120697    -0.002521982195     0.004339762076
      17       -0.000025056097     0.000033131279     0.000003163928
      18       -0.000005087554     0.000014825791     0.000032536320
      19        0.000048995513     0.000008555913     0.000010023599
      20        0.000048940762     0.000021037796    -0.000007143646

  **** Optimization is complete! (in 14 steps) ****
    Final optimized geometry and variables:
    Molecular point group: c1

    Geometry (in Angstrom), charge = 0, multiplicity = 1:

    H            3.353714060195     0.341291164524     1.353308077583
    O            2.444894480848     0.132867219425     1.509191463091
    C            1.735767095891     0.533207864302     0.457045622224
    C            0.270391579093     0.235534545587     0.628870246634
    O            2.238427102648     1.054737470617    -0.477482502681
    C           -0.579855567424     0.689486161069    -0.551809097593
    H            0.185678598856    -0.825834811157     0.820216860321
    H           -0.045880170225     0.726726247471     1.543352709902
    C           -2.087220872468     0.452298725558    -0.374075025085
    H           -0.222894624697     0.218914335592    -1.460613071026
    H           -0.408989583759     1.749884750931    -0.689876634351
    C           -2.652528155702    -0.905955631248    -0.826537947944
    H           -2.624242550251     1.223938262338    -0.913414575257
    H           -2.334777217695     0.603322365039     0.673991373626
    C           -1.807558081478    -2.142853562642    -0.521567821227
    H           -3.603851654169    -1.050265825303    -0.324647026876
    H           -2.849107066519    -0.874939285995    -1.893084818766
    H           -2.315811056887    -3.032853044717    -0.874198193578
    H           -1.646997992010    -2.264149769170     0.544255859156
    H           -0.839635534269    -2.110855098225    -1.007066599876

  Mulliken Charges: (a.u.)
   Center  Symbol    Alpha    Beta     Spin     Total
       1     H     0.38248  0.38248  0.00000  0.23503
       2     O     4.16083  4.16083  0.00000 -0.32166
       3     C     2.80389  2.80389  0.00000  0.39221
       4     C     3.11131  3.11131  0.00000 -0.22262
       5     O     4.19127  4.19127  0.00000 -0.38255
       6     C     3.10230  3.10230  0.00000 -0.20460
       7     H     0.43502  0.43502  0.00000  0.12996
       8     H     0.43652  0.43652  0.00000  0.12696
       9     C     3.10344  3.10344  0.00000 -0.20688
      10     H     0.44239  0.44239  0.00000  0.11523
      11     H     0.43682  0.43682  0.00000  0.12635
      12     C     3.08316  3.08316  0.00000 -0.16631
      13     H     0.44159  0.44159  0.00000  0.11683
      14     H     0.45672  0.45672  0.00000  0.08656
      15     C     3.16366  3.16366  0.00000 -0.32732
      16     H     0.45029  0.45029  0.00000  0.09942
      17     H     0.45047  0.45047  0.00000  0.09906
      18     H     0.44083  0.44083  0.00000  0.11833
      19     H     0.45444  0.45444  0.00000  0.09111
      20     H     0.45256  0.45256  0.00000  0.09489

   Total alpha = 32.00000, Total beta = 32.00000, Total charge =  0.00000

*** Psi4 exiting successfully. Buy a developer a beer!
