  ==> Input File <==

--------------------------------------------------------------------------
set {
	reference rhf
	basis cc-pvtz
}

set_num_threads( 4 )
memory 2 gb

molecule MOL {
0 1

H	 1.276911	 -0.862212	 0.874954
C	 0.788096	 -0.429819	 0.000000
N	 -0.537714	 -0.645117	 0.000000
O	 1.401087	 0.157645	 -0.834175
C	 -1.522613	 0.412524	 0.000000
H	 -0.845894	 -1.585866	 0.000000
H	 -2.150256	 0.356137	 -0.880771
H	 -1.005621	 1.357208	 0.000000
H	 -2.150256	 0.356137	 0.880771

	symmetry c1
}
set optking {
	frozen_dihedral = ("
		1 2 3 6
	")
}

ee = optimize('scf')
oeprop('DIPOLE', 'QUADRUPOLE', 'MULLIKEN_CHARGES')
f=open( 'psi4out.xyz', 'w' )
f.write( "9  " )
f.write( str(ee) + "\n" )
f.write( MOL.save_string_xyz() )
f.close()
--------------------------------------------------------------------------

    Molecular point group: c1
  Charge       = 0
  Multiplicity = 1
  Basis Set: CC-PVTZ
  Basis Set:
  @DF-RHF Final Energy:  -208.01173213154436
    Total Energy =                       -208.0117321315442496
    Molecular point group: c1
  Basis Set: CC-PVTZ
  Basis Set:
  Basis Set: CC-PVTZ
  Basis Set:
  @DF-RHF Final Energy:  -208.01901128937158
    Total Energy =                       -208.0190112893715479
  Basis Set: CC-PVTZ
  Basis Set:
  Basis Set: CC-PVTZ
  Basis Set:
  @DF-RHF Final Energy:  -208.02511912067050
    Total Energy =                       -208.0251191206705812
  Basis Set: CC-PVTZ
  Basis Set:
  Basis Set: CC-PVTZ
  Basis Set:
  @DF-RHF Final Energy:  -208.03053955911679
    Total Energy =                       -208.0305395591167894
  Basis Set: CC-PVTZ
  Basis Set:
  @DF-RHF Final Energy:  -208.03280284688822
    Total Energy =                       -208.0328028468882735
  @DF-RHF Final Energy:  -208.03337357182255
    Total Energy =                       -208.0333735718225512
  @DF-RHF Final Energy:  -208.03358926486652
    Total Energy =                       -208.0335892648664640
  @DF-RHF Final Energy:  -208.03377928939716
    Total Energy =                       -208.0337792893971596
  @DF-RHF Final Energy:  -208.03418165734900
    Total Energy =                       -208.0341816573489950
  @DF-RHF Final Energy:  -208.03428323196485
    Total Energy =                       -208.0342832319648494
  @DF-RHF Final Energy:  -208.03428889476837
    Total Energy =                       -208.0342888947683377
  @DF-RHF Final Energy:  -208.03428849041370
    Total Energy =                       -208.0342884904136156
  @DF-RHF Final Energy:  -208.02243510582778
    Total Energy =                       -208.0224351058278103
  @DF-RHF Final Energy:  -208.01991885115854
    Total Energy =                       -208.0199188511584794
  @DF-RHF Final Energy:  -208.03387284038780
    Total Energy =                       -208.0338728403878292
  @DF-RHF Final Energy:  -208.03424530157824
    Total Energy =                       -208.0342453015783235
  @DF-RHF Final Energy:  -208.03428166961137
    Total Energy =                       -208.0342816696114880
  @DF-RHF Final Energy:  -208.03428773899546
    Total Energy =                       -208.0342877389954310
  @DF-RHF Final Energy:  -208.03429297817519
    Total Energy =                       -208.0342929781750172
  @DF-RHF Final Energy:  -208.03429322189697
    Total Energy =                       -208.0342932218969736
  @DF-RHF Final Energy:  -208.03429194328021
    Total Energy =                       -208.0342919432802091
  @DF-RHF Final Energy:  -208.03429115872285
    Total Energy =                       -208.0342911587228514
  @DF-RHF Final Energy:  -208.03429174083573
    Total Energy =                       -208.0342917408357266
  @DF-RHF Final Energy:  -208.03429182678536
    Total Energy =                       -208.0342918267853918
  @DF-RHF Final Energy:  -208.03429182164251
    Total Energy =                       -208.0342918216424550
  @DF-RHF Final Energy:  -208.03429182373071
    Total Energy =                       -208.0342918237307686
  @DF-RHF Final Energy:  -208.03429151830963
    Total Energy =                       -208.0342915183096579
  @DF-RHF Final Energy:  -208.03429142030524
    Total Energy =                       -208.0342914203052942
  @DF-RHF Final Energy:  -208.03429163607439
    Total Energy =                       -208.0342916360743857
  @DF-RHF Final Energy:  -208.03429168969978
    Total Energy =                       -208.0342916896998702
  @DF-RHF Final Energy:  -208.03429087390126
    Total Energy =                       -208.0342908739013410
  @DF-RHF Final Energy:  -208.03429168558131
    Total Energy =                       -208.0342916855812234
  @DF-RHF Final Energy:  -208.03429163489434
    Total Energy =                       -208.0342916348943731
  @DF-RHF Final Energy:  -208.03429151574980
    Total Energy =                       -208.0342915157496577
  @DF-RHF Final Energy:  -208.03429157409494
    Total Energy =                       -208.0342915740948513
  @DF-RHF Final Energy:  -208.03429143334961
    Total Energy =                       -208.0342914333496651
  Basis Set: CC-PVTZ
  Basis Set:
  @DF-RHF Final Energy:  -208.03429098663091
    Total Energy =                       -208.0342909866308219
  Basis Set: CC-PVTZ
  Basis Set:
  Basis Set: CC-PVTZ
  Basis Set:
  @DF-RHF Final Energy:  -208.03429153463469
    Total Energy =                       -208.0342915346345762
  Basis Set: CC-PVTZ
  Basis Set:
  Basis Set: CC-PVTZ
  Basis Set:
  @DF-RHF Final Energy:  -208.03429133887246
    Total Energy =                       -208.0342913388724924
  Basis Set: CC-PVTZ
  Basis Set:
  Charge       = 0
  Multiplicity = 1
  Basis Set: CC-PVTZ
  Basis Set:

    Orbital Energies (a.u.)
    -----------------------

    Doubly Occupied:

       1A    -20.538020     2A    -15.579228     3A    -11.342605
       4A    -11.253062     5A     -1.410608     6A     -1.233961
       7A     -0.956886     8A     -0.807560     9A     -0.736923
      10A     -0.652415    11A     -0.645360    12A     -0.577285
      13A     -0.550656    14A     -0.536623    15A     -0.440545
      16A     -0.411210

  @DF-RHF Final Energy:  -208.03428986874198

   => Energetics <=

    Nuclear Repulsion Energy =            123.0181948934806826
    One-Electron Energy =                -526.7590814595409938
    Two-Electron Energy =                 195.7065966973183890
    DFT Exchange-Correlation Energy =       0.0000000000000000
    Empirical Dispersion Energy =           0.0000000000000000
    PCM Polarization Energy =               0.0000000000000000
    EFP Energy =                            0.0000000000000000
    Total Energy =                       -208.0342898687419506
    Molecular point group: c1
  Basis Set: CC-PVTZ
  Basis Set:

  -Total Gradient:
     Atom            X                  Y                   Z
    ------   -----------------  -----------------  -----------------
       1        0.002738336591     0.008287849601     0.007565974173
       2       -0.004617150464    -0.010018917735    -0.012601697439
       3        0.005585546902    -0.002517257549     0.015354499913
       4        0.000150356084     0.000163647316    -0.000124746786
       5        0.000755802438    -0.000245438840     0.000422058852
       6       -0.004261578973     0.004021777281    -0.010477472468
       7       -0.000131745845     0.000290436874    -0.000073866654
       8       -0.000180163602     0.000045596593    -0.000161772092
       9       -0.000039403128    -0.000027693539     0.000097022498

    Molecular point group: c1

    Geometry (in Angstrom), charge = 0, multiplicity = 1:

    H            1.502834428152    -1.087101688664     0.558426058046
    C            0.796447455846    -0.421214671804     0.060056285872
    N           -0.470931316676    -0.495841668110     0.590025107492
    O            1.158518459699     0.386212491623    -0.727012563399
    C           -1.424749921339     0.502313705597     0.124666611665
    H           -0.853409417020    -1.414088376255     0.519753256201
    H           -1.606445177596     0.450789205297    -0.942647962967
    H           -1.048647911836     1.487559385915     0.351428069853
    H           -2.356486108868     0.357134476729     0.653778134480

  Mulliken Charges: (a.u.)
   Center  Symbol    Alpha    Beta     Spin     Total
       1     H     0.45384  0.45384  0.00000  0.09233
       2     C     2.88445  2.88445  0.00000  0.23110
       3     N     3.60698  3.60698  0.00000 -0.21396
       4     O     4.19170  4.19170  0.00000 -0.38340
       5     C     3.08274  3.08274  0.00000 -0.16549
       6     H     0.42851  0.42851  0.00000  0.14299
       7     H     0.45578  0.45578  0.00000  0.08845
       8     H     0.44395  0.44395  0.00000  0.11211
       9     H     0.45206  0.45206  0.00000  0.09588

   Total alpha = 16.00000, Total beta = 16.00000, Total charge = -0.00000
