                              Psi4 1.0.54 Driver

  ==> Input File <==

--------------------------------------------------------------------------
set {
	reference rhf
	basis cc-pvtz
}

set_num_threads( 4 )
memory 2 gb

molecule MOL {
0 1

H	 -0.321163	 2.988555	 -0.795501
C	 0.411613	 2.326128	 -0.314806
C	 0.062554	 0.862911	 -0.350953
O	 1.388467	 2.779235	 0.172641
C	 -1.339253	 0.577611	 0.196911
H	 0.820815	 0.314161	 0.192561
H	 0.108422	 0.556294	 -1.393524
C	 -1.813142	 -0.849710	 -0.061612
H	 -2.032833	 1.276441	 -0.256032
H	 -1.357249	 0.782269	 1.263793
H	 -1.839268	 -1.063526	 -1.124230
H	 -2.810118	 -1.001930	 0.334000
H	 -1.159274	 -1.579980	 0.402282

	symmetry c1
}
set optking {
	frozen_dihedral = ("
		6 3 5 9
	")
}

ee,wfn = optimize('scf', return_wfn=True)
oeprop( wfn, 'DIPOLE', 'QUADRUPOLE', 'MULLIKEN_CHARGES')
f=open( 'psi4out.xyz', 'w' )
f.write( "13  " )
f.write( str(ee) + "\n" )
f.write( MOL.save_string_xyz() )
f.close()
--------------------------------------------------------------------------

    Molecular point group: c1
  Charge       = 0
  Multiplicity = 1
  Basis Set: CC-PVTZ
  Basis Set:
  @DF-RHF Final Energy:  -231.07099235655232
    Total Energy =                       -231.0709923565524946
    Molecular point group: c1
  Basis Set: CC-PVTZ
  Basis Set:
  Basis Set: CC-PVTZ
  Basis Set:
  @DF-RHF Final Energy:  -231.07111058868594
    Total Energy =                       -231.0711105886858547
  Basis Set: CC-PVTZ
  Basis Set:
  Basis Set: CC-PVTZ
  Basis Set:
  @DF-RHF Final Energy:  -231.07091188466194
    Total Energy =                       -231.0709118846617685
  Basis Set: CC-PVTZ
  Basis Set:
  Basis Set: CC-PVTZ
  Basis Set:
  @DF-RHF Final Energy:  -231.07113380971737
    Total Energy =                       -231.0711338097174803
  Basis Set: CC-PVTZ
  Basis Set:
  @DF-RHF Final Energy:  -231.07113961850041
    Total Energy =                       -231.0711396185004673
  @DF-RHF Final Energy:  -231.07114098918242
    Total Energy =                       -231.0711409891824530
  Basis Set: CC-PVTZ
  Basis Set:
  @DF-RHF Final Energy:  -231.07114355739054
    Total Energy =                       -231.0711435573904851
  Basis Set: CC-PVTZ
  Basis Set:
  Basis Set: CC-PVTZ
  Basis Set:
  @DF-RHF Final Energy:  -231.07114543192418
    Total Energy =                       -231.0711454319242648
  Basis Set: CC-PVTZ
  Basis Set:
  Basis Set: CC-PVTZ
  Basis Set:
  @DF-RHF Final Energy:  -231.07114711632133
    Total Energy =                       -231.0711471163212707
  Basis Set: CC-PVTZ
  Basis Set:
  Charge       = 0
  Multiplicity = 1
  Basis Set: CC-PVTZ
  Basis Set:

    Orbital Energies (a.u.)
    -----------------------

    Doubly Occupied:

       1A    -20.552718     2A    -11.321739     3A    -11.237471
       4A    -11.234738     5A    -11.222278     6A     -1.407495
       7A     -1.088458     8A     -0.977674     9A     -0.840777
      10A     -0.794508    11A     -0.681216    12A     -0.644446
      13A     -0.631666    14A     -0.590647    15A     -0.559967
      16A     -0.533345    17A     -0.517447    18A     -0.492098
      19A     -0.485930    20A     -0.413091

  @DF-RHF Final Energy:  -231.07114719828840

   => Energetics <=

    Nuclear Repulsion Energy =            170.8777360407933372
    One-Electron Energy =                -651.4423439304748626
    Two-Electron Energy =                 249.4934606913930111
    DFT Exchange-Correlation Energy =       0.0000000000000000
    Empirical Dispersion Energy =           0.0000000000000000
    PCM Polarization Energy =               0.0000000000000000
    EFP Energy =                            0.0000000000000000
    Total Energy =                       -231.0711471982884859
    Molecular point group: c1
  Basis Set: CC-PVTZ
  Basis Set:

  -Total Gradient:
     Atom            X                  Y                   Z
    ------   -----------------  -----------------  -----------------
       1        0.000014911607     0.000002760119     0.000009023424
       2       -0.000021045308    -0.000021710392    -0.000006735039
       3       -0.000109634059    -0.001067987869    -0.000813723291
       4        0.000001831651     0.000012558290    -0.000001748897
       5       -0.000234559149    -0.000783121862    -0.000961480945
       6        0.000129080702     0.001010447063     0.000828171644
       7        0.000000785385     0.000000615143    -0.000003460523
       8        0.000002661537     0.000002067037    -0.000006177659
       9        0.000216543369     0.000838408794     0.000956235914
      10       -0.000000546860     0.000002551796     0.000001407654
      11       -0.000001691072    -0.000002709849    -0.000002944190
      12        0.000000794502     0.000002028924     0.000000738703
      13        0.000000867701     0.000004092810     0.000000693205

  **** Optimization is complete! (in 10 steps) ****
    Final optimized geometry and variables:
    Molecular point group: c1

    Geometry (in Angstrom), charge = 0, multiplicity = 1:

    H            0.003106034971     1.852248082773    -0.806726744044
    C            0.681407849817     1.185389661711    -0.258194620381
    C            0.327557531000    -0.275366356367    -0.318644232687
    O            1.606321191041     1.632987818398     0.326292475563
    C           -1.075890497488    -0.543020929079     0.232712771735
    H            1.077685975854    -0.826577457099     0.232993880672
    H            0.372971037566    -0.579474161083    -1.362134523767
    C           -1.538496300908    -1.975830161547    -0.003039866240
    H           -1.781809708028     0.149646462511    -0.216770572189
    H           -1.080748937478    -0.329852958398     1.296887112191
    H           -1.587751232901    -2.201366100687    -1.062749948623
    H           -2.522941118906    -2.140143732752     0.418155492633
    H           -0.858517247219    -2.685145022400     0.455492393894

  Mulliken Charges: (a.u.)
   Center  Symbol    Alpha    Beta     Spin     Total
       1     H     0.46551  0.46551  0.00000  0.06899
       2     C     2.90710  2.90710  0.00000  0.18580
       3     C     3.07789  3.07789  0.00000 -0.15578
       4     O     4.16375  4.16375  0.00000 -0.32750
       5     C     3.09588  3.09588  0.00000 -0.19176
       6     H     0.44233  0.44233  0.00000  0.11534
       7     H     0.45141  0.45141  0.00000  0.09718
       8     C     3.14720  3.14720  0.00000 -0.29439
       9     H     0.45228  0.45228  0.00000  0.09544
      10     H     0.44539  0.44539  0.00000  0.10922
      11     H     0.45418  0.45418  0.00000  0.09163
      12     H     0.44576  0.44576  0.00000  0.10849
      13     H     0.45132  0.45132  0.00000  0.09736

   Total alpha = 20.00000, Total beta = 20.00000, Total charge =  0.00000

*** Psi4 exiting successfully. Buy a developer a beer!
