                              Psi4 1.0.54 Driver

  ==> Input File <==

--------------------------------------------------------------------------
set {
	reference rhf
	basis cc-pvtz
}

set_num_threads( 4 )
memory 2 gb

molecule MOL {
0 1

H	 -1.835082	 1.385983	 0.000069
C	 -1.300516	 0.441153	 -0.000028
O	 -0.006604	 0.654344	 -0.000106
O	 -1.828920	 -0.612308	 0.000113
C	 0.749518	 0.139637	 -1.092433
C	 2.196196	 0.509641	 -0.866776
H	 0.368089	 0.562193	 -2.011082
H	 0.613821	 -0.931601	 -1.137137
H	 2.316472	 1.584512	 -0.820323
H	 2.800400	 0.131611	 -1.682793
H	 2.563436	 0.083228	 0.058035

	symmetry c1
}
set optking {
	frozen_dihedral = ("
		5 3 2 4
	")
}

ee,wfn = optimize('scf', return_wfn=True)
oeprop( wfn, 'DIPOLE', 'QUADRUPOLE', 'MULLIKEN_CHARGES')
f=open( 'psi4out.xyz', 'w' )
f.write( "11  " )
f.write( str(ee) + "\n" )
f.write( MOL.save_string_xyz() )
f.close()
--------------------------------------------------------------------------

    Molecular point group: c1
  Charge       = 0
  Multiplicity = 1
  Basis Set: CC-PVTZ
  Basis Set:
  @DF-RHF Final Energy:  -266.91684809627793
    Total Energy =                       -266.9168480962779313
    Molecular point group: c1
  Basis Set: CC-PVTZ
  Basis Set:
  Basis Set: CC-PVTZ
  Basis Set:
  @DF-RHF Final Energy:  -266.90875428004665
    Total Energy =                       -266.9087542800464803
  Basis Set: CC-PVTZ
  Basis Set:
  Basis Set: CC-PVTZ
  Basis Set:
  @DF-RHF Final Energy:  -266.91684186539624
    Total Energy =                       -266.9168418653962362
  Basis Set: CC-PVTZ
  Basis Set:
  Basis Set: CC-PVTZ
  Basis Set:
  @DF-RHF Final Energy:  -266.91779950619440
    Total Energy =                       -266.9177995061942283
  Basis Set: CC-PVTZ
  Basis Set:
  Basis Set: CC-PVTZ
  Basis Set:
  @DF-RHF Final Energy:  -266.91789236633190
    Total Energy =                       -266.9178923663320120
  Basis Set: CC-PVTZ
  Basis Set:
  Basis Set: CC-PVTZ
  Basis Set:
  @DF-RHF Final Energy:  -266.91791291827781
    Total Energy =                       -266.9179129182776933
  Basis Set: CC-PVTZ
  Basis Set:
  Charge       = 0
  Multiplicity = 1
  Basis Set: CC-PVTZ
  Basis Set:

    Orbital Energies (a.u.)
    -----------------------

    Doubly Occupied:

       1A    -20.589953     2A    -20.555598     3A    -11.372713
       4A    -11.295470     5A    -11.225551     6A     -1.470955
       7A     -1.379496     8A     -1.050806     9A     -0.895117
      10A     -0.816387    11A     -0.743143    12A     -0.690814
      13A     -0.661394    14A     -0.628017    15A     -0.564012
      16A     -0.545876    17A     -0.532684    18A     -0.509757
      19A     -0.467126    20A     -0.452850

  @DF-RHF Final Energy:  -266.91791382454443

   => Energetics <=

    Nuclear Repulsion Energy =            178.1268813487980651
    One-Electron Energy =                -717.1941519118325914
    Two-Electron Energy =                 272.1493567384901553
    DFT Exchange-Correlation Energy =       0.0000000000000000
    Empirical Dispersion Energy =           0.0000000000000000
    PCM Polarization Energy =               0.0000000000000000
    EFP Energy =                            0.0000000000000000
    Total Energy =                       -266.9179138245443710
    Molecular point group: c1
  Basis Set: CC-PVTZ
  Basis Set:

  -Total Gradient:
     Atom            X                  Y                   Z
    ------   -----------------  -----------------  -----------------
       1       -0.000016118877    -0.000032631965    -0.000019367931
       2       -0.001179504539     0.001514965384    -0.014796204083
       3        0.002076919581    -0.007521265853     0.010084084037
       4        0.000444837122     0.000813044184     0.008568843570
       5       -0.001324120881     0.005246655364    -0.003851892193
       6       -0.000025801038    -0.000001218470     0.000022050617
       7        0.000028817428    -0.000020909122    -0.000012218424
       8        0.000012769562     0.000013735179     0.000002647607
       9       -0.000008526056    -0.000010285060    -0.000002204108
      10       -0.000012197257    -0.000002701401     0.000005424407
      11        0.000002924955     0.000000611759    -0.000001163499

  **** Optimization is complete! (in 7 steps) ****
    Final optimized geometry and variables:
    Molecular point group: c1

    Geometry (in Angstrom), charge = 0, multiplicity = 1:

    H           -1.868078872628     1.134016277633     0.457359242255
    C           -1.272743912786     0.224815666713     0.420145877850
    O            0.026748332082     0.491228050206     0.332204136587
    O           -1.736596354952    -0.846592432516     0.543338596261
    C            0.757129983474    -0.090379318507    -0.744438179220
    C            2.218404786093     0.234960092529    -0.550046015371
    H            0.388266419135     0.325285909921    -1.675116109586
    H            0.589613883509    -1.158163935528    -0.752732603951
    H            2.373751912746     1.305957926771    -0.529023766456
    H            2.797816775021    -0.181801783525    -1.365360934162
    H            2.580319795454    -0.183743902623     0.379972184939

  Mulliken Charges: (a.u.)
   Center  Symbol    Alpha    Beta     Spin     Total
       1     H     0.45888  0.45888  0.00000  0.08225
       2     C     2.83800  2.83800  0.00000  0.32399
       3     O     4.15855  4.15855  0.00000 -0.31710
       4     O     4.17470  4.17470  0.00000 -0.34940
       5     C     2.96990  2.96990  0.00000  0.06020
       6     C     3.13466  3.13466  0.00000 -0.26931
       7     H     0.46270  0.46270  0.00000  0.07461
       8     H     0.44938  0.44938  0.00000  0.10125
       9     H     0.45013  0.45013  0.00000  0.09973
      10     H     0.45569  0.45569  0.00000  0.08862
      11     H     0.44741  0.44741  0.00000  0.10517

   Total alpha = 20.00000, Total beta = 20.00000, Total charge =  0.00000

*** Psi4 exiting successfully. Buy a developer a beer!
