  ==> Input File <==

--------------------------------------------------------------------------
set {
	reference rhf
	basis 6-31G*
}

set_num_threads( 4 )
memory 2 gb

molecule MOL {
0 1

H	 -3.420663	 1.227371	 -1.044276
O	 -3.452007	 0.283848	 -0.965577
C	 -3.181085	 -0.079926	 0.364119
C	 -1.765924	 0.277073	 0.805136
H	 -3.327791	 -1.152017	 0.410903
H	 -3.905698	 0.375695	 1.036898
C	 -0.677594	 -0.417312	 -0.014550
H	 -1.637766	 1.358238	 0.744969
H	 -1.659588	 0.017670	 1.857098
C	 0.738335	 -0.034840	 0.421385
H	 -0.814977	 -0.178223	 -1.064632
H	 -0.802730	 -1.495410	 0.071702
C	 1.822265	 -0.738362	 -0.399735
H	 0.853533	 1.043532	 0.342250
H	 0.871597	 -0.279636	 1.474438
C	 3.258060	 -0.455774	 0.057203
H	 1.718003	 -0.459167	 -1.447053
H	 1.651028	 -1.811884	 -0.354513
C	 3.438396	 -0.375315	 1.574243
H	 3.580058	 0.485387	 -0.381915
H	 3.920415	 -1.219702	 -0.345167
H	 2.778733	 0.372582	 2.006253
H	 4.457939	 -0.100780	 1.827225
H	 3.227408	 -1.322499	 2.059517

	symmetry c1
}
set optking {
	frozen_dihedral = ("
		20 16 13 17
	")
}

ee = optimize('scf')
oeprop('DIPOLE', 'QUADRUPOLE', 'MULLIKEN_CHARGES')
f=open( 'psi4out.xyz', 'w' )
f.write( "24  " )
f.write( str(ee) + "\n" )
f.write( MOL.save_string_xyz() )
f.close()
--------------------------------------------------------------------------

    Molecular point group: c1
  Charge       = 0
  Multiplicity = 1
  Basis Set: 6-31G*
  Basis Set:
  @DF-RHF Final Energy:  -349.24346008185125
    Total Energy =                       -349.2434600818512536
    Molecular point group: c1
  Basis Set: 6-31G*
  Basis Set:
  Basis Set: 6-31G*
  Basis Set:
  @DF-RHF Final Energy:  -349.24466547598797
    Total Energy =                       -349.2446654759879721
  Basis Set: 6-31G*
  Basis Set:
  Basis Set: 6-31G*
  Basis Set:
  @DF-RHF Final Energy:  -349.24554582902516
    Total Energy =                       -349.2455458290249339
  Basis Set: 6-31G*
  Basis Set:
  Basis Set: 6-31G*
  Basis Set:
  @DF-RHF Final Energy:  -349.24558154548345
    Total Energy =                       -349.2455815454834465
  Basis Set: 6-31G*
  Basis Set:
  Basis Set: 6-31G*
  Basis Set:
  @DF-RHF Final Energy:  -349.24562050683892
    Total Energy =                       -349.2456205068389181
  Basis Set: 6-31G*
  Basis Set:
  Basis Set: 6-31G*
  Basis Set:
  @DF-RHF Final Energy:  -349.24562506330864
    Total Energy =                       -349.2456250633080685
  Basis Set: 6-31G*
  Basis Set:
  Basis Set: 6-31G*
  Basis Set:
  @DF-RHF Final Energy:  -349.24562693457153
    Total Energy =                       -349.2456269345714190
  Basis Set: 6-31G*
  Basis Set:
  Charge       = 0
  Multiplicity = 1
  Basis Set: 6-31G*
  Basis Set:

    Orbital Energies (a.u.)
    -----------------------

    Doubly Occupied:

       1A    -20.553517     2A    -11.267617     3A    -11.217321
       4A    -11.214082     5A    -11.212177     6A    -11.211625
       7A    -11.210869     8A    -11.207701     9A     -1.360102
      10A     -1.088163    11A     -1.047638    12A     -0.985041
      13A     -0.915465    14A     -0.852747    15A     -0.801499
      16A     -0.771620    17A     -0.678928    18A     -0.655788
      19A     -0.626143    20A     -0.618253    21A     -0.594426
      22A     -0.586157    23A     -0.555007    24A     -0.543795
      25A     -0.517747    26A     -0.505364    27A     -0.501185
      28A     -0.471109    29A     -0.468234    30A     -0.458416
      31A     -0.455000    32A     -0.450058    33A     -0.418440

  @DF-RHF Final Energy:  -349.24562718400495

   => Energetics <=

    Nuclear Repulsion Energy =            385.0187112277633901
    One-Electron Energy =               -1236.4862085409788506
    Two-Electron Energy =                 502.2218701292105152
    DFT Exchange-Correlation Energy =       0.0000000000000000
    Empirical Dispersion Energy =           0.0000000000000000
    PCM Polarization Energy =               0.0000000000000000
    EFP Energy =                            0.0000000000000000
    Total Energy =                       -349.2456271840050022
    Molecular point group: c1
  Basis Set: 6-31G*
  Basis Set:

  -Total Gradient:
     Atom            X                  Y                   Z
    ------   -----------------  -----------------  -----------------
       1        0.000000054384    -0.000000598168     0.000000523401
       2       -0.000002926801    -0.000000551045    -0.000002421382
       3        0.000001317448     0.000002114871    -0.000002371942
       4        0.000003222587     0.000010903367    -0.000005320015
       5       -0.000000005814     0.000000078361     0.000000466201
       6       -0.000000359972    -0.000000604309     0.000000140430
       7       -0.000001814862    -0.000010866772     0.000005380190
       8       -0.000007218448     0.000006157333     0.000003682496
       9        0.000008213364    -0.000002002526    -0.000005850237
      10        0.000004078786    -0.000048732160     0.000035961366
      11       -0.000007400766     0.000008696719     0.000008485248
      12        0.000009152649    -0.000006358420    -0.000009063031
      13        0.002255102296    -0.005808897935    -0.002411696036
      14        0.000008639321    -0.000010626270    -0.000012506624
      15       -0.000010076857     0.000013815872     0.000015654865
      16       -0.002339247910     0.003845150586     0.004986122107
      17       -0.001535825052     0.004339474633     0.001193534409
      18       -0.000009010356     0.000011097405     0.000012197984
      19       -0.000003410520     0.000039504862     0.000008740718
      20        0.001629129751    -0.002389385186    -0.003819244415
      21        0.000000422263     0.000003653255    -0.000012936430
      22        0.000001402693    -0.000001769777     0.000009411037
      23       -0.000001768049     0.000000128610     0.000002049655
      24       -0.000001670135    -0.000000383307    -0.000000939989

  **** Optimization is complete! (in 8 steps) ****
    Final optimized geometry and variables:
    Molecular point group: c1

    Geometry (in Angstrom), charge = 0, multiplicity = 1:

    H           -3.330950630719     1.485840800530    -1.281832393949
    O           -3.386418863007     0.540935031724    -1.244172346554
    C           -3.174211588405     0.116361772629     0.078196284883
    C           -1.769019485245     0.420733459802     0.585632090247
    H           -3.346550308702    -0.952838797819     0.074337255038
    H           -3.913364982853     0.561066883339     0.742340733497
    C           -0.666350620745    -0.264992747968    -0.222093643337
    H           -1.614425876619     1.500091569572     0.575688973956
    H           -1.708329445090     0.115786626587     1.628944545464
    C            0.740632044049     0.071172821957     0.276447164364
    H           -0.763192782753     0.014968943615    -1.266452169421
    H           -0.815017791584    -1.342972177070    -0.180442040972
    C            1.835599265864    -0.641961379532    -0.524977904622
    H            0.894711335438     1.148214593374     0.217635556178
    H            0.817315140854    -0.190707426461     1.328711100869
    C            3.273565125696    -0.230914461714    -0.168920629072
    H            1.668212360862    -0.409863181295    -1.574201900448
    H            1.719557154215    -1.717008706368    -0.408231869569
    C            3.592615839379    -0.154340615552     1.323785043168
    H            3.510304403515     0.712070565502    -0.656748264474
    H            3.946411671624    -0.953642637411    -0.626259847787
    H            3.041797112589     0.638238974658     1.818629641892
    H            4.649993189235     0.037553582191     1.477782011546
    H            3.351597172779    -1.088261006015     1.824797121866

  Mulliken Charges: (a.u.)
   Center  Symbol    Alpha    Beta     Spin     Total
       1     H     0.28340  0.28340  0.00000  0.43320
       2     O     4.36830  4.36830  0.00000 -0.73661
       3     C     2.99617  2.99617  0.00000  0.00766
       4     C     3.16888  3.16888  0.00000 -0.33775
       5     H     0.41634  0.41634  0.00000  0.16731
       6     H     0.42819  0.42819  0.00000  0.14363
       7     C     3.15190  3.15190  0.00000 -0.30379
       8     H     0.42834  0.42834  0.00000  0.14332
       9     H     0.42242  0.42242  0.00000  0.15517
      10     C     3.15514  3.15514  0.00000 -0.31028
      11     H     0.41221  0.41221  0.00000  0.17557
      12     H     0.42370  0.42370  0.00000  0.15261
      13     C     3.15179  3.15179  0.00000 -0.30357
      14     H     0.42576  0.42576  0.00000  0.14849
      15     H     0.42234  0.42234  0.00000  0.15532
      16     C     3.15261  3.15261  0.00000 -0.30521
      17     H     0.42157  0.42157  0.00000  0.15685
      18     H     0.42306  0.42306  0.00000  0.15387
      19     C     3.24204  3.24204  0.00000 -0.48408
      20     H     0.42293  0.42293  0.00000  0.15414
      21     H     0.42166  0.42166  0.00000  0.15668
      22     H     0.41966  0.41966  0.00000  0.16069
      23     H     0.41935  0.41935  0.00000  0.16129
      24     H     0.42226  0.42226  0.00000  0.15549

   Total alpha = 33.00000, Total beta = 33.00000, Total charge =  0.00000
