  ==> Input File <==

--------------------------------------------------------------------------
set {
	reference rhf
	basis 6-31G*
}

set_num_threads( 1 )
memory 2 gb

molecule MOL {
0 1

H	 -3.261111	 -0.295142	 1.469456
C	 -3.306842	 -0.277400	 0.373456
C	 -2.660244	 0.921717	 -0.272021
O	 -3.838538	 -1.161155	 -0.216482
C	 -1.399261	 1.382382	 0.472266
H	 -2.446335	 0.679553	 -1.306578
H	 -3.395474	 1.725458	 -0.262380
C	 -0.247244	 0.376810	 0.401692
H	 -1.077531	 2.329753	 0.050054
H	 -1.647497	 1.583828	 1.513205
C	 1.006271	 0.853971	 1.137784
H	 -0.005107	 0.185673	 -0.641708
H	 -0.564853	 -0.577993	 0.816440
C	 2.161603	 -0.146891	 1.051576
H	 1.312647	 1.812459	 0.726485
H	 0.763552	 1.032982	 2.184410
C	 3.412429	 0.250487	 1.843786
H	 2.430992	 -0.296896	 0.007248
H	 1.814306	 -1.111320	 1.416230
C	 4.125860	 1.498562	 1.321346
H	 4.110167	 -0.583007	 1.823847
H	 3.145697	 0.397074	 2.888434
H	 4.390367	 1.386762	 0.273107
H	 3.510749	 2.387353	 1.414430
H	 5.042299	 1.678339	 1.875255

	symmetry c1
}
set optking {
	frozen_dihedral = ("
		6 3 5 8,
		3 5 8 12,
		12 8 11 14,
		8 11 14 18,
		20 17 14 18
	")
}

ee = energy('scf')
oeprop('DIPOLE', 'QUADRUPOLE', 'MULLIKEN_CHARGES')
f=open( 'psi4out.xyz', 'w' )
f.write( "25  " )
f.write( str(ee) + "\n" )
f.write( MOL.save_string_xyz() )
f.close()
--------------------------------------------------------------------------

    Molecular point group: c1

    Geometry (in Angstrom), charge = 0, multiplicity = 1:

       Center              X                  Y                   Z               Mass
    ------------   -----------------  -----------------  -----------------  -----------------
           H         -3.182646789532    -0.702372961830     0.791534079998     1.007825032070
           C         -3.228377789532    -0.684630961830    -0.304465920002    12.000000000000
           C         -2.581779789532     0.514486038170    -0.949942920002    12.000000000000
           O         -3.760073789532    -1.568385961830    -0.894403920002    15.994914619560
           C         -1.320796789532     0.975151038170    -0.205655920002    12.000000000000
           H         -2.367870789532     0.272322038170    -1.984499920002     1.007825032070
           H         -3.317009789532     1.318227038170    -0.940301920002     1.007825032070
           C         -0.168779789532    -0.030420961830    -0.276229920002    12.000000000000
           H         -0.999066789532     1.922522038170    -0.627867920002     1.007825032070
           H         -1.569032789532     1.176597038170     0.835283079998     1.007825032070
           C          1.084735210468     0.446740038170     0.459862079998    12.000000000000
           H          0.073357210468    -0.221557961830    -1.319629920002     1.007825032070
           H         -0.486388789532    -0.985223961830     0.138518079998     1.007825032070
           C          2.240067210468    -0.554121961830     0.373654079998    12.000000000000
           H          1.391111210468     1.405228038170     0.048563079998     1.007825032070
           H          0.842016210468     0.625751038170     1.506488079998     1.007825032070
           C          3.490893210468    -0.156743961830     1.165864079998    12.000000000000
           H          2.509456210468    -0.704126961830    -0.670673920002     1.007825032070
           H          1.892770210468    -1.518550961830     0.738308079998     1.007825032070
           C          4.204324210468     1.091331038170     0.643424079998    12.000000000000
           H          4.188631210468    -0.990237961830     1.145925079998     1.007825032070
           H          3.224161210468    -0.010156961830     2.210512079998     1.007825032070
           H          4.468831210468     0.979531038170    -0.404814920002     1.007825032070
           H          3.589213210468     1.980122038170     0.736508079998     1.007825032070
           H          5.120763210468     1.271108038170     1.197333079998     1.007825032070

  Charge       = 0
  Multiplicity = 1
  Basis Set: 6-31G*
  Basis Set:

    Orbital Energies (a.u.)
    -----------------------

    Doubly Occupied:

       1A    -20.561481     2A    -11.326272     3A    -11.235194
       4A    -11.234344     5A    -11.225660     6A    -11.220977
       7A    -11.218856     8A    -11.218016     9A    -11.211365
      10A     -1.401664    11A     -1.105045    12A     -1.070528
      13A     -1.014050    14A     -0.942736    15A     -0.875249
      16A     -0.822171    17A     -0.789178    18A     -0.782593
      19A     -0.664312    20A     -0.658335    21A     -0.633511
      22A     -0.629191    23A     -0.605624    24A     -0.596230
      25A     -0.572647    26A     -0.550115    27A     -0.537372
      28A     -0.525956    29A     -0.507386    30A     -0.496608
      31A     -0.491622    32A     -0.480584    33A     -0.465808
      34A     -0.459943    35A     -0.441899    36A     -0.409488

  @DF-RHF Final Energy:  -387.12173231163854

   => Energetics <=

    Nuclear Repulsion Energy =            438.2121487152388681
    One-Electron Energy =               -1392.7037867654253205
    Two-Electron Energy =                 567.3699057385492779
    DFT Exchange-Correlation Energy =       0.0000000000000000
    Empirical Dispersion Energy =           0.0000000000000000
    PCM Polarization Energy =               0.0000000000000000
    EFP Energy =                            0.0000000000000000
    Total Energy =                       -387.1217323116371745

  Mulliken Charges: (a.u.)
   Center  Symbol    Alpha    Beta     Spin     Total
       1     H     0.43203  0.43203  0.00000  0.13593
       2     C     2.83160  2.83160  0.00000  0.33680
       3     C     3.20844  3.20844  0.00000 -0.41687
       4     O     4.23909  4.23909  0.00000 -0.47818
       5     C     3.16746  3.16746  0.00000 -0.33493
       6     H     0.39903  0.39903  0.00000  0.20195
       7     H     0.40267  0.40267  0.00000  0.19465
       8     C     3.15509  3.15509  0.00000 -0.31018
       9     H     0.41314  0.41314  0.00000  0.17373
      10     H     0.41969  0.41969  0.00000  0.16061
      11     C     3.15397  3.15397  0.00000 -0.30794
      12     H     0.41822  0.41822  0.00000  0.16356
      13     H     0.42036  0.42036  0.00000  0.15929
      14     C     3.15314  3.15314  0.00000 -0.30627
      15     H     0.42044  0.42044  0.00000  0.15913
      16     H     0.42348  0.42348  0.00000  0.15304
      17     C     3.15279  3.15279  0.00000 -0.30558
      18     H     0.42301  0.42301  0.00000  0.15399
      19     H     0.42096  0.42096  0.00000  0.15809
      20     C     3.24139  3.24139  0.00000 -0.48278
      21     H     0.41989  0.41989  0.00000  0.16021
      22     H     0.42314  0.42314  0.00000  0.15373
      23     H     0.42186  0.42186  0.00000  0.15628
      24     H     0.42061  0.42061  0.00000  0.15879
      25     H     0.41852  0.41852  0.00000  0.16296

   Total alpha = 36.00000, Total beta = 36.00000, Total charge =  0.00000
