  ==> Input File <==

--------------------------------------------------------------------------
set {
	reference rhf
	basis cc-pvtz
}

set_num_threads( 4 )
memory 2 gb

molecule MOL {
0 1

H	 1.127368	 -1.575496	 -0.683693
C	 0.501843	 -0.696384	 -0.849010
N	 -0.537714	 -0.645117	 0.000000
O	 0.751526	 0.100030	 -1.697598
C	 -1.522613	 0.412524	 0.000000
H	 -0.623795	 -1.379043	 0.658730
H	 -2.150256	 0.356137	 -0.880771
H	 -1.005621	 1.357208	 0.000000
H	 -2.150256	 0.356137	 0.880771

	symmetry c1
}
set optking {
	frozen_dihedral = ("
		6 3 5 7
	")
}

ee = optimize('scf')
oeprop('DIPOLE', 'QUADRUPOLE', 'MULLIKEN_CHARGES')
f=open( 'psi4out.xyz', 'w' )
f.write( "9  " )
f.write( str(ee) + "\n" )
f.write( MOL.save_string_xyz() )
f.close()
--------------------------------------------------------------------------

    Molecular point group: c1
  Charge       = 0
  Multiplicity = 1
  Basis Set: CC-PVTZ
  Basis Set:
  @DF-RHF Final Energy:  -208.04316571822699
    Total Energy =                       -208.0431657182269305
    Molecular point group: c1
  Basis Set: CC-PVTZ
  Basis Set:
  Basis Set: CC-PVTZ
  Basis Set:
  @DF-RHF Final Energy:  -208.04359857881684
    Total Energy =                       -208.0435985788168978
  Basis Set: CC-PVTZ
  Basis Set:
  Basis Set: CC-PVTZ
  Basis Set:
  @DF-RHF Final Energy:  -208.04362029017614
    Total Energy =                       -208.0436202901761362
  Basis Set: CC-PVTZ
  Basis Set:
  Basis Set: CC-PVTZ
  Basis Set:
  @DF-RHF Final Energy:  -208.04364873185196
    Total Energy =                       -208.0436487318521301
  Basis Set: CC-PVTZ
  Basis Set:
  Basis Set: CC-PVTZ
  Basis Set:
  @DF-RHF Final Energy:  -208.04366477637871
    Total Energy =                       -208.0436647763787050
  Basis Set: CC-PVTZ
  Basis Set:
  Basis Set: CC-PVTZ
  Basis Set:
  @DF-RHF Final Energy:  -208.04366784625455
    Total Energy =                       -208.0436678462545785
  Basis Set: CC-PVTZ
  Basis Set:
  Charge       = 0
  Multiplicity = 1
  Basis Set: CC-PVTZ
  Basis Set:

    Orbital Energies (a.u.)
    -----------------------

    Doubly Occupied:

       1A    -20.516619     2A    -15.584377     3A    -11.335969
       4A    -11.260529     5A     -1.393953     6A     -1.239337
       7A     -0.969789     8A     -0.809265     9A     -0.749156
      10A     -0.645812    11A     -0.629954    12A     -0.596146
      13A     -0.559584    14A     -0.536936    15A     -0.428243
      16A     -0.396752

  @DF-RHF Final Energy:  -208.04366957091690

   => Energetics <=

    Nuclear Repulsion Energy =            122.9396335083793161
    One-Electron Energy =                -526.6617620375898241
    Two-Electron Energy =                 195.6784589582934473
    DFT Exchange-Correlation Energy =       0.0000000000000000
    Empirical Dispersion Energy =           0.0000000000000000
    PCM Polarization Energy =               0.0000000000000000
    EFP Energy =                            0.0000000000000000
    Total Energy =                       -208.0436695709170749
    Molecular point group: c1
  Basis Set: CC-PVTZ
  Basis Set:

  -Total Gradient:
     Atom            X                  Y                   Z
    ------   -----------------  -----------------  -----------------
       1        0.000013748071    -0.000003401512    -0.000005150762
       2       -0.000051297518    -0.000042688813     0.000065916250
       3        0.000017879632    -0.000035116043    -0.000066528807
       4        0.000000712188     0.000032274883    -0.000020354931
       5       -0.000049100279     0.000026156927     0.000027870660
       6        0.000031017197     0.000025219314     0.000019229485
       7        0.000028602170     0.000016529625    -0.000011938166
       8        0.000002075788    -0.000010461731    -0.000003061486
       9        0.000006362749    -0.000008512649    -0.000005982243

  **** Optimization is complete! (in 7 steps) ****
    Final optimized geometry and variables:
    Molecular point group: c1

    Geometry (in Angstrom), charge = 0, multiplicity = 1:

    H            1.351688493283    -1.376606131065    -0.064536802598
    C            0.713014244944    -0.504576466399    -0.217253864262
    N           -0.301287631630    -0.440673707784     0.658301658439
    O            0.923443885595     0.291849442275    -1.076670771864
    C           -1.284276557163     0.619404193026     0.623150968447
    H           -0.403389722429    -1.177762710323     1.309807190419
    H           -1.884981844213     0.571338480849    -0.275902702957
    H           -0.800110780239     1.584768249267     0.655373601806
    H           -1.930812367082     0.522040453354     1.483184076229

  Mulliken Charges: (a.u.)
   Center  Symbol    Alpha    Beta     Spin     Total
       1     H     0.46442  0.46442  0.00000  0.07116
       2     C     2.87950  2.87950  0.00000  0.24099
       3     N     3.60562  3.60562  0.00000 -0.21125
       4     O     4.21438  4.21438  0.00000 -0.42877
       5     C     3.07507  3.07507  0.00000 -0.15015
       6     H     0.41003  0.41003  0.00000  0.17993
       7     H     0.45105  0.45105  0.00000  0.09790
       8     H     0.44536  0.44536  0.00000  0.10928
       9     H     0.45455  0.45455  0.00000  0.09090

   Total alpha = 16.00000, Total beta = 16.00000, Total charge =  0.00000
