  ==> Input File <==

--------------------------------------------------------------------------
set {
	reference rhf
	basis cc-pvtz
}

set_num_threads( 4 )
memory 2 gb

molecule MOL {
0 1

H	 -2.557784	 -0.502796	 0.448414
N	 -1.797991	 0.143955	 0.448155
C	 -0.561396	 -0.500007	 0.035200
H	 -1.718909	 0.506073	 1.375492
C	 0.575129	 0.507849	 -0.048832
H	 -0.724896	 -0.935450	 -0.945042
H	 -0.266417	 -1.317248	 0.695139
C	 1.951750	 -0.141983	 0.035101
H	 0.478254	 1.061643	 -0.975981
H	 0.467676	 1.231891	 0.755499
H	 2.101550	 -0.848142	 -0.774949
H	 2.738260	 0.600794	 -0.026526
H	 2.078939	 -0.679792	 0.968824

	symmetry c1
}
set optking {
	frozen_dihedral = ("
		6 3 5 9
	")
}

ee = optimize('scf')
oeprop('DIPOLE', 'QUADRUPOLE', 'MULLIKEN_CHARGES')
f=open( 'psi4out.xyz', 'w' )
f.write( "13  " )
f.write( str(ee) + "\n" )
f.write( MOL.save_string_xyz() )
f.close()
--------------------------------------------------------------------------

    Molecular point group: c1
  Charge       = 0
  Multiplicity = 1
  Basis Set: CC-PVTZ
  Basis Set:
  @DF-RHF Final Energy:  -173.35061537999431
    Total Energy =                       -173.3506153799943377
    Molecular point group: c1
  Basis Set: CC-PVTZ
  Basis Set:
  Basis Set: CC-PVTZ
  Basis Set:
  @DF-RHF Final Energy:  -173.35084493893643
    Total Energy =                       -173.3508449389364614
  Basis Set: CC-PVTZ
  Basis Set:
  Basis Set: CC-PVTZ
  Basis Set:
  @DF-RHF Final Energy:  -173.35089414639660
    Total Energy =                       -173.3508941463965130
  Basis Set: CC-PVTZ
  Basis Set:
  Charge       = 0
  Multiplicity = 1
  Basis Set: CC-PVTZ
  Basis Set:

    Orbital Energies (a.u.)
    -----------------------

    Doubly Occupied:

       1A    -15.526349     2A    -11.238565     3A    -11.210638
       4A    -11.206793     5A     -1.177773     6A     -1.035602
       7A     -0.898857     8A     -0.799761     9A     -0.667443
      10A     -0.622671    11A     -0.607646    12A     -0.566573
      13A     -0.532296    14A     -0.490853    15A     -0.478709
      16A     -0.468108    17A     -0.384035

  @DF-RHF Final Energy:  -173.35089492056187

   => Energetics <=

    Nuclear Repulsion Energy =            131.9477265116358922
    One-Electron Energy =                -494.7718973180282660
    Two-Electron Energy =                 189.4732758858305885
    DFT Exchange-Correlation Energy =       0.0000000000000000
    Empirical Dispersion Energy =           0.0000000000000000
    PCM Polarization Energy =               0.0000000000000000
    EFP Energy =                            0.0000000000000000
    Total Energy =                       -173.3508949205617853
    Molecular point group: c1
  Basis Set: CC-PVTZ
  Basis Set:

  -Total Gradient:
     Atom            X                  Y                   Z
    ------   -----------------  -----------------  -----------------
       1       -0.000023088873     0.000029569295     0.000011304914
       2        0.000001823423    -0.000097157280    -0.000048428787
       3        0.003933196110    -0.004318800338     0.000768411335
       4        0.000027821615    -0.000021247010    -0.000043407095
       5       -0.003575209976     0.004206138308     0.002151088121
       6       -0.002805265437     0.003067054954    -0.000880739321
       7        0.000006565988    -0.000008339125    -0.000004173031
       8       -0.000007987456     0.000038197576     0.000033210756
       9        0.002400338340    -0.002832506381    -0.001969066890
      10        0.000004941731    -0.000035657669    -0.000013490664
      11        0.000000430525     0.000001473422    -0.000004261625
      12        0.000018445914    -0.000003817634     0.000003092247
      13        0.000017988100    -0.000024908117    -0.000003539959

  **** Optimization is complete! (in 4 steps) ****
    Final optimized geometry and variables:
    Molecular point group: c1

    Geometry (in Angstrom), charge = 0, multiplicity = 1:

    H           -2.587734202157    -0.488854620057     0.254204975944
    N           -1.823488855850     0.151759649124     0.288956651301
    C           -0.574177188400    -0.498255605888    -0.080393635433
    H           -1.778960827583     0.508819787822     1.220361118320
    C            0.559594053838     0.520426401457    -0.159611388510
    H           -0.731436974237    -0.932483960599    -1.061425642347
    H           -0.298052021994    -1.304708176968     0.598707918150
    C            1.939239272997    -0.131368085967    -0.118617912594
    H            0.466677686177     1.078226491911    -1.084535990968
    H            0.466963664729     1.229256023325     0.657168380807
    H            2.056842178760    -0.850369656597    -0.923257437633
    H            2.724475308643     0.608273069252    -0.222886115201
    H            2.100867145879    -0.656567250129     0.816859734779

  Mulliken Charges: (a.u.)
   Center  Symbol    Alpha    Beta     Spin     Total
       1     H     0.42946  0.42946  0.00000  0.14108
       2     N     3.69151  3.69151  0.00000 -0.38302
       3     C     3.02427  3.02427  0.00000 -0.04853
       4     H     0.43072  0.43072  0.00000  0.13856
       5     C     3.07546  3.07546  0.00000 -0.15092
       6     H     0.45628  0.45628  0.00000  0.08745
       7     H     0.46874  0.46874  0.00000  0.06252
       8     C     3.15317  3.15317  0.00000 -0.30634
       9     H     0.45165  0.45165  0.00000  0.09670
      10     H     0.45793  0.45793  0.00000  0.08413
      11     H     0.45542  0.45542  0.00000  0.08915
      12     H     0.44835  0.44835  0.00000  0.10330
      13     H     0.45704  0.45704  0.00000  0.08592

   Total alpha = 17.00000, Total beta = 17.00000, Total charge =  0.00000
