  ==> Input File <==

--------------------------------------------------------------------------
set {
	reference rhf
	basis 6-31G*
}

set_num_threads( 4 )
memory 2 gb

molecule MOL {
0 1

H	 -0.000158	 1.970498	 0.756846
O	 -0.000074	 1.880206	 -0.189275
C	 -0.000015	 0.544847	 -0.545111
C	 -1.146713	 -0.178430	 0.153418
C	 1.372058	 -0.064025	 -0.275501
H	 -0.178470	 0.486751	 -1.608540
F	 -2.292451	 0.362353	 -0.202086
F	 -1.188413	 -1.458262	 -0.150965
F	 -1.039740	 -0.070159	 1.468116
F	 2.283717	 0.570380	 -0.981153
F	 1.423530	 -1.339565	 -0.596012
F	 1.696156	 0.053849	 1.002248

	symmetry c1
}
set optking {
	frozen_dihedral = ("
		6 3 2 1
	")
}

ee = optimize('scf')
oeprop('DIPOLE', 'QUADRUPOLE', 'MULLIKEN_CHARGES')
f=open( 'psi4out.xyz', 'w' )
f.write( "12  " )
f.write( str(ee) + "\n" )
f.write( MOL.save_string_xyz() )
f.close()
--------------------------------------------------------------------------

    Molecular point group: c1
  Charge       = 0
  Multiplicity = 1
  Basis Set: 6-31G*
  Basis Set:
  @DF-RHF Final Energy:  -786.27783561223976
    Total Energy =                       -786.2778356122389596
    Molecular point group: c1
  Basis Set: 6-31G*
  Basis Set:
  Basis Set: 6-31G*
  Basis Set:
  @DF-RHF Final Energy:  -786.27786798219722
    Total Energy =                       -786.2778679821974492
  Basis Set: 6-31G*
  Basis Set:
  Charge       = 0
  Multiplicity = 1
  Basis Set: 6-31G*
  Basis Set:

    Orbital Energies (a.u.)
    -----------------------

    Doubly Occupied:

       1A    -26.365249     2A    -26.363715     3A    -26.360533
       4A    -26.360121     5A    -26.359982     6A    -26.356315
       7A    -20.616940     8A    -11.527910     9A    -11.523961
      10A    -11.349359    11A     -1.765406    12A     -1.758228
      13A     -1.662928    14A     -1.658902    15A     -1.656195
      16A     -1.654352    17A     -1.435338    18A     -1.101980
      19A     -0.997048    20A     -0.938488    21A     -0.864261
      22A     -0.862762    23A     -0.852464    24A     -0.844120
      25A     -0.831822    26A     -0.815682    27A     -0.743848
      28A     -0.727924    29A     -0.723500    30A     -0.717565
      31A     -0.689423    32A     -0.686904    33A     -0.683481
      34A     -0.674168    35A     -0.669704    36A     -0.663654
      37A     -0.656094    38A     -0.653398    39A     -0.620265
      40A     -0.551377    41A     -0.505912

  @DF-RHF Final Energy:  -786.27787357126670

   => Energetics <=

    Nuclear Repulsion Energy =            670.5333240507565051
    One-Electron Energy =               -2427.9198388542536122
    Two-Electron Energy =                 971.1086412322308661
    DFT Exchange-Correlation Energy =       0.0000000000000000
    Empirical Dispersion Energy =           0.0000000000000000
    PCM Polarization Energy =               0.0000000000000000
    EFP Energy =                            0.0000000000000000
    Total Energy =                       -786.2778735712661273
    Molecular point group: c1
  Basis Set: 6-31G*
  Basis Set:

  -Total Gradient:
     Atom            X                  Y                   Z
    ------   -----------------  -----------------  -----------------
       1       -0.001466620053    -0.000014498380    -0.000011050278
       2        0.001565738329    -0.000018830173     0.000028834089
       3        0.001167143639     0.000009380096    -0.000256281527
       4       -0.000012565243     0.000313836608     0.000121691325
       5       -0.000092205001    -0.000224098560    -0.000125760273
       6       -0.001323026135    -0.000039864463     0.000229100142
       7       -0.000009196734    -0.000100423981    -0.000055914178
       8        0.000032262737     0.000002926665    -0.000048055008
       9        0.000020010500    -0.000098325754    -0.000006953892
      10        0.000067826549     0.000072770960     0.000037796836
      11        0.000046495368     0.000078714156     0.000093714260
      12        0.000004136041     0.000018412829    -0.000007121489

  **** Optimization is complete! (in 3 steps) ****
    Final optimized geometry and variables:
    Molecular point group: c1

    Geometry (in Angstrom), charge = 0, multiplicity = 1:

    H           -0.099790296514     1.970798802330     0.764413427812
    O           -0.110486111332     1.878221382648    -0.181229292096
    C           -0.115330548069     0.542334278892    -0.535759151162
    C           -1.260641835720    -0.178683363671     0.167422053493
    C            1.256280123862    -0.068790742951    -0.269671857239
    H           -0.305823948252     0.481948750372    -1.597144234386
    F           -2.409584631367     0.338387141101    -0.213830486629
    F           -1.282676865255    -1.465842158297    -0.102685133683
    F           -1.171025185087    -0.033457796091     1.480571742904
    F            2.172283090356     0.588811507415    -0.947556698514
    F            1.313822637016    -1.334168514256    -0.630198283249
    F            1.567318577124     0.008623335040     1.013438812578

  Mulliken Charges: (a.u.)
   Center  Symbol    Alpha    Beta     Spin     Total
       1     H     0.26543  0.26543  0.00000  0.46913
       2     O     4.36332  4.36332  0.00000 -0.72664
       3     C     3.04404  3.04404  0.00000 -0.08809
       4     C     2.44924  2.44924  0.00000  1.10152
       5     C     2.44354  2.44354  0.00000  1.11292
       6     H     0.37551  0.37551  0.00000  0.24899
       7     F     4.67489  4.67489  0.00000 -0.34978
       8     F     4.67295  4.67295  0.00000 -0.34591
       9     F     4.68100  4.68100  0.00000 -0.36200
      10     F     4.67491  4.67491  0.00000 -0.34983
      11     F     4.67477  4.67477  0.00000 -0.34955
      12     F     4.68039  4.68039  0.00000 -0.36078

   Total alpha = 41.00000, Total beta = 41.00000, Total charge =  0.00000
