                              Psi4 1.0.54 Driver

  ==> Input File <==

--------------------------------------------------------------------------
set {
	reference rhf
	basis cc-pvtz
}

set_num_threads( 4 )
memory 2 gb

molecule MOL {
0 1

H	 -2.698799	 -0.000846	 0.036018
C	 -1.694291	 -0.000483	 0.434279
O	 -0.828718	 -0.000608	 -0.655022
H	 -1.576855	 0.881100	 1.056504
H	 -1.576401	 -0.881658	 1.057001
C	 -1.241499	 -0.616951	 -1.849848
C	 -1.453672	 -2.118332	 -1.691394
C	 -2.445270	 0.074496	 -2.479994
H	 -0.394744	 -0.471060	 -2.508894
H	 -0.597116	 -2.571058	 -1.207235
H	 -1.575623	 -2.577059	 -2.665788
H	 -2.338694	 -2.348110	 -1.109568
H	 -2.276361	 1.142470	 -2.542805
H	 -2.603356	 -0.304586	 -3.483029
H	 -3.356562	 -0.097009	 -1.919037

	symmetry c1
}
set optking {
	frozen_dihedral = ("
		6 3 2 1
	")
}

ee,wfn = optimize('scf', return_wfn=True)
oeprop( wfn, 'DIPOLE', 'QUADRUPOLE', 'MULLIKEN_CHARGES')
f=open( 'psi4out.xyz', 'w' )
f.write( "15  " )
f.write( str(ee) + "\n" )
f.write( MOL.save_string_xyz() )
f.close()
--------------------------------------------------------------------------

    Molecular point group: c1
  Charge       = 0
  Multiplicity = 1
  Basis Set: CC-PVTZ
  Basis Set:
  @DF-RHF Final Energy:  -232.22257449560090
    Total Energy =                       -232.2225744956010089
    Molecular point group: c1
  Basis Set: CC-PVTZ
  Basis Set:
  Basis Set: CC-PVTZ
  Basis Set:
  @DF-RHF Final Energy:  -232.22393371786779
    Total Energy =                       -232.2239337178678511
  Basis Set: CC-PVTZ
  Basis Set:
  Basis Set: CC-PVTZ
  Basis Set:
  @DF-RHF Final Energy:  -232.22508236051101
    Total Energy =                       -232.2250823605110099
  Basis Set: CC-PVTZ
  Basis Set:
  Basis Set: CC-PVTZ
  Basis Set:
  @DF-RHF Final Energy:  -232.22508926060019
    Total Energy =                       -232.2250892605999297
  Basis Set: CC-PVTZ
  Basis Set:
  Basis Set: CC-PVTZ
  Basis Set:
  @DF-RHF Final Energy:  -232.22511408196704
    Total Energy =                       -232.2251140819668080
  Basis Set: CC-PVTZ
  Basis Set:
  Charge       = 0
  Multiplicity = 1
  Basis Set: CC-PVTZ
  Basis Set:

    Orbital Energies (a.u.)
    -----------------------

    Doubly Occupied:

       1A    -20.540566     2A    -11.272972     3A    -11.258950
       4A    -11.209325     5A    -11.208074     6A     -1.372491
       7A     -1.051136     8A     -0.940648     9A     -0.931398
      10A     -0.781693    11A     -0.677056    12A     -0.641224
      13A     -0.634068    14A     -0.571714    15A     -0.563788
      16A     -0.553210    17A     -0.536217    18A     -0.500559
      19A     -0.498205    20A     -0.444411    21A     -0.407172

  @DF-RHF Final Energy:  -232.22511981603699

   => Energetics <=

    Nuclear Repulsion Energy =            199.0256307583966020
    One-Electron Energy =                -709.3117422963010767
    Two-Electron Energy =                 278.0609917218677083
    DFT Exchange-Correlation Energy =       0.0000000000000000
    Empirical Dispersion Energy =           0.0000000000000000
    PCM Polarization Energy =               0.0000000000000000
    EFP Energy =                            0.0000000000000000
    Total Energy =                       -232.2251198160367949
    Molecular point group: c1
  Basis Set: CC-PVTZ
  Basis Set:

  -Total Gradient:
     Atom            X                  Y                   Z
    ------   -----------------  -----------------  -----------------
       1       -0.000118286559    -0.001926767971     0.000027024748
       2       -0.000173356997     0.003188673120    -0.000381767671
       3        0.000810262697    -0.002677678123     0.000760640811
       4        0.000021393873     0.000035625615    -0.000010314906
       5        0.000028879575    -0.000065987983     0.000006490068
       6       -0.000555938347     0.001403305770    -0.000509398723
       7        0.000017860666    -0.000043622038     0.000003193382
       8       -0.000033140181     0.000051360678     0.000069096982
       9        0.000027300616     0.000050944571     0.000035052599
      10        0.000001525331    -0.000018157374     0.000022720669
      11       -0.000016041356    -0.000033319420    -0.000007706086
      12       -0.000006825097     0.000026313735     0.000017021525
      13       -0.000018102997     0.000019773391    -0.000028285280
      14        0.000034372837    -0.000020187646     0.000015984945
      15       -0.000019904063     0.000009723674    -0.000019753062

  **** Optimization is complete! (in 6 steps) ****
    Final optimized geometry and variables:
    Molecular point group: c1

    Geometry (in Angstrom), charge = 0, multiplicity = 1:

    H           -1.163305009614     0.604454706130     1.359979967649
    C           -0.117975206349     0.584759435194     1.645438511431
    O            0.742040800802     0.505388398888     0.551689937873
    H            0.110129528514     1.495606193801     2.181556048224
    H            0.025941292355    -0.255485986698     2.318857671546
    C            0.304481917791    -0.152177033797    -0.611348328794
    C           -0.102787786340    -1.597169605344    -0.347248018823
    C           -0.772923259120     0.635219077637    -1.348948452756
    H            1.187259352917    -0.165687647268    -1.238443793932
    H            0.686330104328    -2.121766864706     0.177616423147
    H           -0.286607471861    -2.109275357826    -1.284601168039
    H           -1.008480545792    -1.661114655704     0.245353474537
    H           -0.451069299273     1.658317469475    -1.498059157254
    H           -0.955379928843     0.189720641143    -2.320331167800
    H           -1.715306083992     0.647446450568    -0.814061810824

  Mulliken Charges: (a.u.)
   Center  Symbol    Alpha    Beta     Spin     Total
       1     H     0.46997  0.46997  0.00000  0.06006
       2     C     3.04011  3.04011  0.00000 -0.08021
       3     O     4.18550  4.18550  0.00000 -0.37101
       4     H     0.44483  0.44483  0.00000  0.11033
       5     H     0.46303  0.46303  0.00000  0.07394
       6     C     2.93808  2.93808  0.00000  0.12384
       7     C     3.15821  3.15821  0.00000 -0.31641
       8     C     3.15366  3.15366  0.00000 -0.30731
       9     H     0.44652  0.44652  0.00000  0.10696
      10     H     0.44437  0.44437  0.00000  0.11126
      11     H     0.44859  0.44859  0.00000  0.10281
      12     H     0.45527  0.45527  0.00000  0.08946
      13     H     0.44476  0.44476  0.00000  0.11047
      14     H     0.45129  0.45129  0.00000  0.09743
      15     H     0.45581  0.45581  0.00000  0.08838

   Total alpha = 21.00000, Total beta = 21.00000, Total charge = -0.00000

*** Psi4 exiting successfully. Buy a developer a beer!
