                              Psi4 1.0.54 Driver

  ==> Input File <==

--------------------------------------------------------------------------
set {
	reference rhf
	basis cc-pvtz
}

set_num_threads( 4 )
memory 2 gb

molecule MOL {
0 1

H	 -0.000105	 1.988529	 0.748933
O	 -0.000098	 1.879786	 -0.188206
C	 -0.000014	 0.545691	 -0.532416
C	 1.377267	 0.135544	 -1.056492
C	 -1.155682	 0.246961	 -1.488955
H	 -0.178465	 -0.028586	 0.364814
F	 2.275498	 0.348075	 -0.126507
F	 1.428590	 -1.131156	 -1.382909
F	 1.718949	 0.844694	 -2.110880
F	 -2.289609	 0.548865	 -0.905928
F	 -1.203875	 -1.015358	 -1.832379
F	 -1.067076	 0.967255	 -2.586545

	symmetry c1
}
set optking {
	frozen_dihedral = ("
		6 3 2 1
	")
}

ee,wfn = optimize('scf', return_wfn=True)
oeprop( wfn, 'DIPOLE', 'QUADRUPOLE', 'MULLIKEN_CHARGES')
f=open( 'psi4out.xyz', 'w' )
f.write( "12  " )
f.write( str(ee) + "\n" )
f.write( MOL.save_string_xyz() )
f.close()
--------------------------------------------------------------------------

    Molecular point group: c1
  Charge       = 0
  Multiplicity = 1
  Basis Set: CC-PVTZ
  Basis Set:
  @DF-RHF Final Energy:  -786.58568383909460
    Total Energy =                       -786.5856838390945995
    Molecular point group: c1
  Basis Set: CC-PVTZ
  Basis Set:
  Basis Set: CC-PVTZ
  Basis Set:
  @DF-RHF Final Energy:  -786.58710286932546
    Total Energy =                       -786.5871028693256903
  Basis Set: CC-PVTZ
  Basis Set:
  Basis Set: CC-PVTZ
  Basis Set:
  @DF-RHF Final Energy:  -786.58736985440908
    Total Energy =                       -786.5873698544094168
  Basis Set: CC-PVTZ
  Basis Set:
  Basis Set: CC-PVTZ
  Basis Set:
  @DF-RHF Final Energy:  -786.58740001715228
    Total Energy =                       -786.5874000171520493
  Basis Set: CC-PVTZ
  Basis Set:
  Basis Set: CC-PVTZ
  Basis Set:
  @DF-RHF Final Energy:  -786.58740405627827
    Total Energy =                       -786.5874040562785012
  Basis Set: CC-PVTZ
  Basis Set:
  Charge       = 0
  Multiplicity = 1
  Basis Set: CC-PVTZ
  Basis Set:

    Orbital Energies (a.u.)
    -----------------------

    Doubly Occupied:

       1A    -26.351763     2A    -26.351374     3A    -26.351012
       4A    -26.349461     5A    -26.349282     6A    -26.348347
       7A    -20.609503     8A    -11.514853     9A    -11.514567
      10A    -11.351861    11A     -1.765943    12A     -1.760574
      13A     -1.660534    14A     -1.658305    15A     -1.656059
      16A     -1.655782    17A     -1.439192    18A     -1.103316
      19A     -0.996665    20A     -0.939001    21A     -0.866233
      22A     -0.862048    23A     -0.857090    24A     -0.845739
      25A     -0.835053    26A     -0.785867    27A     -0.771427
      28A     -0.732132    29A     -0.725713    30A     -0.724003
      31A     -0.719545    32A     -0.685163    33A     -0.680446
      34A     -0.673791    35A     -0.672354    36A     -0.662600
      37A     -0.657536    38A     -0.624818    39A     -0.622281
      40A     -0.560556    41A     -0.508697

  @DF-RHF Final Energy:  -786.58740464693983

   => Energetics <=

    Nuclear Repulsion Energy =            670.1047531157128105
    One-Electron Energy =               -2427.7833373692310488
    Two-Electron Energy =                 971.0911796065784074
    DFT Exchange-Correlation Energy =       0.0000000000000000
    Empirical Dispersion Energy =           0.0000000000000000
    PCM Polarization Energy =               0.0000000000000000
    EFP Energy =                            0.0000000000000000
    Total Energy =                       -786.5874046469398309
    Molecular point group: c1
  Basis Set: CC-PVTZ
  Basis Set:

  -Total Gradient:
     Atom            X                  Y                   Z
    ------   -----------------  -----------------  -----------------
       1       -0.000514931611     0.000028670421     0.000007045000
       2        0.000743055770    -0.000014186235     0.000061735473
       3       -0.000695980571     0.000141944213    -0.000135336275
       4        0.000061660294     0.000060707601    -0.000119689729
       5        0.000019949082     0.000076704024    -0.000081985214
       6        0.000451528935    -0.000020569216     0.000056771510
       7        0.000020535404    -0.000021863925     0.000035105433
       8       -0.000026757482    -0.000032830033    -0.000019523753
       9       -0.000031921463    -0.000068948027     0.000093470620
      10       -0.000054167471     0.000056142538     0.000020304476
      11        0.000038860496    -0.000127577913    -0.000062733827
      12       -0.000011831382    -0.000078193445     0.000144836299

  **** Optimization is complete! (in 6 steps) ****
    Final optimized geometry and variables:
    Molecular point group: c1

    Geometry (in Angstrom), charge = 0, multiplicity = 1:

    H           -0.146857603644     1.693545752975     1.946781739358
    O           -0.134153871089     1.550355601114     1.018731238514
    C           -0.122370310868     0.203560504083     0.715483670380
    C            1.264610480918    -0.175812631701     0.195477111829
    C           -1.263732732140    -0.069575288521    -0.262866797386
    H           -0.302816662072    -0.425346247058     1.578077093223
    F            2.150832397028     0.099782146537     1.127563995064
    F            1.347139283960    -1.459954518423    -0.061922036722
    F            1.596251483772     0.480767567959    -0.883888605496
    F           -2.403143089962     0.219684747817     0.322968107031
    F           -1.304060092100    -1.335224961416    -0.608716802222
    F           -1.173481855706     0.648831905686    -1.350026221388

  Mulliken Charges: (a.u.)
   Center  Symbol    Alpha    Beta     Spin     Total
       1     H     0.38060  0.38060  0.00000  0.23879
       2     O     4.18706  4.18706  0.00000 -0.37412
       3     C     3.00191  3.00191  0.00000 -0.00382
       4     C     2.67956  2.67956  0.00000  0.64089
       5     C     2.67819  2.67819  0.00000  0.64362
       6     H     0.44471  0.44471  0.00000  0.11058
       7     F     4.60904  4.60904  0.00000 -0.21809
       8     F     4.60542  4.60542  0.00000 -0.21083
       9     F     4.60067  4.60067  0.00000 -0.20133
      10     F     4.60675  4.60675  0.00000 -0.21350
      11     F     4.60535  4.60535  0.00000 -0.21070
      12     F     4.60074  4.60074  0.00000 -0.20148

   Total alpha = 41.00000, Total beta = 41.00000, Total charge = -0.00000

*** Psi4 exiting successfully. Buy a developer a beer!
