  ==> Input File <==

--------------------------------------------------------------------------
set {
	reference rhf
	basis 6-31G*
}

set_num_threads( 4 )
memory 2 gb

molecule MOL {
0 1

H	 -0.155821	 1.757906	 4.181218
O	 0.771119	 1.733751	 4.369022
C	 1.214957	 0.400894	 4.392544
C	 1.288202	 -0.232819	 3.007708
H	 2.202438	 0.427296	 4.835104
H	 0.583677	 -0.199464	 5.046635
C	 -0.067989	 -0.362122	 2.309930
H	 1.960191	 0.359799	 2.392400
H	 1.738011	 -1.219060	 3.109526
C	 0.032096	 -1.050730	 0.945885
H	 -0.501692	 0.626318	 2.186423
H	 -0.750009	 -0.926738	 2.945854
C	 -1.309753	 -1.282496	 0.241564
H	 0.682922	 -0.467228	 0.297195
H	 0.521642	 -2.013165	 1.079168
C	 -2.037799	 -0.007733	 -0.193645
H	 -1.132177	 -1.897739	 -0.638072
H	 -1.960620	 -1.865745	 0.891203
C	 -3.489788	 0.042957	 0.286558
H	 -2.017067	 0.064384	 -1.280144
H	 -1.513726	 0.868678	 0.179924
C	 -4.216917	 1.317354	 -0.141063
H	 -4.025645	 -0.823308	 -0.095450
H	 -3.513059	 -0.038752	 1.371301
H	 -4.239342	 1.411634	 -1.223113
H	 -5.243387	 1.322503	 0.212445
H	 -3.726170	 2.201406	 0.256408

	symmetry c1
}
set optking {
	frozen_dihedral = ("
		10 13 16 20
	")
}

ee = optimize('scf')
oeprop('DIPOLE', 'QUADRUPOLE', 'MULLIKEN_CHARGES')
f=open( 'psi4out.xyz', 'w' )
f.write( "27  " )
f.write( str(ee) + "\n" )
f.write( MOL.save_string_xyz() )
f.close()
--------------------------------------------------------------------------

    Molecular point group: c1
  Charge       = 0
  Multiplicity = 1
  Basis Set: 6-31G*
  Basis Set:
  @DF-RHF Final Energy:  -388.27648341017630
    Total Energy =                       -388.2764834101759561
    Molecular point group: c1
  Basis Set: 6-31G*
  Basis Set:
  Basis Set: 6-31G*
  Basis Set:
  @DF-RHF Final Energy:  -388.27671969388831
    Total Energy =                       -388.2767196938889356
  Basis Set: 6-31G*
  Basis Set:
  Basis Set: 6-31G*
  Basis Set:
  @DF-RHF Final Energy:  -388.27674653161228
    Total Energy =                       -388.2767465316128437
  Basis Set: 6-31G*
  Basis Set:
  Basis Set: 6-31G*
  Basis Set:
  @DF-RHF Final Energy:  -388.27694872851703
    Total Energy =                       -388.2769487285166861
  Basis Set: 6-31G*
  Basis Set:
  Basis Set: 6-31G*
  Basis Set:
  @DF-RHF Final Energy:  -388.27695522695439
    Total Energy =                       -388.2769552269544420
  Basis Set: 6-31G*
  Basis Set:
  Basis Set: 6-31G*
  Basis Set:
  @DF-RHF Final Energy:  -388.27695866889610
    Total Energy =                       -388.2769586688964409
  Basis Set: 6-31G*
  Basis Set:
  Charge       = 0
  Multiplicity = 1
  Basis Set: 6-31G*
  Basis Set:

    Orbital Energies (a.u.)
    -----------------------

    Doubly Occupied:

       1A    -20.552528     2A    -11.267258     3A    -11.220131
       4A    -11.217405     5A    -11.216876     6A    -11.215437
       7A    -11.215303     8A    -11.214064     9A    -11.209473
      10A     -1.359261    11A     -1.094445    12A     -1.060697
      13A     -1.011305    14A     -0.947745    15A     -0.888347
      16A     -0.822169    17A     -0.798330    18A     -0.780985
      19A     -0.694194    20A     -0.649428    21A     -0.638493
      22A     -0.612689    23A     -0.599204    24A     -0.587412
      25A     -0.578655    26A     -0.554373    27A     -0.546038
      28A     -0.521972    29A     -0.507176    30A     -0.493859
      31A     -0.485711    32A     -0.478108    33A     -0.469093
      34A     -0.459600    35A     -0.448681    36A     -0.441094
      37A     -0.423372

  @DF-RHF Final Energy:  -388.27695876025854

   => Energetics <=

    Nuclear Repulsion Energy =            465.0863750088415713
    One-Electron Energy =               -1448.1648433875188857
    Two-Electron Energy =                 594.8015096184196864
    DFT Exchange-Correlation Energy =       0.0000000000000000
    Empirical Dispersion Energy =           0.0000000000000000
    PCM Polarization Energy =               0.0000000000000000
    EFP Energy =                            0.0000000000000000
    Total Energy =                       -388.2769587602576848
    Molecular point group: c1
  Basis Set: 6-31G*
  Basis Set:

  -Total Gradient:
     Atom            X                  Y                   Z
    ------   -----------------  -----------------  -----------------
       1        0.000013105023     0.000002873761     0.000013576852
       2        0.000017574079     0.000018410408     0.000019746977
       3       -0.000041478562    -0.000019410674     0.000003099320
       4        0.000010718483     0.000015689791    -0.000014108335
       5       -0.000008141923     0.000005509373     0.000000730799
       6        0.000000792754     0.000001441061     0.000009335545
       7       -0.000005094788    -0.000039680373     0.000026664303
       8        0.000000387097     0.000006784201    -0.000006134192
       9       -0.000009404170     0.000005325040    -0.000017300392
      10       -0.000457873834     0.000051772763     0.000867555039
      11        0.000026803143    -0.000010808562    -0.000031492338
      12       -0.000008408076     0.000010010700     0.000008913681
      13        0.000342733859    -0.000280785568    -0.001252411050
      14       -0.000021673684    -0.000001949375    -0.000009744813
      15        0.000020767751     0.000006298215     0.000007675175
      16        0.001294930349     0.000871930468     0.000410996635
      17        0.000011709915    -0.000005958548     0.000003830277
      18        0.000022794411    -0.000017044100    -0.000005734617
      19        0.000025150384     0.000031100434     0.000006252940
      20       -0.001198982497    -0.000645599646    -0.000021896915
      21       -0.000017296450    -0.000005721037    -0.000001130761
      22       -0.000023600100    -0.000010980846    -0.000017329327
      23        0.000006350962    -0.000010425135     0.000013269042
      24        0.000005806465     0.000017183745    -0.000007226173
      25        0.000000679753     0.000007271330    -0.000001616496
      26       -0.000008638771     0.000005502659    -0.000009243111
      27        0.000000288425    -0.000008740086     0.000003721937

  **** Optimization is complete! (in 7 steps) ****
    Final optimized geometry and variables:
    Molecular point group: c1

    Geometry (in Angstrom), charge = 0, multiplicity = 1:

    H            0.593319123889     1.509100226841     2.553599154904
    O            1.526816749651     1.579345244871     2.690554972856
    C            2.109767258259     0.301905831039     2.641133031267
    C            2.176141197294    -0.273810966385     1.230880216437
    H            3.110899063751     0.419928330486     3.035379869811
    H            1.581068995288    -0.384118611145     3.301862294911
    C            0.806111002590    -0.519639226021     0.594433487987
    H            2.751480983473     0.405425499426     0.607298924712
    H            2.728731079202    -1.210995718644     1.272798145459
    C            0.899503144136    -1.170617242362    -0.788119117481
    H            0.272509145840     0.424358829978     0.516504446251
    H            0.212850507436    -1.160151290105     1.246902903940
    C           -0.458422150824    -1.401853305173    -1.462248965815
    H            1.524902479510    -0.558217153200    -1.435268208369
    H            1.410723267737    -2.125650626029    -0.687294020072
    C           -1.172332953315    -0.113427500435    -1.930998378424
    H           -0.317466086049    -2.065000102871    -2.310726343167
    H           -1.098717243546    -1.943470913821    -0.768696152374
    C           -2.620964883742    -0.003151880843    -1.447653917711
    H           -1.170344023252    -0.072776671077    -3.017379562786
    H           -0.623814779738     0.764185539255    -1.598597481668
    C           -3.325269861414     1.256538910165    -1.948996728913
    H           -3.175229497676    -0.881144996108    -1.772902736360
    H           -2.638754214666    -0.019802020495    -0.359573583647
    H           -3.355804569926     1.282648333309    -3.034645013596
    H           -4.348132302253     1.306419561816    -1.588457224522
    H           -2.812024835772     2.153304431462    -1.612929955866

  Mulliken Charges: (a.u.)
   Center  Symbol    Alpha    Beta     Spin     Total
       1     H     0.27987  0.27987  0.00000  0.44026
       2     O     4.37094  4.37094  0.00000 -0.74188
       3     C     2.99755  2.99755  0.00000  0.00490
       4     C     3.16075  3.16075  0.00000 -0.32150
       5     H     0.41441  0.41441  0.00000  0.17118
       6     H     0.43194  0.43194  0.00000  0.13612
       7     C     3.16285  3.16285  0.00000 -0.32571
       8     H     0.41497  0.41497  0.00000  0.17005
       9     H     0.42418  0.42418  0.00000  0.15164
      10     C     3.15356  3.15356  0.00000 -0.30711
      11     H     0.42346  0.42346  0.00000  0.15309
      12     H     0.42529  0.42529  0.00000  0.14941
      13     C     3.15743  3.15743  0.00000 -0.31486
      14     H     0.42139  0.42139  0.00000  0.15723
      15     H     0.42209  0.42209  0.00000  0.15581
      16     C     3.15519  3.15519  0.00000 -0.31038
      17     H     0.41828  0.41828  0.00000  0.16344
      18     H     0.42178  0.42178  0.00000  0.15643
      19     C     3.15303  3.15303  0.00000 -0.30606
      20     H     0.42057  0.42057  0.00000  0.15885
      21     H     0.42087  0.42087  0.00000  0.15826
      22     C     3.24003  3.24003  0.00000 -0.48005
      23     H     0.42225  0.42225  0.00000  0.15551
      24     H     0.42485  0.42485  0.00000  0.15029
      25     H     0.42129  0.42129  0.00000  0.15742
      26     H     0.41930  0.41930  0.00000  0.16140
      27     H     0.42188  0.42188  0.00000  0.15624

   Total alpha = 37.00000, Total beta = 37.00000, Total charge =  0.00000
