  ==> Input File <==

--------------------------------------------------------------------------
set {
	reference rhf
	basis 6-31G*
}

set_num_threads( 4 )
memory 2 gb

molecule MOL {
0 1

H	 2.591676	 2.013956	 0.335017
O	 3.341076	 1.666752	 -0.126416
C	 3.569581	 0.339145	 0.272707
C	 2.539767	 -0.640285	 -0.279495
H	 4.553106	 0.084646	 -0.100901
H	 3.608576	 0.269204	 1.359154
C	 1.115811	 -0.397273	 0.226630
H	 2.556196	 -0.582511	 -1.364741
H	 2.852081	 -1.648031	 -0.010655
C	 0.115918	 -1.429151	 -0.302766
H	 0.797950	 0.599468	 -0.066350
H	 1.109961	 -0.420744	 1.316472
C	 -0.613746	 -1.018751	 -1.587095
H	 0.630209	 -2.374265	 -0.467423
H	 -0.626711	 -1.619203	 0.469298
C	 0.278511	 -0.901782	 -2.825914
H	 -1.391165	 -1.752987	 -1.787927
H	 -1.127545	 -0.072928	 -1.421967
C	 -0.509328	 -0.594075	 -4.101086
H	 0.829331	 -1.831588	 -2.960702
H	 1.024356	 -0.124530	 -2.677939
C	 0.379639	 -0.470447	 -5.338065
H	 -1.248380	 -1.375395	 -4.264882
H	 -1.068002	 0.329606	 -3.964772
H	 0.927722	 -1.390524	 -5.520511
H	 -0.207786	 -0.254281	 -6.225104
H	 1.106760	 0.328216	 -5.220606

	symmetry c1
}
set optking {
	frozen_dihedral = ("
		14 10 7 4
	")
}

ee = optimize('scf')
oeprop('DIPOLE', 'QUADRUPOLE', 'MULLIKEN_CHARGES')
f=open( 'psi4out.xyz', 'w' )
f.write( "27  " )
f.write( str(ee) + "\n" )
f.write( MOL.save_string_xyz() )
f.close()
--------------------------------------------------------------------------

    Molecular point group: c1
  Charge       = 0
  Multiplicity = 1
  Basis Set: 6-31G*
  Basis Set:
  @DF-RHF Final Energy:  -388.27627741014533
    Total Energy =                       -388.2762774101450987
    Molecular point group: c1
  Basis Set: 6-31G*
  Basis Set:
  Basis Set: 6-31G*
  Basis Set:
  @DF-RHF Final Energy:  -388.27704089873328
    Total Energy =                       -388.2770408987333894
  Basis Set: 6-31G*
  Basis Set:
  Basis Set: 6-31G*
  Basis Set:
  @DF-RHF Final Energy:  -388.27717665437154
    Total Energy =                       -388.2771766543713738
  Basis Set: 6-31G*
  Basis Set:
  Basis Set: 6-31G*
  Basis Set:
  @DF-RHF Final Energy:  -388.27728484160235
    Total Energy =                       -388.2772848416022953
  Basis Set: 6-31G*
  Basis Set:
  Basis Set: 6-31G*
  Basis Set:
  @DF-RHF Final Energy:  -388.27728115697238
    Total Energy =                       -388.2772811569722080
  Basis Set: 6-31G*
  Basis Set:
  Basis Set: 6-31G*
  Basis Set:
  @DF-RHF Final Energy:  -388.27729256210563
    Total Energy =                       -388.2772925621059130
  Basis Set: 6-31G*
  Basis Set:
  Charge       = 0
  Multiplicity = 1
  Basis Set: 6-31G*
  Basis Set:

    Orbital Energies (a.u.)
    -----------------------

    Doubly Occupied:

       1A    -20.552262     2A    -11.266776     3A    -11.220607
       4A    -11.217364     5A    -11.214633     6A    -11.214222
       7A    -11.213785     8A    -11.211662     9A    -11.206752
      10A     -1.358906    11A     -1.093054    12A     -1.058547
      13A     -1.009662    14A     -0.948602    15A     -0.887879
      16A     -0.824561    17A     -0.793997    18A     -0.776754
      19A     -0.694630    20A     -0.647193    21A     -0.631164
      22A     -0.615309    23A     -0.610370    24A     -0.582347
      25A     -0.570609    26A     -0.551950    27A     -0.544658
      28A     -0.522476    29A     -0.508374    30A     -0.497565
      31A     -0.483282    32A     -0.471699    33A     -0.466173
      34A     -0.458286    35A     -0.454256    36A     -0.435688
      37A     -0.422167

  @DF-RHF Final Energy:  -388.27729275595465

   => Energetics <=

    Nuclear Repulsion Energy =            470.5803242063048515
    One-Electron Energy =               -1459.2387953180827935
    Two-Electron Energy =                 600.3811783558232946
    DFT Exchange-Correlation Energy =       0.0000000000000000
    Empirical Dispersion Energy =           0.0000000000000000
    PCM Polarization Energy =               0.0000000000000000
    EFP Energy =                            0.0000000000000000
    Total Energy =                       -388.2772927559547043
    Molecular point group: c1
  Basis Set: 6-31G*
  Basis Set:

  -Total Gradient:
     Atom            X                  Y                   Z
    ------   -----------------  -----------------  -----------------
       1        0.000013630739    -0.000005833068     0.000001709995
       2        0.000033143793     0.000000156765    -0.000023966873
       3       -0.000042202261     0.000016318266     0.000050692843
       4        0.000010268836     0.000063544476    -0.000120056248
       5       -0.000012164857     0.000003570916    -0.000002296580
       6        0.000007249054    -0.000005564662     0.000012193361
       7        0.000026482676    -0.000067839964     0.000146590479
       8       -0.000016098024    -0.000009284318     0.000007318354
       9        0.000005043324     0.000008471394    -0.000009690511
      10        0.000027342477     0.000044323623    -0.000167269134
      11       -0.000002283011    -0.000015572553    -0.000005017361
      12       -0.000000336147     0.000006560653     0.000001366971
      13       -0.000006998375     0.000004787342     0.000012177521
      14       -0.000040814530    -0.000035630064     0.000120749353
      15       -0.000000434928    -0.000004925889    -0.000012253047
      16       -0.000003458456     0.000004509958    -0.000004580579
      17        0.000003847633    -0.000002731523     0.000001759262
      18       -0.000008612345    -0.000004048965    -0.000003251026
      19        0.000011291547     0.000002396776     0.000004463720
      20        0.000001709483    -0.000003636435    -0.000004870320
      21       -0.000004596351    -0.000001011361    -0.000001635620
      22       -0.000004168951     0.000002940449    -0.000003554793
      23        0.000000215758     0.000000355042     0.000001251834
      24        0.000004061170    -0.000001357628    -0.000001455335
      25       -0.000001561763    -0.000000322307     0.000001993285
      26        0.000001435899     0.000000676602    -0.000003520691
      27       -0.000001992391    -0.000000853527     0.000001151141

  **** Optimization is complete! (in 7 steps) ****
    Final optimized geometry and variables:
    Molecular point group: c1

    Geometry (in Angstrom), charge = 0, multiplicity = 1:

    H            1.447099714185     2.364820336427     1.823276727613
    O            2.215772180294     1.988269561499     1.420362333068
    C            2.409623323446     0.681406314714     1.899600096939
    C            1.409528655332    -0.319790388796     1.331861732139
    H            3.412606600595     0.404768206137     1.600968263165
    H            2.380983915034     0.666432090844     2.988570592990
    C           -0.036184373362    -0.058814688440     1.769266182561
    H            1.492364346480    -0.309498885878     0.250870753434
    H            1.702970110622    -1.315110726275     1.661428562077
    C           -1.068395436182    -1.072723668864     1.237084817075
    H           -0.338381287135     0.942888963333     1.469902491548
    H           -0.062983674204    -0.070971936557     2.857320283136
    C           -1.792272798713    -0.678027654255    -0.057386091298
    H           -0.590389014818    -2.041568402043     1.105291881171
    H           -1.830372330428    -1.219905206130     1.997840076123
    C           -0.914413343685    -0.529679631134    -1.302284373267
    H           -2.552807481247    -1.430499828037    -0.256975508671
    H           -2.329562301864     0.254058447288     0.111050997051
    C           -1.728752651487    -0.268716316277    -2.571480706019
    H           -0.320326638923    -1.432267149647    -1.437744448264
    H           -0.208862778001     0.285482049035    -1.165297789036
    C           -0.858042419062    -0.105367308217    -3.816799171872
    H           -2.428660658103    -1.087335860866    -2.725336518764
    H           -2.332242298805     0.626167950953    -2.433880562149
    H           -0.265992487348    -0.997533676984    -4.000770307529
    H           -1.463530928436     0.077055381183    -4.699320667812
    H           -0.171197080798     0.729185322202    -3.708427118463

  Mulliken Charges: (a.u.)
   Center  Symbol    Alpha    Beta     Spin     Total
       1     H     0.27993  0.27993  0.00000  0.44013
       2     O     4.37132  4.37132  0.00000 -0.74265
       3     C     2.99809  2.99809  0.00000  0.00381
       4     C     3.16345  3.16345  0.00000 -0.32690
       5     H     0.41447  0.41447  0.00000  0.17106
       6     H     0.43216  0.43216  0.00000  0.13569
       7     C     3.16490  3.16490  0.00000 -0.32980
       8     H     0.41103  0.41103  0.00000  0.17793
       9     H     0.42436  0.42436  0.00000  0.15128
      10     C     3.15415  3.15415  0.00000 -0.30829
      11     H     0.42557  0.42557  0.00000  0.14886
      12     H     0.42237  0.42237  0.00000  0.15526
      13     C     3.15247  3.15247  0.00000 -0.30494
      14     H     0.42179  0.42179  0.00000  0.15642
      15     H     0.41953  0.41953  0.00000  0.16095
      16     C     3.15474  3.15474  0.00000 -0.30947
      17     H     0.42250  0.42250  0.00000  0.15501
      18     H     0.42447  0.42447  0.00000  0.15106
      19     C     3.15100  3.15100  0.00000 -0.30201
      20     H     0.42469  0.42469  0.00000  0.15062
      21     H     0.41843  0.41843  0.00000  0.16315
      22     C     3.23941  3.23941  0.00000 -0.47883
      23     H     0.42357  0.42357  0.00000  0.15286
      24     H     0.42337  0.42337  0.00000  0.15327
      25     H     0.42205  0.42205  0.00000  0.15591
      26     H     0.41972  0.41972  0.00000  0.16056
      27     H     0.42047  0.42047  0.00000  0.15907

   Total alpha = 37.00000, Total beta = 37.00000, Total charge = -0.00000
