  ==> Input File <==

--------------------------------------------------------------------------
set {
	reference rhf
	basis 6-31G*
}

set_num_threads( 4 )
memory 2 gb

molecule MOL {
0 1

H	 -3.261111	 -0.295142	 1.469456
C	 -3.306842	 -0.277400	 0.373456
C	 -2.660244	 0.921717	 -0.272021
O	 -3.838538	 -1.161155	 -0.216482
C	 -1.220012	 1.144545	 0.209990
H	 -2.705793	 0.797307	 -1.347733
H	 -3.263782	 1.790044	 -0.010477
C	 -0.252658	 0.041456	 -0.226725
H	 -0.873521	 2.100229	 -0.171974
H	 -1.211708	 1.231594	 1.295398
C	 1.180775	 0.282413	 0.250794
H	 -0.266029	 -0.034465	 -1.312038
H	 -0.597733	 -0.921000	 0.146291
C	 2.148627	 -0.814315	 -0.201312
H	 1.516199	 1.249228	 -0.115937
H	 1.192670	 0.346017	 1.338083
C	 3.580890	 -0.659131	 0.322722
H	 2.166869	 -0.852443	 -1.289387
H	 1.762857	 -1.776509	 0.128956
C	 4.381531	 0.463921	 -0.338602
H	 4.106223	 -1.598347	 0.168296
H	 3.555465	 -0.499859	 1.398783
H	 4.410106	 0.339396	 -1.417929
H	 3.959943	 1.441388	 -0.129327
H	 5.406421	 0.468701	 0.019969

	symmetry c1
}
set optking {
	frozen_dihedral = ("
		20 17 14 18
	")
}

ee = optimize('scf')
oeprop('DIPOLE', 'QUADRUPOLE', 'MULLIKEN_CHARGES')
f=open( 'psi4out.xyz', 'w' )
f.write( "25  " )
f.write( str(ee) + "\n" )
f.write( MOL.save_string_xyz() )
f.close()
--------------------------------------------------------------------------

    Molecular point group: c1
  Charge       = 0
  Multiplicity = 1
  Basis Set: 6-31G*
  Basis Set:
  @DF-RHF Final Energy:  -387.12184913958879
    Total Energy =                       -387.1218491395896990
    Molecular point group: c1
  Basis Set: 6-31G*
  Basis Set:
  Basis Set: 6-31G*
  Basis Set:
  @DF-RHF Final Energy:  -387.12153150926912
    Total Energy =                       -387.1215315092686069
  Basis Set: 6-31G*
  Basis Set:
  Basis Set: 6-31G*
  Basis Set:
  @DF-RHF Final Energy:  -387.12146521444350
    Total Energy =                       -387.1214652144435604
  Basis Set: 6-31G*
  Basis Set:
  Basis Set: 6-31G*
  Basis Set:
  @DF-RHF Final Energy:  -387.12186272890835
    Total Energy =                       -387.1218627289084679
  Basis Set: 6-31G*
  Basis Set:
  @DF-RHF Final Energy:  -387.12191059573661
    Total Energy =                       -387.1219105957363809
  Basis Set: 6-31G*
  Basis Set:
  @DF-RHF Final Energy:  -387.12189783632897
    Total Energy =                       -387.1218978363285714
  Basis Set: 6-31G*
  Basis Set:
  Basis Set: 6-31G*
  Basis Set:
  @DF-RHF Final Energy:  -387.12191191536891
    Total Energy =                       -387.1219119153688553
  Basis Set: 6-31G*
  Basis Set:
  Basis Set: 6-31G*
  Basis Set:
  @DF-RHF Final Energy:  -387.12191353893547
    Total Energy =                       -387.1219135389350186
  Basis Set: 6-31G*
  Basis Set:
  Charge       = 0
  Multiplicity = 1
  Basis Set: 6-31G*
  Basis Set:

    Orbital Energies (a.u.)
    -----------------------

    Doubly Occupied:

       1A    -20.562017     2A    -11.326174     3A    -11.235366
       4A    -11.234678     5A    -11.223955     6A    -11.219883
       7A    -11.218021     8A    -11.216990     9A    -11.210800
      10A     -1.401961    11A     -1.103954    12A     -1.069686
      13A     -1.013535    14A     -0.942585    15A     -0.874362
      16A     -0.820053    17A     -0.788258    18A     -0.782795
      19A     -0.664435    20A     -0.662002    21A     -0.632302
      22A     -0.626056    23A     -0.601929    24A     -0.594634
      25A     -0.575417    26A     -0.549405    27A     -0.535544
      28A     -0.525034    29A     -0.507833    30A     -0.495613
      31A     -0.491211    32A     -0.479815    33A     -0.465813
      34A     -0.458719    35A     -0.440842    36A     -0.409555

  @DF-RHF Final Energy:  -387.12191351065405

   => Energetics <=

    Nuclear Repulsion Energy =            438.8268580364959917
    One-Electron Energy =               -1393.9750801559143838
    Two-Electron Energy =                 568.0263086087643387
    DFT Exchange-Correlation Energy =       0.0000000000000000
    Empirical Dispersion Energy =           0.0000000000000000
    PCM Polarization Energy =               0.0000000000000000
    EFP Energy =                            0.0000000000000000
    Total Energy =                       -387.1219135106540534
    Molecular point group: c1
  Basis Set: 6-31G*
  Basis Set:

  -Total Gradient:
     Atom            X                  Y                   Z
    ------   -----------------  -----------------  -----------------
       1        0.000013445960     0.000003768055     0.000000364268
       2       -0.000029114837     0.000010214103     0.000020309685
       3        0.000001091083    -0.000011714868     0.000001178628
       4        0.000013054562     0.000005631453    -0.000014332473
       5        0.000000048982    -0.000006280175     0.000011592455
       6        0.000003174819     0.000000300817    -0.000001489097
       7       -0.000000432389    -0.000006020529     0.000001090968
       8        0.000005763050    -0.000000527126    -0.000018940433
       9       -0.000008465170     0.000002787330    -0.000006492224
      10        0.000002105314     0.000002858618    -0.000002609406
      11        0.000008598963     0.000006058311    -0.000010279189
      12        0.000007130543     0.000001225199    -0.000000122062
      13       -0.000004275505    -0.000003280900    -0.000003562030
      14        0.000257228528    -0.001638099755    -0.000165972026
      15        0.000000388813     0.000005077939     0.000010945638
      16        0.000001663302    -0.000011417453    -0.000006665497
      17       -0.000415282730     0.001054266196     0.000820388647
      18       -0.000138179384     0.001144338348    -0.000048268109
      19        0.000005062779    -0.000004674069     0.000002020975
      20        0.000278042110    -0.000555689439    -0.000589908153
      21       -0.000000685440     0.000002340930    -0.000003674632
      22        0.000001397103     0.000001183872     0.000000709158
      23       -0.000004557891    -0.000000164108     0.000006658930
      24       -0.000000931021    -0.000001192473    -0.000002471912
      25        0.000003728447    -0.000000990273    -0.000000472111

  **** Optimization is complete! (in 9 steps) ****
    Final optimized geometry and variables:
    Molecular point group: c1

    Geometry (in Angstrom), charge = 0, multiplicity = 1:

    H           -3.285194198884    -0.288349345605     1.464942970573
    C           -3.317037976620    -0.259456514573     0.368597530348
    C           -2.656558267450     0.942912976008    -0.256578273476
    O           -3.850828591064    -1.131798590485    -0.236321936825
    C           -1.219520322467     1.150787814517     0.241644307662
    H           -2.692419315852     0.831041059686    -1.334086883071
    H           -3.257119659054     1.811974231542     0.009042275027
    C           -0.253497418611     0.049699611179    -0.203163551793
    H           -0.864675709735     2.110821142498    -0.121848592548
    H           -1.220712901792     1.220551642355     1.328155944714
    C            1.177705693606     0.278372653101     0.286739756125
    H           -0.259764201712    -0.010867700887    -1.289500820351
    H           -0.604943696294    -0.916563664896     0.154093386526
    C            2.142855292347    -0.823682681532    -0.159949329610
    H            1.524021639510     1.244650869132    -0.071958410946
    H            1.180732821909     0.336761422650     1.374096167472
    C            3.580986778239    -0.644904748652     0.342017396489
    H            2.146975086752    -0.871870510772    -1.247535523423
    H            1.763843710661    -1.781252344928     0.189730563862
    C            4.352012144078     0.483586216145    -0.345263839810
    H            4.120539191641    -1.575460759268     0.184369911599
    H            3.571298654286    -0.479681015838     1.417345613548
    H            4.392122429165     0.327507070843    -1.419732222627
    H            3.898566761184     1.453700217159    -0.168789280111
    H            5.373520691153     0.531410747665     0.019280620365

  Mulliken Charges: (a.u.)
   Center  Symbol    Alpha    Beta     Spin     Total
       1     H     0.43261  0.43261  0.00000  0.13478
       2     C     2.83082  2.83082  0.00000  0.33836
       3     C     3.20817  3.20817  0.00000 -0.41634
       4     O     4.23776  4.23776  0.00000 -0.47552
       5     C     3.16656  3.16656  0.00000 -0.33312
       6     H     0.39970  0.39970  0.00000  0.20060
       7     H     0.40661  0.40661  0.00000  0.18678
       8     C     3.15476  3.15476  0.00000 -0.30952
       9     H     0.41290  0.41290  0.00000  0.17420
      10     H     0.41961  0.41961  0.00000  0.16078
      11     C     3.15392  3.15392  0.00000 -0.30784
      12     H     0.41804  0.41804  0.00000  0.16392
      13     H     0.41847  0.41847  0.00000  0.16307
      14     C     3.15328  3.15328  0.00000 -0.30656
      15     H     0.42130  0.42130  0.00000  0.15740
      16     H     0.42367  0.42367  0.00000  0.15267
      17     C     3.15341  3.15341  0.00000 -0.30682
      18     H     0.42290  0.42290  0.00000  0.15419
      19     H     0.42033  0.42033  0.00000  0.15934
      20     C     3.24088  3.24088  0.00000 -0.48176
      21     H     0.41988  0.41988  0.00000  0.16024
      22     H     0.42309  0.42309  0.00000  0.15382
      23     H     0.42152  0.42152  0.00000  0.15696
      24     H     0.42111  0.42111  0.00000  0.15778
      25     H     0.41871  0.41871  0.00000  0.16259

   Total alpha = 36.00000, Total beta = 36.00000, Total charge =  0.00000
