                              Psi4 1.0.54 Driver

  ==> Input File <==

--------------------------------------------------------------------------
set {
	reference rhf
	basis cc-pvtz
}

set_num_threads( 4 )
memory 2 gb

molecule MOL {
0 1

H	 2.911403	 -0.262939	 -1.954915
O	 1.998053	 -0.461635	 -2.053598
C	 1.276541	 0.027240	 -1.026034
C	 1.857823	 0.727975	 0.019797
C	 -0.086124	 -0.189652	 -1.037091
H	 2.919492	 0.896025	 0.026814
C	 1.076517	 1.209527	 1.050633
H	 -0.538051	 -0.730476	 -1.843387
C	 -0.861704	 0.296439	 0.000000
H	 1.537245	 1.750272	 1.854467
C	 -0.287363	 0.996837	 1.047090
C	 -2.330689	 0.069587	 0.000000
H	 -0.897479	 1.370093	 1.847295
O	 -2.848621	 -0.993976	 0.000000
H	 -2.934306	 0.982410	 0.000000

	symmetry c1
}
set optking {
	frozen_dihedral = ("
		11 9 12 14
	")
}

ee,wfn = optimize('scf', return_wfn=True)
oeprop( wfn, 'DIPOLE', 'QUADRUPOLE', 'MULLIKEN_CHARGES')
f=open( 'psi4out.xyz', 'w' )
f.write( "15  " )
f.write( str(ee) + "\n" )
f.write( MOL.save_string_xyz() )
f.close()
--------------------------------------------------------------------------

    Molecular point group: c1
  Charge       = 0
  Multiplicity = 1
  Basis Set: CC-PVTZ
  Basis Set:
  @DF-RHF Final Energy:  -418.43003870082077
    Total Energy =                       -418.4300387008208872
    Molecular point group: c1
  Basis Set: CC-PVTZ
  Basis Set:
  Basis Set: CC-PVTZ
  Basis Set:
  @DF-RHF Final Energy:  -418.42839753840883
    Total Energy =                       -418.4283975384088308
  Basis Set: CC-PVTZ
  Basis Set:
  Basis Set: CC-PVTZ
  Basis Set:
  @DF-RHF Final Energy:  -418.43039116675294
    Total Energy =                       -418.4303911667528837
  Basis Set: CC-PVTZ
  Basis Set:
  Basis Set: CC-PVTZ
  Basis Set:
  @DF-RHF Final Energy:  -418.43059085393702
    Total Energy =                       -418.4305908539370193
  Basis Set: CC-PVTZ
  Basis Set:
  Basis Set: CC-PVTZ
  Basis Set:
  @DF-RHF Final Energy:  -418.43059449772306
    Total Energy =                       -418.4305944977231775
  Basis Set: CC-PVTZ
  Basis Set:
  Charge       = 0
  Multiplicity = 1
  Basis Set: CC-PVTZ
  Basis Set:

    Orbital Energies (a.u.)
    -----------------------

    Doubly Occupied:

       1A    -20.595823     2A    -20.561341     3A    -11.331535
       4A    -11.311583     5A    -11.254490     6A    -11.249924
       7A    -11.241104     8A    -11.238690     9A    -11.237056
      10A     -1.427697    11A     -1.416131    12A     -1.172565
      13A     -1.050757    14A     -1.028389    15A     -0.901679
      16A     -0.847165    17A     -0.819603    18A     -0.741730
      19A     -0.704389    20A     -0.685703    21A     -0.657006
      22A     -0.643967    23A     -0.616249    24A     -0.607229
      25A     -0.584959    26A     -0.548235    27A     -0.538005
      28A     -0.516511    29A     -0.495992    30A     -0.427183
      31A     -0.357431    32A     -0.328809

  @DF-RHF Final Energy:  -418.43059518255188

   => Energetics <=

    Nuclear Repulsion Energy =            403.5799838443500676
    One-Electron Energy =               -1369.7433013367592594
    Two-Electron Energy =                 547.7327223098569675
    DFT Exchange-Correlation Energy =       0.0000000000000000
    Empirical Dispersion Energy =           0.0000000000000000
    PCM Polarization Energy =               0.0000000000000000
    EFP Energy =                            0.0000000000000000
    Total Energy =                       -418.4305951825522243
    Molecular point group: c1
  Basis Set: CC-PVTZ
  Basis Set:

  -Total Gradient:
     Atom            X                  Y                   Z
    ------   -----------------  -----------------  -----------------
       1       -0.000007393359     0.000020082841    -0.000006320299
       2        0.000008978827     0.000012419219     0.000013974621
       3       -0.000086107108    -0.000116694373    -0.000025119485
       4       -0.000013943093     0.000075180392     0.000090191627
       5        0.000095383257     0.000022745592    -0.000058703195
       6        0.000004807944    -0.000011572678    -0.000004362931
       7        0.000120241514     0.000008151785    -0.000071089210
       8        0.000000648679     0.000008487568     0.000008386073
       9       -0.001207370940     0.006217563160    -0.000644176024
      10       -0.000004166452    -0.000004626933     0.000003559265
      11        0.000848211186    -0.004347593808     0.002338276251
      12        0.000115130312    -0.001758395746    -0.007836887343
      13        0.000002152668     0.000009744932     0.000004634385
      14        0.000160147416    -0.000125774466     0.006176245064
      15       -0.000036720848    -0.000009717486     0.000011391197

  **** Optimization is complete! (in 6 steps) ****
    Final optimized geometry and variables:
    Molecular point group: c1

    Geometry (in Angstrom), charge = 0, multiplicity = 1:

    H            2.924851224444    -0.404441702902    -1.695167079273
    O            2.010019200693    -0.596787703637    -1.794965002621
    C            1.294094205238    -0.103633227107    -0.766907546498
    C            1.873977153362     0.604899919419     0.270047805093
    C           -0.069887016489    -0.337353225761    -0.768657404691
    H            2.934674638127     0.777942285118     0.276194207496
    C            1.086476552630     1.085427766009     1.298900236269
    H           -0.504600644428    -0.914187250617    -1.560468361377
    C           -0.848567552485     0.169345890511     0.251208887381
    H            1.545041584262     1.623771859784     2.105890261067
    C           -0.276959037547     0.879353638917     1.295077526272
    C           -2.313380378383    -0.130634227987     0.293079068622
    H           -0.885795225148     1.261036611349     2.092473322675
    O           -2.761254889404    -1.223552227812     0.288420838434
    H           -2.971080280061     0.739055609214     0.392530387452

  Mulliken Charges: (a.u.)
   Center  Symbol    Alpha    Beta     Spin     Total
       1     H     0.38666  0.38666  0.00000  0.22667
       2     O     4.17089  4.17089  0.00000 -0.34178
       3     C     2.83680  2.83680  0.00000  0.32640
       4     C     3.13653  3.13653  0.00000 -0.27306
       5     C     3.12839  3.12839  0.00000 -0.25677
       6     H     0.43237  0.43237  0.00000  0.13526
       7     C     3.05700  3.05700  0.00000 -0.11400
       8     H     0.41318  0.41318  0.00000  0.17364
       9     C     2.93603  2.93603  0.00000  0.12794
      10     H     0.41966  0.41966  0.00000  0.16067
      11     C     3.11529  3.11529  0.00000 -0.23059
      12     C     2.92894  2.92894  0.00000  0.14213
      13     H     0.42480  0.42480  0.00000  0.15039
      14     O     4.15784  4.15784  0.00000 -0.31568
      15     H     0.45561  0.45561  0.00000  0.08877

   Total alpha = 32.00000, Total beta = 32.00000, Total charge = -0.00000

*** Psi4 exiting successfully. Buy a developer a beer!
