                              Psi4 1.0.54 Driver

  ==> Input File <==

--------------------------------------------------------------------------
set {
	reference rhf
	basis cc-pvtz
}

set_num_threads( 4 )
memory 2 gb

molecule MOL {
0 1

O	 1.216069	 1.304886	 0.000821
C	 1.121787	 0.124983	 0.000110
C	 -0.170912	 -0.649867	 -0.000147
O	 2.167739	 -0.685178	 -0.000678
C	 -1.413045	 0.229353	 0.001137
H	 -0.152877	 -1.303435	 -0.866175
H	 -0.152278	 -1.305116	 0.864586
C	 -2.680477	 -0.555676	 0.326184
H	 -1.514895	 0.706754	 -0.966982
H	 -1.283461	 1.031344	 0.719164
C	 -3.931847	 0.315507	 0.327935
H	 -2.803129	 -1.359821	 -0.394612
H	 -2.572418	 -1.031858	 1.297169
H	 -4.086629	 0.778681	 -0.640619
H	 -4.815169	 -0.267539	 0.561334
H	 -3.854326	 1.108932	 1.063495
C	 3.449556	 -0.089977	 -0.000570
H	 3.585694	 0.522473	 -0.879546
H	 4.155805	 -0.904274	 -0.001389
H	 3.586173	 0.521118	 0.879272

	symmetry c1
}
set optking {
	frozen_dihedral = ("
		9 5 3 6
	")
}

ee,wfn = optimize('scf', return_wfn=True)
oeprop( wfn, 'DIPOLE', 'QUADRUPOLE', 'MULLIKEN_CHARGES')
f=open( 'psi4out.xyz', 'w' )
f.write( "20  " )
f.write( str(ee) + "\n" )
f.write( MOL.save_string_xyz() )
f.close()
--------------------------------------------------------------------------

    Molecular point group: c1
  Charge       = 0
  Multiplicity = 1
  Basis Set: CC-PVTZ
  Basis Set:
  @DF-RHF Final Energy:  -384.08269343412644
    Total Energy =                       -384.0826934341267815
    Molecular point group: c1
  Basis Set: CC-PVTZ
  Basis Set:
  Basis Set: CC-PVTZ
  Basis Set:
  @DF-RHF Final Energy:  -384.08275974802939
    Total Energy =                       -384.0827597480298436
  Basis Set: CC-PVTZ
  Basis Set:
  Basis Set: CC-PVTZ
  Basis Set:
  @DF-RHF Final Energy:  -384.08274258984397
    Total Energy =                       -384.0827425898436331
  Basis Set: CC-PVTZ
  Basis Set:
  Basis Set: CC-PVTZ
  Basis Set:
  @DF-RHF Final Energy:  -384.08277186171938
    Total Energy =                       -384.0827718617197206
  Basis Set: CC-PVTZ
  Basis Set:
  Basis Set: CC-PVTZ
  Basis Set:
  @DF-RHF Final Energy:  -384.08277643864835
    Total Energy =                       -384.0827764386478975
  Basis Set: CC-PVTZ
  Basis Set:
  Charge       = 0
  Multiplicity = 1
  Basis Set: CC-PVTZ
  Basis Set:

    Orbital Energies (a.u.)
    -----------------------

    Doubly Occupied:

       1A    -20.596349     2A    -20.534224     3A    -11.364618
       4A    -11.278537     5A    -11.234100     6A    -11.218286
       7A    -11.217218     8A    -11.208661     9A     -1.472272
      10A     -1.365847    11A     -1.089757    12A     -1.025448
      13A     -0.969783    14A     -0.886458    15A     -0.804366
      16A     -0.769382    17A     -0.698897    18A     -0.686788
      19A     -0.675866    20A     -0.646923    21A     -0.598907
      22A     -0.593041    23A     -0.580096    24A     -0.542058
      25A     -0.536827    26A     -0.523990    27A     -0.502273
      28A     -0.478943    29A     -0.473884    30A     -0.471579
      31A     -0.459515    32A     -0.439930

  @DF-RHF Final Energy:  -384.08277694444803

   => Energetics <=

    Nuclear Repulsion Energy =            381.7378234626859239
    One-Electron Energy =               -1279.7515536633818556
    Two-Electron Energy =                 513.9309532562476761
    DFT Exchange-Correlation Energy =       0.0000000000000000
    Empirical Dispersion Energy =           0.0000000000000000
    PCM Polarization Energy =               0.0000000000000000
    EFP Energy =                            0.0000000000000000
    Total Energy =                       -384.0827769444482556
    Molecular point group: c1
  Basis Set: CC-PVTZ
  Basis Set:

  -Total Gradient:
     Atom            X                  Y                   Z
    ------   -----------------  -----------------  -----------------
       1       -0.000006162200    -0.000010342237     0.000012161969
       2        0.000001354080    -0.000012370382    -0.000014438474
       3       -0.001620313313    -0.002300104433     0.001203180220
       4        0.000005171595     0.000003496009    -0.000000818000
       5        0.001732001113     0.002416470235     0.000643400369
       6        0.001092168119     0.001522795159    -0.001104440678
       7        0.000002928659     0.000000384761     0.000003370590
       8        0.000003920014     0.000009136580    -0.000060714563
       9       -0.001201485795    -0.001669730026    -0.000693372869
      10        0.000006888310     0.000037355434     0.000004567449
      11       -0.000024574875     0.000002363638     0.000012651445
      12       -0.000007765651    -0.000026512321    -0.000009392175
      13        0.000017414045     0.000016582101    -0.000001469456
      14       -0.000001078892    -0.000001441500    -0.000007278658
      15       -0.000012510588     0.000002927725     0.000004571692
      16       -0.000001695559     0.000009523091     0.000005547596
      17        0.000011114740    -0.000000594034     0.000000513346
      18       -0.000000559447    -0.000002104015     0.000002833601
      19        0.000002312494     0.000001863206    -0.000000282493
      20        0.000000873145     0.000000301010    -0.000000590914

  **** Optimization is complete! (in 6 steps) ****
    Final optimized geometry and variables:
    Molecular point group: c1

    Geometry (in Angstrom), charge = 0, multiplicity = 1:

    O            1.216875070428     1.298902578060    -0.076901970992
    C            1.118435901453     0.119383310279    -0.073717587656
    C           -0.176427610760    -0.653840890061    -0.054672745554
    O            2.161913927578    -0.694069442091    -0.089052842485
    C           -1.417126539825     0.229587749578    -0.046402028858
    H           -0.160606577227    -1.299565020417    -0.926315362054
    H           -0.147093481495    -1.307464489191     0.810484602907
    C           -2.689415385775    -0.563729677794     0.242431197298
    H           -1.515769817661     0.714928708134    -1.011461726435
    H           -1.297990616289     1.017044768327     0.687368847541
    C           -3.944955112627     0.301035528317     0.215166419806
    H           -2.789873444575    -1.366810723689    -0.483233918016
    H           -2.602963997436    -1.041735316789     1.214568230550
    H           -4.080853641272     0.762479409547    -0.757100892616
    H           -4.830417263615    -0.286071631163     0.429582131144
    H           -3.887559474906     1.095672749345     0.951305868968
    C            3.445428880373    -0.103032731231    -0.109552093836
    H            3.570166524924     0.507294151652    -0.991689961105
    H            4.149037606476    -0.919564249920    -0.119469711853
    H            3.597423983051     0.509331012423     0.766889501963

  Mulliken Charges: (a.u.)
   Center  Symbol    Alpha    Beta     Spin     Total
       1     O     4.19657  4.19657  0.00000 -0.39314
       2     C     2.80606  2.80606  0.00000  0.38789
       3     C     3.10083  3.10083  0.00000 -0.20167
       4     O     4.14683  4.14683  0.00000 -0.29366
       5     C     3.08215  3.08215  0.00000 -0.16430
       6     H     0.43927  0.43927  0.00000  0.12145
       7     H     0.44054  0.44054  0.00000  0.11892
       8     C     3.08694  3.08694  0.00000 -0.17388
       9     H     0.45001  0.45001  0.00000  0.09998
      10     H     0.44308  0.44308  0.00000  0.11384
      11     C     3.14924  3.14924  0.00000 -0.29848
      12     H     0.45552  0.45552  0.00000  0.08896
      13     H     0.45503  0.45503  0.00000  0.08995
      14     H     0.45421  0.45421  0.00000  0.09159
      15     H     0.44838  0.44838  0.00000  0.10324
      16     H     0.45361  0.45361  0.00000  0.09277
      17     C     3.03758  3.03758  0.00000 -0.07516
      18     H     0.45441  0.45441  0.00000  0.09119
      19     H     0.44539  0.44539  0.00000  0.10921
      20     H     0.45435  0.45435  0.00000  0.09130

   Total alpha = 32.00000, Total beta = 32.00000, Total charge = -0.00000

*** Psi4 exiting successfully. Buy a developer a beer!
