                              Psi4 1.0.54 Driver

  ==> Input File <==

--------------------------------------------------------------------------
set {
	reference rhf
	basis cc-pvtz
}

set_num_threads( 4 )
memory 2 gb

molecule MOL {
0 1

O	 2.868453	 1.353349	 -0.000734
C	 2.841259	 0.166180	 -0.000295
C	 1.542794	 -0.614730	 -0.000853
C	 4.113372	 -0.651103	 0.000743
C	 0.288398	 0.247429	 0.000314
H	 1.557171	 -1.273139	 -0.866508
H	 1.557484	 -1.274998	 0.863344
C	 -0.750009	 -0.226329	 -1.012788
H	 0.563324	 1.275297	 -0.207088
H	 -0.141413	 0.248299	 0.995500
C	 -2.012872	 0.630073	 -1.021894
H	 -0.311235	 -0.226947	 -2.008153
H	 -1.019486	 -1.258461	 -0.799840
C	 -3.056173	 0.162884	 -2.032831
H	 -1.744554	 1.661937	 -1.234911
H	 -2.452639	 0.630680	 -0.027544
C	 -4.315133	 1.023581	 -2.036099
H	 -2.617829	 0.163093	 -3.027211
H	 -3.325919	 -0.868044	 -1.819890
H	 -4.083274	 2.054960	 -2.280106
H	 -5.034275	 0.665533	 -2.763875
H	 -4.796731	 1.015997	 -1.063962
H	 4.145311	 -1.294584	 -0.871587
H	 4.970080	 0.004978	 -0.000091
H	 4.145223	 -1.291980	 0.874988

	symmetry c1
}
set optking {
	frozen_dihedral = ("
		9 5 3 6
	")
}

ee,wfn = optimize('scf', return_wfn=True)
oeprop( wfn, 'DIPOLE', 'QUADRUPOLE', 'MULLIKEN_CHARGES')
f=open( 'psi4out.xyz', 'w' )
f.write( "25  " )
f.write( str(ee) + "\n" )
f.write( MOL.save_string_xyz() )
f.close()
--------------------------------------------------------------------------

    Molecular point group: c1
  Charge       = 0
  Multiplicity = 1
  Basis Set: CC-PVTZ
  Basis Set:
  @DF-RHF Final Energy:  -387.27037843755522
    Total Energy =                       -387.2703784375553369
    Molecular point group: c1
  Basis Set: CC-PVTZ
  Basis Set:
  Basis Set: CC-PVTZ
  Basis Set:
  @DF-RHF Final Energy:  -387.27064016749245
    Total Energy =                       -387.2706401674929566
  Basis Set: CC-PVTZ
  Basis Set:
  Basis Set: CC-PVTZ
  Basis Set:
  @DF-RHF Final Energy:  -387.27061282680887
    Total Energy =                       -387.2706128268087014
  Basis Set: CC-PVTZ
  Basis Set:
  Basis Set: CC-PVTZ
  Basis Set:
  @DF-RHF Final Energy:  -387.27073716351629
    Total Energy =                       -387.2707371635161735
  Basis Set: CC-PVTZ
  Basis Set:
  Basis Set: CC-PVTZ
  Basis Set:
  @DF-RHF Final Energy:  -387.27074481708621
    Total Energy =                       -387.2707448170865518
  Basis Set: CC-PVTZ
  Basis Set:
  Basis Set: CC-PVTZ
  Basis Set:
  @DF-RHF Final Energy:  -387.27074678188745
    Total Energy =                       -387.2707467818879650
  Basis Set: CC-PVTZ
  Basis Set:
  Charge       = 0
  Multiplicity = 1
  Basis Set: CC-PVTZ
  Basis Set:

    Orbital Energies (a.u.)
    -----------------------

    Doubly Occupied:

       1A    -20.539813     2A    -11.321806     3A    -11.230302
       4A    -11.226938     5A    -11.214683     6A    -11.213234
       7A    -11.212998     8A    -11.210806     9A    -11.206010
      10A     -1.400016    11A     -1.093617    12A     -1.056736
      13A     -1.015685    14A     -0.969349    15A     -0.891753
      16A     -0.815464    17A     -0.791111    18A     -0.731268
      19A     -0.667015    20A     -0.647380    21A     -0.633544
      22A     -0.625681    23A     -0.596041    24A     -0.584512
      25A     -0.572368    26A     -0.559677    27A     -0.537636
      28A     -0.526730    29A     -0.514767    30A     -0.497166
      31A     -0.485273    32A     -0.471625    33A     -0.463909
      34A     -0.461176    35A     -0.448938    36A     -0.403358

  @DF-RHF Final Energy:  -387.27074708104266

   => Energetics <=

    Nuclear Repulsion Energy =            439.8709609863417995
    One-Electron Energy =               -1396.6066407379771590
    Two-Electron Energy =                 569.4649326705927024
    DFT Exchange-Correlation Energy =       0.0000000000000000
    Empirical Dispersion Energy =           0.0000000000000000
    PCM Polarization Energy =               0.0000000000000000
    EFP Energy =                            0.0000000000000000
    Total Energy =                       -387.2707470810427139
    Molecular point group: c1
  Basis Set: CC-PVTZ
  Basis Set:

  -Total Gradient:
     Atom            X                  Y                   Z
    ------   -----------------  -----------------  -----------------
       1        0.000011418152     0.000039365524     0.000017781253
       2        0.000030421894    -0.000031561335    -0.000080092011
       3        0.001530067134     0.002181768214    -0.001065553108
       4       -0.000004033053    -0.000001356464     0.000073760800
       5       -0.000629554500    -0.000911391645    -0.002559938256
       6       -0.001151275419    -0.001681024385     0.001287469304
       7        0.000005772055     0.000002145066    -0.000003532351
       8       -0.000030205679    -0.000003789249     0.000034182225
       9        0.000246695715     0.000414344891     0.002351716333
      10       -0.000019252547     0.000006221662    -0.000017144895
      11       -0.000008757583    -0.000003823600    -0.000006973889
      12        0.000007315929     0.000000154372     0.000006772714
      13       -0.000014186444    -0.000008954091     0.000000223309
      14        0.000001284383     0.000004443130    -0.000009090067
      15        0.000002993892     0.000003516604     0.000002183913
      16        0.000002630868    -0.000005193882     0.000000756160
      17        0.000007997949    -0.000000446589     0.000003062751
      18       -0.000001868542    -0.000001315377    -0.000003247385
      19       -0.000000783685     0.000003086248     0.000001426394
      20        0.000000286884    -0.000000253507    -0.000000518210
      21        0.000002933471    -0.000002019989     0.000000285080
      22        0.000000928748    -0.000000206687    -0.000000313679
      23       -0.000006640939     0.000009593617    -0.000021075242
      24        0.000010084368     0.000009805725    -0.000004336037
      25        0.000005726952    -0.000023108251    -0.000007805106

  **** Optimization is complete! (in 7 steps) ****
    Final optimized geometry and variables:
    Molecular point group: c1

    Geometry (in Angstrom), charge = 0, multiplicity = 1:

    O            2.771183367019     1.111517218299     0.671870789903
    C            2.706107532670    -0.073751499830     0.681281366243
    C            1.390023981217    -0.828338123465     0.656705832228
    C            3.953733286020    -0.927718369739     0.720508367807
    C            0.125287590161     0.037548885602     0.640723056093
    H            1.415403163820    -1.497994323299    -0.199254906515
    H            1.394399522330    -1.493328781161     1.516239468865
    C           -0.929104874328    -0.451564163031    -0.348520926060
    H            0.400363657365     1.060497049142     0.423918619071
    H           -0.304595247622     0.055605819277     1.637169931442
    C           -2.200565216943     0.390909807223    -0.335040011305
    H           -0.506279305577    -0.447099977481    -1.350552432547
    H           -1.182447959493    -1.486778160836    -0.129679394418
    C           -3.253670018793    -0.082987185816    -1.332649712857
    H           -1.945596713019     1.426233013870    -0.547168248014
    H           -2.626240694803     0.382361283158     0.665642840892
    C           -4.521972370886     0.763597789158    -1.312674218232
    H           -2.830220752914    -0.072514292695    -2.333318752508
    H           -3.508764454986    -1.118016388210    -1.121244621971
    H           -4.305041774594     1.798708723213    -1.554490992215
    H           -5.247790433894     0.401390237857    -2.031738244783
    H           -4.989155224333     0.745537361260    -0.333592080489
    H            3.982459249913    -1.589002271790    -0.138394609381
    H            4.828931527681    -0.296521950191     0.723016858465
    H            3.951432888501    -1.551252886472     1.607697683755

  Mulliken Charges: (a.u.)
   Center  Symbol    Alpha    Beta     Spin     Total
       1     O     4.16974  4.16974  0.00000 -0.33948
       2     C     2.85874  2.85874  0.00000  0.28251
       3     C     3.11950  3.11950  0.00000 -0.23900
       4     C     3.15097  3.15097  0.00000 -0.30194
       5     C     3.09504  3.09504  0.00000 -0.19008
       6     H     0.44398  0.44398  0.00000  0.11205
       7     H     0.44079  0.44079  0.00000  0.11843
       8     C     3.09220  3.09220  0.00000 -0.18439
       9     H     0.43447  0.43447  0.00000  0.13106
      10     H     0.45259  0.45259  0.00000  0.09483
      11     C     3.08732  3.08732  0.00000 -0.17463
      12     H     0.45418  0.45418  0.00000  0.09164
      13     H     0.45491  0.45491  0.00000  0.09019
      14     C     3.08370  3.08370  0.00000 -0.16739
      15     H     0.45210  0.45210  0.00000  0.09580
      16     H     0.45509  0.45509  0.00000  0.08982
      17     C     3.15054  3.15054  0.00000 -0.30107
      18     H     0.45478  0.45478  0.00000  0.09044
      19     H     0.45556  0.45556  0.00000  0.08888
      20     H     0.45443  0.45443  0.00000  0.09113
      21     H     0.44866  0.44866  0.00000  0.10268
      22     H     0.45529  0.45529  0.00000  0.08942
      23     H     0.45015  0.45015  0.00000  0.09970
      24     H     0.43527  0.43527  0.00000  0.12946
      25     H     0.45001  0.45001  0.00000  0.09997

   Total alpha = 36.00000, Total beta = 36.00000, Total charge =  0.00000

*** Psi4 exiting successfully. Buy a developer a beer!
