                              Psi4 1.0.54 Driver

  ==> Input File <==

--------------------------------------------------------------------------
set {
	reference rhf
	basis cc-pvtz
}

set_num_threads( 4 )
memory 2 gb

molecule MOL {
0 1

H	 0.850474	 1.726039	 0.114347
O	 0.057682	 1.301504	 -0.158546
C	 0.004158	 -0.005002	 0.363031
C	 1.199181	 -0.827006	 -0.096708
C	 -1.316373	 -0.601942	 -0.083533
H	 0.012039	 0.043502	 1.450601
H	 1.216698	 -0.896637	 -1.178185
H	 2.129953	 -0.372215	 0.228017
H	 1.160796	 -1.829483	 0.314276
H	 -1.357869	 -0.655781	 -1.165225
H	 -2.140134	 0.011874	 0.257235
H	 -1.440777	 -1.601036	 0.317651

	symmetry c1
}
ee,wfn = energy('scf', return_wfn=True)
oeprop( wfn, 'DIPOLE', 'QUADRUPOLE', 'MULLIKEN_CHARGES')
oeprop( wfn, 'GRID_ESP')
f=open( 'psi4out.xyz', 'w' )
f.write( "12  " )
f.write( str(ee) + "\n" )
f.write( MOL.save_string_xyz() )
f.close()
--------------------------------------------------------------------------

    Molecular point group: c1

    Geometry (in Angstrom), charge = 0, multiplicity = 1:

       Center              X                  Y                   Z               Mass
    ------------   -----------------  -----------------  -----------------  -----------------
           H          0.850461267831     1.725900070669     0.114365020424     1.007825032070
           O          0.057669267831     1.301365070669    -0.158527979576    15.994914619560
           C          0.004145267831    -0.005140929331     0.363049020424    12.000000000000
           C          1.199168267831    -0.827144929331    -0.096689979576    12.000000000000
           C         -1.316385732169    -0.602080929331    -0.083514979576    12.000000000000
           H          0.012026267831     0.043363070669     1.450619020424     1.007825032070
           H          1.216685267831    -0.896775929331    -1.178166979576     1.007825032070
           H          2.129940267831    -0.372353929331     0.228035020424     1.007825032070
           H          1.160783267831    -1.829621929331     0.314294020424     1.007825032070
           H         -1.357881732169    -0.655919929331    -1.165206979576     1.007825032070
           H         -2.140146732169     0.011735070669     0.257253020424     1.007825032070
           H         -1.440789732169    -1.601174929331     0.317669020424     1.007825032070

  Charge       = 0
  Multiplicity = 1
  Basis Set: CC-PVTZ
  Basis Set:

    Orbital Energies (a.u.)
    -----------------------

    Doubly Occupied:

       1A    -20.544288     2A    -11.274075     3A    -11.211170
       4A    -11.205161     5A     -1.364764     6A     -1.043295
       7A     -0.940482     8A     -0.803666     9A     -0.702230
      10A     -0.627881    11A     -0.605908    12A     -0.546955
      13A     -0.535476    14A     -0.530287    15A     -0.511597
      16A     -0.468951    17A     -0.433143

  @DF-RHF Final Energy:  -193.19606453229684

   => Energetics <=

    Nuclear Repulsion Energy =            135.7428027684798906
    One-Electron Energy =                -531.1790124877987864
    Two-Electron Energy =                 202.2401451870219660
    DFT Exchange-Correlation Energy =       0.0000000000000000
    Empirical Dispersion Energy =           0.0000000000000000
    PCM Polarization Energy =               0.0000000000000000
    EFP Energy =                            0.0000000000000000
    Total Energy =                       -193.1960645322969015

  Mulliken Charges: (a.u.)
   Center  Symbol    Alpha    Beta     Spin     Total
       1     H     0.39606  0.39606  0.00000  0.20788
       2     O     4.20435  4.20435  0.00000 -0.40871
       3     C     2.92184  2.92184  0.00000  0.15633
       4     C     3.14551  3.14551  0.00000 -0.29103
       5     C     3.14229  3.14229  0.00000 -0.28458
       6     H     0.46660  0.46660  0.00000  0.06681
       7     H     0.45089  0.45089  0.00000  0.09822
       8     H     0.45810  0.45810  0.00000  0.08381
       9     H     0.45622  0.45622  0.00000  0.08757
      10     H     0.45279  0.45279  0.00000  0.09442
      11     H     0.44647  0.44647  0.00000  0.10706
      12     H     0.45889  0.45889  0.00000  0.08222

   Total alpha = 17.00000, Total beta = 17.00000, Total charge = -0.00000

*** Psi4 exiting successfully. Buy a developer a beer!
