  ==> Input File <==

--------------------------------------------------------------------------
set {
	reference rhf
	basis 6-31G*
}

set_num_threads( 4 )
memory 2 gb

molecule MOL {
0 1

H	 -3.085476	 0.173123	 -3.118390
C	 -2.211277	 0.203795	 -2.492595
C	 -1.923872	 1.346972	 -1.762053
C	 -1.375765	 -0.899588	 -2.419115
H	 -2.572677	 2.201997	 -1.819942
C	 -0.799645	 1.385657	 -0.957627
H	 -1.600165	 -1.784877	 -2.986138
C	 -0.249843	 -0.863134	 -1.614539
H	 -0.561625	 2.261732	 -0.385342
C	 0.040970	 0.281105	 -0.881118
H	 0.399485	 -1.714668	 -1.554668
C	 1.239129	 0.373821	 0.000060
O	 1.970282	 -0.730723	 0.000018
O	 1.519910	 1.336788	 0.642490
C	 3.377318	 -0.566646	 -0.000065
H	 3.695437	 -0.028981	 -0.881264
H	 3.789299	 -1.563704	 0.000236
H	 3.695516	 -0.028316	 0.880770

	symmetry c1
}
set optking {
	frozen_dihedral = ("
		10 12 13 15
	")
}

ee = optimize('scf')
oeprop('DIPOLE', 'QUADRUPOLE', 'MULLIKEN_CHARGES')
f=open( 'psi4out.xyz', 'w' )
f.write( "18  " )
f.write( str(ee) + "\n" )
f.write( MOL.save_string_xyz() )
f.close()
--------------------------------------------------------------------------

    Molecular point group: c1
  Charge       = 0
  Multiplicity = 1
  Basis Set: 6-31G*
  Basis Set:
  @DF-RHF Final Energy:  -457.34256901626031
    Total Energy =                       -457.3425690162599722
    Molecular point group: c1
  Basis Set: 6-31G*
  Basis Set:
  Basis Set: 6-31G*
  Basis Set:
  @DF-RHF Final Energy:  -457.33932303980555
    Total Energy =                       -457.3393230398060041
  Basis Set: 6-31G*
  Basis Set:
  Basis Set: 6-31G*
  Basis Set:
  @DF-RHF Final Energy:  -457.34300797938909
    Total Energy =                       -457.3430079793899949
  Basis Set: 6-31G*
  Basis Set:
  Basis Set: 6-31G*
  Basis Set:
  @DF-RHF Final Energy:  -457.34306797241766
    Total Energy =                       -457.3430679724176571
  Basis Set: 6-31G*
  Basis Set:
  Basis Set: 6-31G*
  Basis Set:
  @DF-RHF Final Energy:  -457.34306986885269
    Total Energy =                       -457.3430698688530356
  Basis Set: 6-31G*
  Basis Set:
  Charge       = 0
  Multiplicity = 1
  Basis Set: 6-31G*
  Basis Set:

    Orbital Energies (a.u.)
    -----------------------

    Doubly Occupied:

       1A    -20.599131     2A    -20.547862     3A    -11.378654
       4A    -11.285306     5A    -11.246688     6A    -11.246435
       7A    -11.245215     8A    -11.242907     9A    -11.238476
      10A    -11.237765    11A     -1.467350    12A     -1.364385
      13A     -1.166126    14A     -1.046989    15A     -1.025886
      16A     -0.976431    17A     -0.863174    18A     -0.835528
      19A     -0.777209    20A     -0.738792    21A     -0.683441
      22A     -0.674438    23A     -0.669148    24A     -0.632940
      25A     -0.625016    26A     -0.599917    27A     -0.592139
      28A     -0.558618    29A     -0.528329    30A     -0.517172
      31A     -0.502597    32A     -0.499178    33A     -0.458253
      34A     -0.442968    35A     -0.345992    36A     -0.342049

  @DF-RHF Final Energy:  -457.34307006668132

   => Energetics <=

    Nuclear Repulsion Energy =            493.4339987108226069
    One-Electron Energy =               -1601.1491306235882348
    Two-Electron Energy =                 650.3720618460848755
    DFT Exchange-Correlation Energy =       0.0000000000000000
    Empirical Dispersion Energy =           0.0000000000000000
    PCM Polarization Energy =               0.0000000000000000
    EFP Energy =                            0.0000000000000000
    Total Energy =                       -457.3430700666807525
    Molecular point group: c1
  Basis Set: 6-31G*
  Basis Set:

  -Total Gradient:
     Atom            X                  Y                   Z
    ------   -----------------  -----------------  -----------------
       1       -0.000001145420     0.000002130450     0.000002047222
       2       -0.000002729285     0.000030838737     0.000009672019
       3       -0.000017000779    -0.000007532719    -0.000021386240
       4        0.000023702471    -0.000011477334     0.000012971434
       5       -0.000004928348    -0.000000405567     0.000003598123
       6        0.000017786973    -0.000019682474     0.000002290409
       7        0.000001131148     0.000003243796    -0.000000598611
       8       -0.000005473046    -0.000026970399    -0.000024070747
       9        0.000001328780     0.000008186705    -0.000000914492
      10        0.003716405635     0.002411875267    -0.005364155567
      11       -0.000004281402     0.000006976812     0.000003747748
      12       -0.005327603634    -0.003529477772     0.004223814298
      13        0.001683687075     0.001231145666     0.008674520668
      14       -0.000061554762     0.000040887739    -0.000011357587
      15       -0.000015540970    -0.000123752095    -0.007498849777
      16       -0.000012096281    -0.000005470991     0.000007329074
      17        0.000003575858    -0.000009560261    -0.000007998700
      18        0.000004735983    -0.000000955557    -0.000010659284

  **** Optimization is complete! (in 6 steps) ****
    Final optimized geometry and variables:
    Molecular point group: c1

    Geometry (in Angstrom), charge = 0, multiplicity = 1:

    H           -3.348186394347    -0.004974736800    -2.240798294164
    C           -2.480348656995     0.023553688268    -1.606178761924
    C           -2.198972225662     1.166136195115    -0.871086390845
    C           -1.647783846080    -1.080992413908    -1.525610714564
    H           -2.846562736742     2.021724819152    -0.934425558458
    C           -1.083480307502     1.202506791166    -0.055685980674
    H           -1.868272287526    -1.965566576385    -2.095213056727
    C           -0.529318571434    -1.046467961518    -0.709830641445
    H           -0.849829052015     2.078092626265     0.519131291519
    C           -0.242289038753     0.097421873757     0.025260453318
    H            0.117918355840    -1.898824668838    -0.642667585183
    C            0.962946255873     0.193528785509     0.896211796515
    O            1.699688636581    -0.918235231466     0.912958842008
    O            1.286296153069     1.186172780171     1.465579973573
    C            3.106634400865    -0.749853702372     0.903888638082
    H            3.405705156756    -0.168046588842     0.041678130036
    H            3.524202347921    -1.742488859292     0.840158102032
    H            3.443445526331    -0.260369194020     1.805172994778

  Mulliken Charges: (a.u.)
   Center  Symbol    Alpha    Beta     Spin     Total
       1     H     0.39508  0.39508  0.00000  0.20983
       2     C     3.08970  3.08970  0.00000 -0.17940
       3     C     3.10707  3.10707  0.00000 -0.21414
       4     C     3.10692  3.10692  0.00000 -0.21384
       5     H     0.39509  0.39509  0.00000  0.20982
       6     C     3.08600  3.08600  0.00000 -0.17201
       7     H     0.39605  0.39605  0.00000  0.20790
       8     C     3.08780  3.08780  0.00000 -0.17560
       9     H     0.37599  0.37599  0.00000  0.24802
      10     C     3.07867  3.07867  0.00000 -0.15734
      11     H     0.38112  0.38112  0.00000  0.23775
      12     C     2.58145  2.58145  0.00000  0.83710
      13     O     4.31939  4.31939  0.00000 -0.63878
      14     O     4.28171  4.28171  0.00000 -0.56342
      15     C     3.09355  3.09355  0.00000 -0.18709
      16     H     0.41433  0.41433  0.00000  0.17134
      17     H     0.40726  0.40726  0.00000  0.18548
      18     H     0.40280  0.40280  0.00000  0.19439

   Total alpha = 36.00000, Total beta = 36.00000, Total charge =  0.00000
