  ==> Input File <==

--------------------------------------------------------------------------
set {
	reference rhf
	basis 6-31G*
}

set_num_threads( 1 )
memory 2 gb

molecule MOL {
0 1

H	 -0.597133	 3.651653	 -2.401813
C	 0.400038	 4.035094	 -2.152326
C	 0.718646	 4.071452	 -0.679309
O	 1.138513	 4.384680	 -3.014992
C	 0.473475	 2.721712	 0.009420
H	 1.744588	 4.399672	 -0.559211
H	 0.072345	 4.824963	 -0.230788
C	 1.429147	 1.618512	 -0.452033
H	 0.572958	 2.859827	 1.081946
H	 -0.556035	 2.410734	 -0.161344
C	 1.180775	 0.282413	 0.250794
H	 2.453888	 1.937780	 -0.273649
H	 1.340455	 1.479564	 -1.527842
C	 2.148627	 -0.814315	 -0.201312
H	 1.260371	 0.429492	 1.324928
H	 0.158041	 -0.040382	 0.060523
C	 3.580890	 -0.659131	 0.322722
H	 2.166869	 -0.852443	 -1.289387
H	 1.762857	 -1.776509	 0.128956
C	 4.324889	 0.564933	 -0.213704
H	 4.142010	 -1.551473	 0.056605
H	 3.564836	 -0.624694	 1.410140
H	 4.342616	 0.565491	 -1.300421
H	 3.866655	 1.493402	 0.110242
H	 5.353900	 0.572371	 0.132816

	symmetry c1
}
set optking {
	frozen_dihedral = ("
		6 3 5 8,
		6 3 2 4,
		3 5 8 12,
		12 8 11 14,
		20 17 14 18
	")
}

ee = energy('scf')
oeprop('DIPOLE', 'QUADRUPOLE', 'MULLIKEN_CHARGES')
f=open( 'psi4out.xyz', 'w' )
f.write( "25  " )
f.write( str(ee) + "\n" )
f.write( MOL.save_string_xyz() )
f.close()
--------------------------------------------------------------------------

    Molecular point group: c1

    Geometry (in Angstrom), charge = 0, multiplicity = 1:

       Center              X                  Y                   Z               Mass
    ------------   -----------------  -----------------  -----------------  -----------------
           H         -2.323521859146     1.841516903815    -1.706537950283     1.007825032070
           C         -1.326350859146     2.224957903815    -1.457050950283    12.000000000000
           C         -1.007742859146     2.261315903815     0.015966049717    12.000000000000
           O         -0.587875859146     2.574543903815    -2.319716950283    15.994914619560
           C         -1.252913859146     0.911575903815     0.704695049717    12.000000000000
           H          0.018199140854     2.589535903815     0.136064049717     1.007825032070
           H         -1.654043859146     3.014826903815     0.464487049717     1.007825032070
           C         -0.297241859146    -0.191624096185     0.243242049717    12.000000000000
           H         -1.153430859146     1.049690903815     1.777221049717     1.007825032070
           H         -2.282423859146     0.600597903815     0.533931049717     1.007825032070
           C         -0.545613859146    -1.527723096185     0.946069049717    12.000000000000
           H          0.727499140854     0.127643903815     0.421626049717     1.007825032070
           H         -0.385933859146    -0.330572096185    -0.832566950283     1.007825032070
           C          0.422238140854    -2.624451096185     0.493963049717    12.000000000000
           H         -0.466017859146    -1.380644096185     2.020203049717     1.007825032070
           H         -1.568347859146    -1.850518096185     0.755798049717     1.007825032070
           C          1.854501140854    -2.469267096185     1.017997049717    12.000000000000
           H          0.440480140854    -2.662579096185    -0.594111950283     1.007825032070
           H          0.036468140854    -3.586645096185     0.824231049717     1.007825032070
           C          2.598500140854    -1.245203096185     0.481571049717    12.000000000000
           H          2.415621140854    -3.361609096185     0.751880049717     1.007825032070
           H          1.838447140854    -2.434830096185     2.105415049717     1.007825032070
           H          2.616227140854    -1.244645096185    -0.605145950283     1.007825032070
           H          2.140266140854    -0.316734096185     0.805517049717     1.007825032070
           H          3.627511140854    -1.237765096185     0.828091049717     1.007825032070

  Charge       = 0
  Multiplicity = 1
  Basis Set: 6-31G*
  Basis Set:

    Orbital Energies (a.u.)
    -----------------------

    Doubly Occupied:

       1A    -20.561392     2A    -11.325603     3A    -11.234173
       4A    -11.233290     5A    -11.219891     6A    -11.218370
       7A    -11.218251     8A    -11.217055     9A    -11.208651
      10A     -1.401437    11A     -1.105458    12A     -1.069062
      13A     -1.008651    14A     -0.949055    15A     -0.876573
      16A     -0.817984    17A     -0.787571    18A     -0.781117
      19A     -0.667923    20A     -0.663236    21A     -0.633479
      22A     -0.622602    23A     -0.606395    24A     -0.594340
      25A     -0.566888    26A     -0.550670    27A     -0.542906
      28A     -0.523711    29A     -0.518083    30A     -0.498748
      31A     -0.486749    32A     -0.477913    33A     -0.465761
      34A     -0.446709    35A     -0.435141    36A     -0.408884

  @DF-RHF Final Energy:  -387.10722937323254

   => Energetics <=

    Nuclear Repulsion Energy =            454.4771824570514696
    One-Electron Energy =               -1425.2812381939590978
    Two-Electron Energy =                 583.6968263636749725
    DFT Exchange-Correlation Energy =       0.0000000000000000
    Empirical Dispersion Energy =           0.0000000000000000
    PCM Polarization Energy =               0.0000000000000000
    EFP Energy =                            0.0000000000000000
    Total Energy =                       -387.1072293732327125

  Mulliken Charges: (a.u.)
   Center  Symbol    Alpha    Beta     Spin     Total
       1     H     0.43262  0.43262  0.00000  0.13475
       2     C     2.83055  2.83055  0.00000  0.33891
       3     C     3.20784  3.20784  0.00000 -0.41568
       4     O     4.23814  4.23814  0.00000 -0.47628
       5     C     3.16493  3.16493  0.00000 -0.32987
       6     H     0.40041  0.40041  0.00000  0.19918
       7     H     0.40697  0.40697  0.00000  0.18607
       8     C     3.15568  3.15568  0.00000 -0.31135
       9     H     0.41397  0.41397  0.00000  0.17207
      10     H     0.42039  0.42039  0.00000  0.15921
      11     C     3.15438  3.15438  0.00000 -0.30877
      12     H     0.41816  0.41816  0.00000  0.16368
      13     H     0.41932  0.41932  0.00000  0.16136
      14     C     3.15646  3.15646  0.00000 -0.31292
      15     H     0.42312  0.42312  0.00000  0.15377
      16     H     0.42080  0.42080  0.00000  0.15840
      17     C     3.15181  3.15181  0.00000 -0.30362
      18     H     0.42227  0.42227  0.00000  0.15547
      19     H     0.41949  0.41949  0.00000  0.16102
      20     C     3.24403  3.24403  0.00000 -0.48805
      21     H     0.41928  0.41928  0.00000  0.16144
      22     H     0.42321  0.42321  0.00000  0.15358
      23     H     0.41887  0.41887  0.00000  0.16227
      24     H     0.41897  0.41897  0.00000  0.16205
      25     H     0.41834  0.41834  0.00000  0.16333

   Total alpha = 36.00000, Total beta = 36.00000, Total charge =  0.00000
