                              Psi4 1.0.54 Driver

  ==> Input File <==

--------------------------------------------------------------------------
set {
	reference rhf
	basis cc-pvtz
}

set_num_threads( 4 )
memory 2 gb

molecule MOL {
0 1

H	 2.009926	 -2.686156	 0.674785
C	 1.628865	 -1.878525	 0.058904
C	 0.573815	 -1.088432	 0.821222
H	 1.201479	 -2.304033	 -0.840654
H	 2.471625	 -1.263695	 -0.231737
N	 0.000297	 0.000045	 0.046090
H	 -0.220931	 -1.768724	 1.094532
H	 0.993101	 -0.720062	 1.761665
C	 -1.359159	 0.315706	 0.454404
C	 0.858012	 1.173972	 0.018802
C	 -2.416729	 -0.286720	 -0.460525
H	 -1.478729	 1.390261	 0.442008
H	 -1.539692	 0.003361	 1.486761
C	 0.677415	 2.021206	 -1.233402
H	 1.887615	 0.845878	 0.055313
H	 0.705391	 1.790243	 0.909212
H	 -2.285276	 0.073129	 -1.473515
H	 -2.371743	 -1.368476	 -0.483209
H	 -3.408658	 -0.007405	 -0.121593
H	 0.894621	 1.434698	 -2.117562
H	 -0.331092	 2.404341	 -1.327734
H	 1.349964	 2.872066	 -1.210452

	symmetry c1
}
set optking {
	frozen_dihedral = ("
		3 6 9 11
	")
}

ee,wfn = optimize('scf', return_wfn=True)
oeprop( wfn, 'DIPOLE', 'QUADRUPOLE', 'MULLIKEN_CHARGES')
f=open( 'psi4out.xyz', 'w' )
f.write( "22  " )
f.write( str(ee) + "\n" )
f.write( MOL.save_string_xyz() )
f.close()
--------------------------------------------------------------------------

    Molecular point group: c1
  Charge       = 0
  Multiplicity = 1
  Basis Set: CC-PVTZ
  Basis Set:
  @DF-RHF Final Energy:  -290.47492344456879
    Total Energy =                       -290.4749234445686170
    Molecular point group: c1
  Basis Set: CC-PVTZ
  Basis Set:
  Basis Set: CC-PVTZ
  Basis Set:
  @DF-RHF Final Energy:  -290.47504470695952
    Total Energy =                       -290.4750447069594657
  Basis Set: CC-PVTZ
  Basis Set:
  Basis Set: CC-PVTZ
  Basis Set:
  @DF-RHF Final Energy:  -290.47524070046302
    Total Energy =                       -290.4752407004631891
  Basis Set: CC-PVTZ
  Basis Set:
  Basis Set: CC-PVTZ
  Basis Set:
  @DF-RHF Final Energy:  -290.47524989003045
    Total Energy =                       -290.4752498900306819
  Basis Set: CC-PVTZ
  Basis Set:
  Basis Set: CC-PVTZ
  Basis Set:
  @DF-RHF Final Energy:  -290.47525569533781
    Total Energy =                       -290.4752556953378075
  Basis Set: CC-PVTZ
  Basis Set:
  Charge       = 0
  Multiplicity = 1
  Basis Set: CC-PVTZ
  Basis Set:

    Orbital Energies (a.u.)
    -----------------------

    Doubly Occupied:

       1A    -15.532380     2A    -11.239794     3A    -11.238545
       4A    -11.238047     5A    -11.204015     6A    -11.204007
       7A    -11.201970     8A     -1.224955     9A     -1.025679
      10A     -1.023132    11A     -0.956631    12A     -0.850316
      13A     -0.841581    14A     -0.774358    15A     -0.652531
      16A     -0.642070    17A     -0.618348    18A     -0.595420
      19A     -0.585709    20A     -0.553374    21A     -0.534466
      22A     -0.522037    23A     -0.516406    24A     -0.498403
      25A     -0.493600    26A     -0.484816    27A     -0.463989
      28A     -0.460494    29A     -0.342804

  @DF-RHF Final Energy:  -290.47525656029467

   => Energetics <=

    Nuclear Repulsion Energy =            337.8028787515006002
    One-Electron Energy =               -1061.5165135862710031
    Two-Electron Energy =                 433.2383782744755649
    DFT Exchange-Correlation Energy =       0.0000000000000000
    Empirical Dispersion Energy =           0.0000000000000000
    PCM Polarization Energy =               0.0000000000000000
    EFP Energy =                            0.0000000000000000
    Total Energy =                       -290.4752565602947811
    Molecular point group: c1
  Basis Set: CC-PVTZ
  Basis Set:

  -Total Gradient:
     Atom            X                  Y                   Z
    ------   -----------------  -----------------  -----------------
       1       -0.000000063149     0.000001393888     0.000003961852
       2        0.000002114026     0.000009559078    -0.000008695672
       3        0.000827701568     0.001473258874     0.001518933970
       4        0.000000320524     0.000003215802     0.000002274741
       5        0.000001743341     0.000002363764     0.000000840638
       6       -0.001113253191    -0.001294308913    -0.002607481487
       7        0.000023848059     0.000019015222    -0.000000602974
       8       -0.000000242396     0.000003295816    -0.000004627909
       9        0.000199296158    -0.001968199899     0.002264145377
      10        0.000005894868    -0.000029410143     0.000032983646
      11        0.000033193033     0.001816581450    -0.001207247748
      12        0.000000156627    -0.000021193162     0.000010928944
      13       -0.000026052390    -0.000008400624     0.000023065410
      14       -0.000016015913    -0.000026401162    -0.000026593069
      15        0.000055639184    -0.000026561116    -0.000002534349
      16       -0.000009939667     0.000018537204     0.000060801850
      17        0.000002737805     0.000005700286     0.000005661080
      18        0.000006538463     0.000014287942     0.000009033127
      19        0.000007722774    -0.000016758303    -0.000016980594
      20        0.000012833881    -0.000004661257    -0.000055217292
      21       -0.000020450475     0.000036055162    -0.000013298168
      22        0.000006276870    -0.000007369910     0.000010648626

  **** Optimization is complete! (in 6 steps) ****
    Final optimized geometry and variables:
    Molecular point group: c1

    Geometry (in Angstrom), charge = 0, multiplicity = 1:

    H            1.975197016615    -2.760386680299     0.734864324778
    C            1.649467408432    -1.920642928900     0.130364065302
    C            0.561050844620    -1.145419050535     0.860876008977
    H            1.271360795395    -2.300833670103    -0.810672920823
    H            2.521892793504    -1.315094574117    -0.079675820655
    N            0.009291821415    -0.044287181593     0.089030600685
    H           -0.246371148961    -1.834437923694     1.075545960699
    H            0.936478017986    -0.801655452863     1.829340223531
    C           -1.348685889664     0.293176004263     0.504330203393
    C            0.892563857058     1.108590183874     0.042193310866
    C           -2.404085510070    -0.295966119966    -0.421376299090
    H           -1.463141612684     1.369836795689     0.513570387248
    H           -1.529006228905    -0.030805006238     1.527878951552
    C            0.643328210942     2.000982348259    -1.165940140078
    H            1.913185667212     0.756105262652    -0.007094892706
    H            0.818441142773     1.699538205800     0.959723740821
    H           -2.275400754022     0.081159151751    -1.428266368026
    H           -2.330301424842    -1.376959805487    -0.461480477622
    H           -3.402509046173    -0.040359159038    -0.080945597393
    H            0.782807966534     1.440469462876    -2.082257795039
    H           -0.360901773654     2.407273775117    -1.173260877150
    H            1.334905041961     2.836639964176    -1.164273886492

  Mulliken Charges: (a.u.)
   Center  Symbol    Alpha    Beta     Spin     Total
       1     H     0.45249  0.45249  0.00000  0.09502
       2     C     3.14350  3.14350  0.00000 -0.28700
       3     C     3.04134  3.04134  0.00000 -0.08268
       4     H     0.45129  0.45129  0.00000  0.09742
       5     H     0.45613  0.45613  0.00000  0.08774
       6     N     3.62122  3.62122  0.00000 -0.24243
       7     H     0.45174  0.45174  0.00000  0.09652
       8     H     0.46429  0.46429  0.00000  0.07143
       9     C     3.05467  3.05467  0.00000 -0.10933
      10     C     3.04426  3.04426  0.00000 -0.08853
      11     C     3.13066  3.13066  0.00000 -0.26131
      12     H     0.45081  0.45081  0.00000  0.09839
      13     H     0.45574  0.45574  0.00000  0.08853
      14     C     3.14400  3.14400  0.00000 -0.28801
      15     H     0.45005  0.45005  0.00000  0.09990
      16     H     0.46425  0.46425  0.00000  0.07149
      17     H     0.45251  0.45251  0.00000  0.09498
      18     H     0.45608  0.45608  0.00000  0.08784
      19     H     0.45651  0.45651  0.00000  0.08699
      20     H     0.45137  0.45137  0.00000  0.09726
      21     H     0.45554  0.45554  0.00000  0.08893
      22     H     0.45157  0.45157  0.00000  0.09686

   Total alpha = 29.00000, Total beta = 29.00000, Total charge =  0.00000

*** Psi4 exiting successfully. Buy a developer a beer!
