                              Psi4 1.0.54 Driver

  ==> Input File <==

--------------------------------------------------------------------------
set {
	reference rhf
	basis cc-pvtz
}

set_num_threads( 4 )
memory 2 gb

molecule MOL {
0 1

H	 -3.163848	 -0.166919	 -0.123304
C	 -2.913847	 0.794593	 -0.565886
O	 -1.561715	 0.878198	 -0.869678
H	 -3.467257	 0.907796	 -1.486652
H	 -3.218267	 1.579996	 0.123574
C	 -0.718530	 0.758693	 0.228682
C	 0.718529	 0.758687	 -0.228709
H	 -0.870816	 1.592598	 0.913795
H	 -0.921118	 -0.162275	 0.771091
O	 1.401606	 -0.295166	 0.366636
H	 0.748705	 0.673477	 -1.312803
H	 1.176496	 1.708671	 0.046552
C	 2.714315	 -0.441627	 -0.061017
H	 2.765292	 -0.641548	 -1.128869
H	 3.305661	 0.447341	 0.150952
H	 3.143725	 -1.278506	 0.470147

	symmetry c1
}
set optking {
	frozen_dihedral = ("
		3 6 7 11
	")
}

ee,wfn = optimize('scf', return_wfn=True)
oeprop( wfn, 'DIPOLE', 'QUADRUPOLE', 'MULLIKEN_CHARGES')
f=open( 'psi4out.xyz', 'w' )
f.write( "16  " )
f.write( str(ee) + "\n" )
f.write( MOL.save_string_xyz() )
f.close()
--------------------------------------------------------------------------

    Molecular point group: c1
  Charge       = 0
  Multiplicity = 1
  Basis Set: CC-PVTZ
  Basis Set:
  @DF-RHF Final Energy:  -307.09384947372854
    Total Energy =                       -307.0938494737284827
    Molecular point group: c1
  Basis Set: CC-PVTZ
  Basis Set:
  Basis Set: CC-PVTZ
  Basis Set:
  @DF-RHF Final Energy:  -307.09451074682244
    Total Energy =                       -307.0945107468222659
  Basis Set: CC-PVTZ
  Basis Set:
  Basis Set: CC-PVTZ
  Basis Set:
  @DF-RHF Final Energy:  -307.09458020482543
    Total Energy =                       -307.0945802048256041
  Basis Set: CC-PVTZ
  Basis Set:
  Charge       = 0
  Multiplicity = 1
  Basis Set: CC-PVTZ
  Basis Set:

    Orbital Energies (a.u.)
    -----------------------

    Doubly Occupied:

       1A    -20.551790     2A    -20.551358     3A    -11.266393
       4A    -11.265762     5A    -11.263747     6A    -11.263564
       7A     -1.391101     8A     -1.379369     9A     -1.028811
      10A     -0.940890    11A     -0.885514    12A     -0.832157
      13A     -0.689646    14A     -0.678562    15A     -0.659792
      16A     -0.646649    17A     -0.627924    18A     -0.600594
      19A     -0.561456    20A     -0.525573    21A     -0.509130
      22A     -0.483863    23A     -0.467738    24A     -0.423667
      25A     -0.415264

  @DF-RHF Final Energy:  -307.09458599217623

   => Energetics <=

    Nuclear Repulsion Energy =            255.1881305713676795
    One-Electron Energy =                -924.7447985314154266
    Two-Electron Energy =                 362.4620819678715975
    DFT Exchange-Correlation Energy =       0.0000000000000000
    Empirical Dispersion Energy =           0.0000000000000000
    PCM Polarization Energy =               0.0000000000000000
    EFP Energy =                            0.0000000000000000
    Total Energy =                       -307.0945859921761780
    Molecular point group: c1
  Basis Set: CC-PVTZ
  Basis Set:

  -Total Gradient:
     Atom            X                  Y                   Z
    ------   -----------------  -----------------  -----------------
       1        0.000029691130     0.000079193399    -0.000028103192
       2       -0.000156285467    -0.000023706207     0.000000544818
       3       -0.000006422915    -0.001821241120    -0.000032217677
       4        0.000001627323     0.000010165965     0.000035418279
       5        0.000029323639    -0.000065026670    -0.000048031691
       6       -0.000030903674     0.002962723418     0.000000662312
       7        0.000062138686    -0.003400364627     0.000175698414
       8        0.000010628813    -0.000007337507    -0.000011405024
       9        0.000033353879     0.000009332311     0.000003286479
      10        0.000067975695     0.000010798240     0.000018805598
      11       -0.000108043768     0.002356566377    -0.000146373461
      12       -0.000016732425    -0.000056606733     0.000017386259
      13        0.000117375333    -0.000044213194    -0.000028729259
      14       -0.000010086100     0.000026346926     0.000082651779
      15       -0.000044448571    -0.000064274108    -0.000026040617
      16        0.000020808414     0.000027643531    -0.000013553019

  **** Optimization is complete! (in 4 steps) ****
    Final optimized geometry and variables:
    Molecular point group: c1

    Geometry (in Angstrom), charge = 0, multiplicity = 1:

    H           -3.166184258747    -0.457593650152     0.163502140452
    C           -2.869167883170     0.457009511793    -0.344539570834
    O           -1.519901086438     0.439463663522    -0.674211760636
    H           -3.432897720638     0.544913595935    -1.261800099499
    H           -3.111998405494     1.300730899678     0.297726251940
    C           -0.665617127047     0.318984833103     0.420733056376
    C            0.777861746098     0.329569994105    -0.068736834640
    H           -0.845509703207     1.127648478655     1.125334221593
    H           -0.843002788480    -0.618909767736     0.938595836287
    O            1.469982873639    -0.727435565749     0.517787837544
    H            0.775203014789     0.249157148220    -1.151522000886
    H            1.262343290829     1.270906228156     0.183213941274
    C            2.810075733138    -0.799820622034     0.158937622219
    H            2.927835188923    -0.930386246157    -0.914250263115
    H            3.351449843947     0.095265242182     0.457359445596
    H            3.242122457227    -1.651846923416     0.663173595869

  Mulliken Charges: (a.u.)
   Center  Symbol    Alpha    Beta     Spin     Total
       1     H     0.47093  0.47093  0.00000  0.05814
       2     C     3.02894  3.02894  0.00000 -0.05787
       3     O     4.17406  4.17406  0.00000 -0.34813
       4     H     0.44660  0.44660  0.00000  0.10679
       5     H     0.47187  0.47187  0.00000  0.05627
       6     C     2.96751  2.96751  0.00000  0.06498
       7     C     2.96719  2.96719  0.00000  0.06563
       8     H     0.47451  0.47451  0.00000  0.05099
       9     H     0.46572  0.46572  0.00000  0.06855
      10     O     4.17370  4.17370  0.00000 -0.34740
      11     H     0.46531  0.46531  0.00000  0.06938
      12     H     0.47558  0.47558  0.00000  0.04885
      13     C     3.02909  3.02909  0.00000 -0.05818
      14     H     0.47066  0.47066  0.00000  0.05869
      15     H     0.47180  0.47180  0.00000  0.05640
      16     H     0.44654  0.44654  0.00000  0.10691

   Total alpha = 25.00000, Total beta = 25.00000, Total charge =  0.00000

*** Psi4 exiting successfully. Buy a developer a beer!
