  ==> Input File <==

--------------------------------------------------------------------------
set {
	reference rhf
	basis 6-31G*
}

set_num_threads( 1 )
memory 2 gb

molecule MOL {
0 1

H	 1.681120	 3.044617	 3.947947
C	 1.282879	 2.119854	 4.383653
C	 0.008364	 1.616588	 3.755206
O	 1.849985	 1.591385	 5.284131
C	 0.114637	 1.490011	 2.229119
H	 -0.250208	 0.670552	 4.216579
H	 -0.774310	 2.333132	 4.001460
C	 1.093668	 0.405081	 1.773351
H	 -0.872977	 1.274474	 1.832324
H	 0.407574	 2.449889	 1.806533
C	 1.180775	 0.282413	 0.250794
H	 0.789855	 -0.549553	 2.197871
H	 2.084671	 0.610431	 2.173706
C	 2.148627	 -0.814315	 -0.201312
H	 0.186871	 0.087744	 -0.144163
H	 1.496611	 1.236019	 -0.170237
C	 3.580890	 -0.659131	 0.322722
H	 2.166869	 -0.852443	 -1.289387
H	 1.762857	 -1.776509	 0.128956
C	 4.324889	 0.564933	 -0.213704
H	 4.142010	 -1.551473	 0.056605
H	 3.564836	 -0.624694	 1.410140
H	 4.342616	 0.565491	 -1.300421
H	 3.866655	 1.493402	 0.110242
H	 5.353900	 0.572371	 0.132816

	symmetry c1
}
set optking {
	frozen_dihedral = ("
		6 3 5 8,
		6 3 2 4,
		3 5 8 12,
		12 8 11 14,
		20 17 14 18
	")
}

ee = energy('scf')
oeprop('DIPOLE', 'QUADRUPOLE', 'MULLIKEN_CHARGES')
f=open( 'psi4out.xyz', 'w' )
f.write( "25  " )
f.write( str(ee) + "\n" )
f.write( MOL.save_string_xyz() )
f.close()
--------------------------------------------------------------------------

    Molecular point group: c1

    Geometry (in Angstrom), charge = 0, multiplicity = 1:

       Center              X                  Y                   Z               Mass
    ------------   -----------------  -----------------  -----------------  -----------------
           H         -0.071847528823     2.306457961599     1.985900003053     1.007825032070
           C         -0.470088528823     1.381694961599     2.421606003053    12.000000000000
           C         -1.744603528823     0.878428961599     1.793159003053    12.000000000000
           O          0.097017471177     0.853225961599     3.322084003053    15.994914619560
           C         -1.638330528823     0.751851961599     0.267072003053    12.000000000000
           H         -2.003175528823    -0.067607038401     2.254532003053     1.007825032070
           H         -2.527277528823     1.594972961599     2.039413003053     1.007825032070
           C         -0.659299528823    -0.333078038401    -0.188695996947    12.000000000000
           H         -2.625944528823     0.536314961599    -0.129722996947     1.007825032070
           H         -1.345393528823     1.711729961599    -0.155513996947     1.007825032070
           C         -0.572192528823    -0.455746038401    -1.711252996947    12.000000000000
           H         -0.963112528823    -1.287712038401     0.235824003053     1.007825032070
           H          0.331703471177    -0.127728038401     0.211659003053     1.007825032070
           C          0.395659471177    -1.552474038401    -2.163358996947    12.000000000000
           H         -1.566096528823    -0.650415038401    -2.106209996947     1.007825032070
           H         -0.256356528823     0.497859961599    -2.132283996947     1.007825032070
           C          1.827922471177    -1.397290038401    -1.639324996947    12.000000000000
           H          0.413901471177    -1.590602038401    -3.251433996947     1.007825032070
           H          0.009889471177    -2.514668038401    -1.833090996947     1.007825032070
           C          2.571921471177    -0.173226038401    -2.175750996947    12.000000000000
           H          2.389042471177    -2.289632038401    -1.905441996947     1.007825032070
           H          1.811868471177    -1.362853038401    -0.551906996947     1.007825032070
           H          2.589648471177    -0.172668038401    -3.262467996947     1.007825032070
           H          2.113687471177     0.755242961599    -1.851804996947     1.007825032070
           H          3.600932471177    -0.165788038401    -1.829230996947     1.007825032070

  Charge       = 0
  Multiplicity = 1
  Basis Set: 6-31G*
  Basis Set:

    Orbital Energies (a.u.)
    -----------------------

    Doubly Occupied:

       1A    -20.562174     2A    -11.326309     3A    -11.235292
       4A    -11.234620     5A    -11.223084     6A    -11.219689
       7A    -11.216981     8A    -11.216194     9A    -11.210598
      10A     -1.402186    11A     -1.105408    12A     -1.069160
      13A     -1.010134    14A     -0.944145    15A     -0.874545
      16A     -0.831364    17A     -0.788817    18A     -0.767574
      19A     -0.665990    20A     -0.661887    21A     -0.633801
      22A     -0.625899    23A     -0.609794    24A     -0.588523
      25A     -0.563674    26A     -0.560160    27A     -0.539670
      28A     -0.521207    29A     -0.513509    30A     -0.501853
      31A     -0.487316    32A     -0.478468    33A     -0.458275
      34A     -0.452243    35A     -0.445726    36A     -0.409603

  @DF-RHF Final Energy:  -387.11940137357374

   => Energetics <=

    Nuclear Repulsion Energy =            451.8351631018091439
    One-Electron Energy =               -1419.9970415380953455
    Two-Electron Energy =                 581.0424770627111002
    DFT Exchange-Correlation Energy =       0.0000000000000000
    Empirical Dispersion Energy =           0.0000000000000000
    PCM Polarization Energy =               0.0000000000000000
    EFP Energy =                            0.0000000000000000
    Total Energy =                       -387.1194013735751014

  Mulliken Charges: (a.u.)
   Center  Symbol    Alpha    Beta     Spin     Total
       1     H     0.43262  0.43262  0.00000  0.13476
       2     C     2.83087  2.83087  0.00000  0.33827
       3     C     3.20797  3.20797  0.00000 -0.41593
       4     O     4.23793  4.23793  0.00000 -0.47587
       5     C     3.16556  3.16556  0.00000 -0.33111
       6     H     0.39977  0.39977  0.00000  0.20046
       7     H     0.40672  0.40672  0.00000  0.18656
       8     C     3.15864  3.15864  0.00000 -0.31727
       9     H     0.41299  0.41299  0.00000  0.17402
      10     H     0.41981  0.41981  0.00000  0.16038
      11     C     3.15533  3.15533  0.00000 -0.31065
      12     H     0.41834  0.41834  0.00000  0.16332
      13     H     0.41639  0.41639  0.00000  0.16722
      14     C     3.15369  3.15369  0.00000 -0.30739
      15     H     0.42020  0.42020  0.00000  0.15959
      16     H     0.42205  0.42205  0.00000  0.15590
      17     C     3.15849  3.15849  0.00000 -0.31699
      18     H     0.42128  0.42128  0.00000  0.15743
      19     H     0.42145  0.42145  0.00000  0.15709
      20     C     3.24071  3.24071  0.00000 -0.48141
      21     H     0.41913  0.41913  0.00000  0.16173
      22     H     0.41822  0.41822  0.00000  0.16356
      23     H     0.42171  0.42171  0.00000  0.15658
      24     H     0.42254  0.42254  0.00000  0.15492
      25     H     0.41758  0.41758  0.00000  0.16483

   Total alpha = 36.00000, Total beta = 36.00000, Total charge = -0.00000
