  ==> Input File <==

--------------------------------------------------------------------------
set {
	reference rhf
	basis 6-31G*
}

set_num_threads( 1 )
memory 2 gb

molecule MOL {
0 1

H	 -2.301079	 0.090366	 3.189322
C	 -2.316582	 -0.300957	 2.190680
C	 -1.204760	 -0.363118	 1.494988
H	 -3.252871	 -0.634545	 1.784487
O	 -1.180634	 -0.819263	 0.215062
H	 -0.255794	 -0.040950	 1.885969
C	 0.051604	 -1.018856	 -0.387932
C	 1.043764	 0.054862	 -0.001873
H	 -0.017620	 -1.041351	 -1.469781
H	 0.437898	 -1.966374	 -0.042284
F	 2.212596	 -0.199467	 -0.571921
F	 0.652529	 1.252447	 -0.405055
F	 1.230877	 0.110694	 1.300533

	symmetry c1
}
set optking {
	frozen_dihedral = ("
		11 8 7 9,
		6 3 2 1,
		6 3 5 7
	")
}

ee = energy('scf')
oeprop('DIPOLE', 'QUADRUPOLE', 'MULLIKEN_CHARGES')
f=open( 'psi4out.xyz', 'w' )
f.write( "13  " )
f.write( str(ee) + "\n" )
f.write( MOL.save_string_xyz() )
f.close()
--------------------------------------------------------------------------

    Molecular point group: c1

    Geometry (in Angstrom), charge = 0, multiplicity = 1:

       Center              X                  Y                   Z               Mass
    ------------   -----------------  -----------------  -----------------  -----------------
           H         -2.494605748252     0.202672390159     2.756669421787     1.007825032070
           C         -2.510108748252    -0.188650609841     1.758027421787    12.000000000000
           C         -1.398286748252    -0.250811609841     1.062335421787    12.000000000000
           H         -3.446397748252    -0.522238609841     1.351834421787     1.007825032070
           O         -1.374160748252    -0.706956609841    -0.217590578213    15.994914619560
           H         -0.449320748252     0.071356390159     1.453316421787     1.007825032070
           C         -0.141922748252    -0.906549609841    -0.820584578213    12.000000000000
           C          0.850237251748     0.167168390159    -0.434525578213    12.000000000000
           H         -0.211146748252    -0.929044609841    -1.902433578213     1.007825032070
           H          0.244371251748    -1.854067609841    -0.474936578213     1.007825032070
           F          2.019069251748    -0.087160609841    -1.004573578213    18.998403224000
           F          0.459002251748     1.364753390159    -0.837707578213    18.998403224000
           F          1.037350251748     0.223000390159     0.867880421787    18.998403224000

  Charge       = 0
  Multiplicity = 1
  Basis Set: 6-31G*
  Basis Set:

    Orbital Energies (a.u.)
    -----------------------

    Doubly Occupied:

       1A    -26.364859     2A    -26.353752     3A    -26.350506
       4A    -20.601286     5A    -11.515904     6A    -11.320384
       7A    -11.278458     8A    -11.205730     9A     -1.758989
      10A     -1.662256    11A     -1.647431    12A     -1.433928
      13A     -1.083265    14A     -1.014559    15A     -0.938853
      16A     -0.860767    17A     -0.848075    18A     -0.837835
      19A     -0.768963    20A     -0.735542    21A     -0.719059
      22A     -0.711259    23A     -0.684782    24A     -0.663630
      25A     -0.660746    26A     -0.657855    27A     -0.641951
      28A     -0.583296    29A     -0.554707    30A     -0.523042
      31A     -0.488432    32A     -0.342053

  @DF-RHF Final Energy:  -527.50666146563140

   => Energetics <=

    Nuclear Repulsion Energy =            422.4990823736337120
    One-Electron Energy =               -1568.3870431346711030
    Two-Electron Energy =                 618.3812992954063930
    DFT Exchange-Correlation Energy =       0.0000000000000000
    Empirical Dispersion Energy =           0.0000000000000000
    PCM Polarization Energy =               0.0000000000000000
    EFP Energy =                            0.0000000000000000
    Total Energy =                       -527.5066614656310549

  Mulliken Charges: (a.u.)
   Center  Symbol    Alpha    Beta     Spin     Total
       1     H     0.40900  0.40900  0.00000  0.18200
       2     C     3.24098  3.24098  0.00000 -0.48195
       3     C     2.92777  2.92777  0.00000  0.14446
       4     H     0.40688  0.40688  0.00000  0.18623
       5     O     4.31142  4.31142  0.00000 -0.62284
       6     H     0.36356  0.36356  0.00000  0.27288
       7     C     3.03931  3.03931  0.00000 -0.07862
       8     C     2.47339  2.47339  0.00000  1.05321
       9     H     0.38983  0.38983  0.00000  0.22035
      10     H     0.40410  0.40410  0.00000  0.19181
      11     F     4.68123  4.68123  0.00000 -0.36246
      12     F     4.67632  4.67632  0.00000 -0.35264
      13     F     4.67621  4.67621  0.00000 -0.35242

   Total alpha = 32.00000, Total beta = 32.00000, Total charge = -0.00000
