  ==> Input File <==

--------------------------------------------------------------------------
set {
	reference rhf
	basis 6-31G*
}

set_num_threads( 4 )
memory 2 gb

molecule MOL {
0 1

H	 -2.646374	 -0.642757	 1.268656
C	 -2.083525	 -0.384536	 0.393091
O	 -0.807605	 -0.127164	 0.768327
F	 -2.118945	 -1.383102	 -0.486752
F	 -2.621877	 0.670592	 -0.209486
C	 0.084052	 0.273579	 -0.209957
C	 1.353033	 -0.546803	 -0.018071
Cl	 0.433844	 2.004619	 -0.074457
H	 -0.288836	 0.092657	 -1.202930
F	 1.091956	 -1.645952	 0.657094
F	 2.217410	 0.165038	 0.677324
F	 1.907858	 -0.874169	 -1.159550

	symmetry c1
}
set optking {
	frozen_dihedral = ("
		10 7 6 9
	")
}

ee = optimize('scf')
oeprop('DIPOLE', 'QUADRUPOLE', 'MULLIKEN_CHARGES')
f=open( 'psi4out.xyz', 'w' )
f.write( "12  " )
f.write( str(ee) + "\n" )
f.write( MOL.save_string_xyz() )
f.close()
--------------------------------------------------------------------------

    Molecular point group: c1
  Charge       = 0
  Multiplicity = 1
  Basis Set: 6-31G*
  Basis Set:
  @DF-RHF Final Energy: -1146.30438205916857
    Total Energy =                      -1146.3043820591685744
    Molecular point group: c1
  Basis Set: 6-31G*
  Basis Set:
  Basis Set: 6-31G*
  Basis Set:
  @DF-RHF Final Energy: -1146.30557393931440
    Total Energy =                      -1146.3055739393141721
  Basis Set: 6-31G*
  Basis Set:
  Basis Set: 6-31G*
  Basis Set:
  @DF-RHF Final Energy: -1146.30738049064394
    Total Energy =                      -1146.3073804906439364
  Basis Set: 6-31G*
  Basis Set:
  Basis Set: 6-31G*
  Basis Set:
  @DF-RHF Final Energy: -1146.30749011794728
    Total Energy =                      -1146.3074901179468270
  Basis Set: 6-31G*
  Basis Set:
  @DF-RHF Final Energy: -1146.30750836316975
    Total Energy =                      -1146.3075083631695179
  @DF-RHF Final Energy: -1146.30751959139184
    Total Energy =                      -1146.3075195913920652
  @DF-RHF Final Energy: -1146.30754132554694
    Total Energy =                      -1146.3075413255473904
  @DF-RHF Final Energy: -1146.30756246433839
    Total Energy =                      -1146.3075624643370247
  Basis Set: 6-31G*
  Basis Set:
  @DF-RHF Final Energy: -1146.30757171565620
    Total Energy =                      -1146.3075717156557403
  Basis Set: 6-31G*
  Basis Set:
  Basis Set: 6-31G*
  Basis Set:
  @DF-RHF Final Energy: -1146.30757638039950
    Total Energy =                      -1146.3075763803997233
  Basis Set: 6-31G*
  Basis Set:
  Basis Set: 6-31G*
  Basis Set:
  @DF-RHF Final Energy: -1146.30757817120138
    Total Energy =                      -1146.3075781712009302
  Basis Set: 6-31G*
  Basis Set:
  Charge       = 0
  Multiplicity = 1
  Basis Set: 6-31G*
  Basis Set:

    Orbital Energies (a.u.)
    -----------------------

    Doubly Occupied:

       1A   -104.843464     2A    -26.360132     3A    -26.357833
       4A    -26.355598     5A    -26.346910     6A    -26.346636
       7A    -20.648633     8A    -11.528612     9A    -11.489998
      10A    -11.401492    11A    -10.578041    12A     -8.047386
      13A     -8.043870    14A     -8.043737    15A     -1.761067
      16A     -1.718190    17A     -1.657768    18A     -1.654094
      19A     -1.638874    20A     -1.486361    21A     -1.177887
      22A     -1.046515    23A     -0.988078    24A     -0.919379
      25A     -0.857688    26A     -0.853503    27A     -0.843444
      28A     -0.826561    29A     -0.813538    30A     -0.790477
      31A     -0.729464    32A     -0.725259    33A     -0.704150
      34A     -0.701548    35A     -0.676592    36A     -0.675043
      37A     -0.657624    38A     -0.655990    39A     -0.646216
      40A     -0.631445    41A     -0.597332    42A     -0.576888
      43A     -0.523815    44A     -0.476487    45A     -0.467427

  @DF-RHF Final Energy: -1146.30757824436569

   => Energetics <=

    Nuclear Repulsion Energy =            737.3497374840641214
    One-Electron Energy =               -3057.5725403434976215
    Two-Electron Energy =                1173.9152246150679275
    DFT Exchange-Correlation Energy =       0.0000000000000000
    Empirical Dispersion Energy =           0.0000000000000000
    PCM Polarization Energy =               0.0000000000000000
    EFP Energy =                            0.0000000000000000
    Total Energy =                      -1146.3075782443656863
    Molecular point group: c1
  Basis Set: 6-31G*
  Basis Set:

  -Total Gradient:
     Atom            X                  Y                   Z
    ------   -----------------  -----------------  -----------------
       1       -0.000007583503     0.000006737533    -0.000001901633
       2        0.000004565253    -0.000020327238     0.000013488611
       3        0.000012043456    -0.000003503124    -0.000020770736
       4       -0.000002523162     0.000006868720    -0.000006076037
       5       -0.000004171915    -0.000001312162    -0.000002505400
       6       -0.004274009215    -0.005272741487     0.003845370240
       7       -0.000643754057    -0.002011435042    -0.006723285459
       8       -0.000003666091     0.000019357203     0.000008559303
       9        0.003812772333     0.004926045859    -0.001989083782
      10        0.001117828007     0.002356143342     0.004862757980
      11       -0.000010204719    -0.000025280241     0.000024351467
      12       -0.000001296385     0.000019446604    -0.000010904553

  **** Optimization is complete! (in 12 steps) ****
    Final optimized geometry and variables:
    Molecular point group: c1

    Geometry (in Angstrom), charge = 0, multiplicity = 1:

    H           -2.679242408594    -0.601268327699     1.245530866648
    C           -2.077722358488    -0.396403393121     0.381848673208
    O           -0.867408069917     0.043442990128     0.799267764187
    F           -1.945471604048    -1.494305337213    -0.359725002549
    F           -2.669493488605     0.511972255693    -0.388595246090
    C            0.062297413740     0.358142882181    -0.170782963688
    C            1.306092847439    -0.544594879926    -0.020442684324
    CL           0.497527346934     2.073609051086    -0.045844041091
    H           -0.306223174847     0.238590605902    -1.173521937351
    F            0.989644357193    -1.660693443608     0.595527302841
    F            2.278379622043     0.015265425356     0.660702259336
    F            1.767869627209    -0.838152071564    -1.220661573360

  Mulliken Charges: (a.u.)
   Center  Symbol    Alpha    Beta     Spin     Total
       1     H     0.40071  0.40071  0.00000  0.19858
       2     C     2.56599  2.56599  0.00000  0.86803
       3     O     4.29196  4.29196  0.00000 -0.58392
       4     F     4.68708  4.68708  0.00000 -0.37417
       5     F     4.68563  4.68563  0.00000 -0.37127
       6     C     3.06768  3.06768  0.00000 -0.13536
       7     C     2.42705  2.42705  0.00000  1.14591
       8    CL     8.49593  8.49593  0.00000  0.00814
       9     H     0.36243  0.36243  0.00000  0.27514
      10     F     4.67091  4.67091  0.00000 -0.34182
      11     F     4.66705  4.66705  0.00000 -0.33411
      12     F     4.67758  4.67758  0.00000 -0.35515

   Total alpha = 45.00000, Total beta = 45.00000, Total charge = -0.00000
