  ==> Input File <==

--------------------------------------------------------------------------
set {
	reference rhf
	basis 6-31G*
}

set_num_threads( 1 )
memory 2 gb

molecule MOL {
0 1

H	 3.463771	 0.168298	 -0.756243
C	 2.752674	 -0.045734	 0.033351
C	 1.322923	 0.120767	 -0.479465
H	 2.934561	 -1.059086	 0.377456
H	 2.958358	 0.631174	 0.856809
C	 0.306652	 -0.176050	 0.621399
H	 1.144658	 -0.551717	 -1.312180
H	 1.166477	 1.131798	 -0.836680
N	 -1.068537	 -0.011044	 0.085269
H	 0.372515	 -1.192590	 0.973735
H	 0.391664	 0.520566	 1.441230
O	 -1.977802	 -0.209525	 0.830396
O	 -1.168403	 0.278856	 -1.067992

	symmetry c1
}
set optking {
	frozen_dihedral = ("
		7 3 6 9
	")
}

ee = energy('scf')
oeprop('DIPOLE', 'QUADRUPOLE', 'MULLIKEN_CHARGES')
f=open( 'psi4out.xyz', 'w' )
f.write( "13  " )
f.write( str(ee) + "\n" )
f.write( MOL.save_string_xyz() )
f.close()
--------------------------------------------------------------------------

    Molecular point group: c1

    Geometry (in Angstrom), charge = 0, multiplicity = 1:

       Center              X                  Y                   Z               Mass
    ------------   -----------------  -----------------  -----------------  -----------------
           H          3.465677958288     0.175173176076    -0.759017583294     1.007825032070
           C          2.754580958288    -0.038858823924     0.030576416706    12.000000000000
           C          1.324829958288     0.127642176076    -0.482239583294    12.000000000000
           H          2.936467958288    -1.052210823924     0.374681416706     1.007825032070
           H          2.960264958288     0.638049176076     0.854034416706     1.007825032070
           C          0.308558958288    -0.169174823924     0.618624416706    12.000000000000
           H          1.146564958288    -0.544841823924    -1.314954583294     1.007825032070
           H          1.168383958288     1.138673176076    -0.839454583294     1.007825032070
           N         -1.066630041712    -0.004168823924     0.082494416706    14.003074004780
           H          0.374421958288    -1.185714823924     0.970960416706     1.007825032070
           H          0.393570958288     0.527441176076     1.438455416706     1.007825032070
           O         -1.975895041712    -0.202649823924     0.827621416706    15.994914619560
           O         -1.166496041712     0.285731176076    -1.070766583294    15.994914619560

  Charge       = 0
  Multiplicity = 1
  Basis Set: 6-31G*
  Basis Set:

    Orbital Energies (a.u.)
    -----------------------

    Doubly Occupied:

       1A    -20.603163     2A    -20.600143     3A    -15.848960
       4A    -11.300795     5A    -11.246476     6A    -11.234440
       7A     -1.632237     8A     -1.418098     9A     -1.133426
      10A     -1.025548    11A     -0.882672    12A     -0.822127
      13A     -0.762279    14A     -0.752774    15A     -0.726815
      16A     -0.654709    17A     -0.604754    18A     -0.579365
      19A     -0.551181    20A     -0.518096    21A     -0.509663
      22A     -0.484836    23A     -0.472935    24A     -0.448406

  @DF-RHF Final Energy:  -321.73284250210139

   => Energetics <=

    Nuclear Repulsion Energy =            248.3417085381403808
    One-Electron Energy =                -930.5213343998750588
    Two-Electron Energy =                 360.4467833596330593
    DFT Exchange-Correlation Energy =       0.0000000000000000
    Empirical Dispersion Energy =           0.0000000000000000
    PCM Polarization Energy =               0.0000000000000000
    EFP Energy =                            0.0000000000000000
    Total Energy =                       -321.7328425021015619

  Mulliken Charges: (a.u.)
   Center  Symbol    Alpha    Beta     Spin     Total
       1     H     0.40833  0.40833  0.00000  0.18335
       2     C     3.24878  3.24878  0.00000 -0.49757
       3     C     3.16428  3.16428  0.00000 -0.32856
       4     H     0.41776  0.41776  0.00000  0.16447
       5     H     0.41797  0.41797  0.00000  0.16407
       6     C     3.09174  3.09174  0.00000 -0.18347
       7     H     0.40082  0.40082  0.00000  0.19837
       8     H     0.40160  0.40160  0.00000  0.19681
       9     N     3.22293  3.22293  0.00000  0.55414
      10     H     0.38441  0.38441  0.00000  0.23119
      11     H     0.38545  0.38545  0.00000  0.22910
      12     O     4.22921  4.22921  0.00000 -0.45842
      13     O     4.22673  4.22673  0.00000 -0.45345

   Total alpha = 24.00000, Total beta = 24.00000, Total charge = -0.00000
