  ==> Input File <==

--------------------------------------------------------------------------
set {
	reference rhf
	basis 6-31G*
}

set_num_threads( 4 )
memory 2 gb

molecule MOL {
0 1

O	 1.308662	 0.983047	 -0.863291
C	 0.861134	 0.272526	 -0.014869
C	 -0.623889	 -0.118271	 -0.003699
C	 1.770175	 -0.254863	 1.081265
C	 -0.895332	 -1.256461	 -1.002431
C	 -1.473649	 1.103340	 -0.370799
C	 -0.983900	 -0.581483	 1.422328
H	 -0.615301	 -0.972064	 -2.012700
H	 -1.954261	 -1.493213	 -1.010207
H	 -0.360539	 -2.164946	 -0.747760
H	 -1.227476	 1.468527	 -1.361691
H	 -2.526716	 0.838935	 -0.358521
H	 -1.314819	 1.915855	 0.325860
H	 -2.039679	 -0.828001	 1.472951
H	 -0.427637	 -1.464071	 1.720694
H	 -0.789023	 0.202493	 2.147048
H	 2.046449	 -1.281413	 0.859167
H	 2.669048	 0.345626	 1.104869
H	 1.298668	 -0.248084	 2.056384

	symmetry c1
}
set optking {
	frozen_dihedral = ("
		1 2 3 5
	")
}

ee = optimize('scf')
oeprop('DIPOLE', 'QUADRUPOLE', 'MULLIKEN_CHARGES')
f=open( 'psi4out.xyz', 'w' )
f.write( "19  " )
f.write( str(ee) + "\n" )
f.write( MOL.save_string_xyz() )
f.close()
--------------------------------------------------------------------------

    Molecular point group: c1
  Charge       = 0
  Multiplicity = 1
  Basis Set: 6-31G*
  Basis Set:
  @DF-RHF Final Energy:  -309.05755590493698
    Total Energy =                       -309.0575559049367484
    Molecular point group: c1
  Basis Set: 6-31G*
  Basis Set:
  Basis Set: 6-31G*
  Basis Set:
  @DF-RHF Final Energy:  -309.05914396213836
    Total Energy =                       -309.0591439621381369
  Basis Set: 6-31G*
  Basis Set:
  Basis Set: 6-31G*
  Basis Set:
  @DF-RHF Final Energy:  -309.06139153901023
    Total Energy =                       -309.0613915390100601
  Basis Set: 6-31G*
  Basis Set:
  Basis Set: 6-31G*
  Basis Set:
  @DF-RHF Final Energy:  -309.06180065984159
    Total Energy =                       -309.0618006598414240
  Basis Set: 6-31G*
  Basis Set:
  @DF-RHF Final Energy:  -309.06196608230636
    Total Energy =                       -309.0619660823059576
  @DF-RHF Final Energy:  -309.06211825851420
    Total Energy =                       -309.0621182585143742
  @DF-RHF Final Energy:  -309.06226045833228
    Total Energy =                       -309.0622604583320481
  @DF-RHF Final Energy:  -309.06242616409656
    Total Energy =                       -309.0624261640966211
  Basis Set: 6-31G*
  Basis Set:
  @DF-RHF Final Energy:  -309.06242270088575
    Total Energy =                       -309.0624227008853495
  Basis Set: 6-31G*
  Basis Set:
  Basis Set: 6-31G*
  Basis Set:
  @DF-RHF Final Energy:  -309.06242578760617
    Total Energy =                       -309.0624257876063439
  Basis Set: 6-31G*
  Basis Set:
  Basis Set: 6-31G*
  Basis Set:
  @DF-RHF Final Energy:  -309.06243585362131
    Total Energy =                       -309.0624358536215368
  Basis Set: 6-31G*
  Basis Set:
  Charge       = 0
  Multiplicity = 1
  Basis Set: 6-31G*
  Basis Set:

    Orbital Energies (a.u.)
    -----------------------

    Doubly Occupied:

       1A    -20.547710     2A    -11.323315     3A    -11.246324
       4A    -11.227401     5A    -11.222759     6A    -11.221949
       7A    -11.210993     8A     -1.394566     9A     -1.108578
      10A     -1.003150    11A     -0.944566    12A     -0.936407
      13A     -0.833974    14A     -0.703817    15A     -0.664685
      16A     -0.631384    17A     -0.621710    18A     -0.590640
      19A     -0.587808    20A     -0.569730    21A     -0.548995
      22A     -0.546099    23A     -0.524498    24A     -0.512643
      25A     -0.500020    26A     -0.471981    27A     -0.461839
      28A     -0.391868

  @DF-RHF Final Energy:  -309.06243589383399

   => Energetics <=

    Nuclear Repulsion Energy =            326.2664239304073703
    One-Electron Energy =               -1065.5588978521475383
    Two-Electron Energy =                 430.2300380279061756
    DFT Exchange-Correlation Energy =       0.0000000000000000
    Empirical Dispersion Energy =           0.0000000000000000
    PCM Polarization Energy =               0.0000000000000000
    EFP Energy =                            0.0000000000000000
    Total Energy =                       -309.0624358938339356
    Molecular point group: c1
  Basis Set: 6-31G*
  Basis Set:

  -Total Gradient:
     Atom            X                  Y                   Z
    ------   -----------------  -----------------  -----------------
       1        0.000251195429    -0.001022312233    -0.000749324804
       2       -0.000398334993     0.001599587696     0.000856901087
       3        0.000329551968    -0.001183089067     0.000517024093
       4       -0.000008653231     0.000000770913     0.000002301367
       5       -0.000185748670     0.000618655134    -0.000628587428
       6        0.000008456588    -0.000006361051     0.000003318736
       7        0.000003199717    -0.000001831750     0.000000354067
       8        0.000003045594    -0.000000549543     0.000000940164
       9       -0.000000633550    -0.000000280124    -0.000001183317
      10       -0.000000972516    -0.000000066917    -0.000000303412
      11       -0.000000511324     0.000000412753    -0.000002124471
      12       -0.000002135699     0.000000051980    -0.000000245114
      13        0.000000216135    -0.000000367547     0.000000647994
      14       -0.000000387100     0.000001034210    -0.000001033985
      15        0.000000535276    -0.000001481898     0.000000592091
      16        0.000002032739     0.000000174949    -0.000000831721
      17        0.000000058529    -0.000002698095     0.000000944018
      18       -0.000000840945    -0.000001000411    -0.000000584730
      19       -0.000000073952    -0.000000649004     0.000001195367

  **** Optimization is complete! (in 12 steps) ****
    Final optimized geometry and variables:
    Molecular point group: c1

    Geometry (in Angstrom), charge = 0, multiplicity = 1:

    O            1.259643846834     1.006252422127    -0.890516930813
    C            0.862337930912     0.274924846624    -0.034274425542
    C           -0.620495058841    -0.134922976233     0.005961072776
    C            1.832195442275    -0.309460116184     0.973823896120
    C           -0.789819469453    -1.257910129662    -1.036673378026
    C           -1.478628281289     1.071396144072    -0.402090308322
    C           -1.066645888020    -0.636553889082     1.387005744349
    H           -0.501409870610    -0.912345732106    -2.022355134937
    H           -1.826717493374    -1.577008959148    -1.075029324496
    H           -0.186721329075    -2.128373968979    -0.792615872764
    H           -1.185722147898     1.445912861451    -1.373079570677
    H           -2.525922079098     0.787230595165    -0.440369051059
    H           -1.379125721042     1.882764726027     0.312736397431
    H           -2.120579224010    -0.892934261023     1.358132348841
    H           -0.526342631180    -1.523139244239     1.700579087776
    H           -0.938211807188     0.124352036555     2.151226626479
    H            1.785127873798    -1.393758314391     0.978787654352
    H            2.832989747329     0.006872631306     0.715771889192
    H            1.596342440553     0.028309951323     1.977605764145

  Mulliken Charges: (a.u.)
   Center  Symbol    Alpha    Beta     Spin     Total
       1     O     4.26667  4.26667  0.00000 -0.53334
       2     C     2.72629  2.72629  0.00000  0.54742
       3     C     3.06351  3.06351  0.00000 -0.12702
       4     C     3.28999  3.28999  0.00000 -0.57999
       5     C     3.23960  3.23960  0.00000 -0.47920
       6     C     3.23238  3.23238  0.00000 -0.46477
       7     C     3.24076  3.24076  0.00000 -0.48151
       8     H     0.40487  0.40487  0.00000  0.19026
       9     H     0.41467  0.41467  0.00000  0.17065
      10     H     0.41989  0.41989  0.00000  0.16023
      11     H     0.40117  0.40117  0.00000  0.19766
      12     H     0.42142  0.42142  0.00000  0.15717
      13     H     0.41929  0.41929  0.00000  0.16142
      14     H     0.41399  0.41399  0.00000  0.17203
      15     H     0.41788  0.41788  0.00000  0.16424
      16     H     0.41738  0.41738  0.00000  0.16524
      17     H     0.40865  0.40865  0.00000  0.18270
      18     H     0.39557  0.39557  0.00000  0.20886
      19     H     0.40602  0.40602  0.00000  0.18796

   Total alpha = 28.00000, Total beta = 28.00000, Total charge = -0.00000
