  ==> Input File <==

--------------------------------------------------------------------------
set {
	reference rhf
	basis 6-31G*
}

set_num_threads( 4 )
memory 2 gb

molecule MOL {
0 1

O	 1.846825	 1.296220	 0.000415
C	 1.705091	 0.115954	 0.001797
C	 0.381791	 -0.609817	 0.001258
O	 2.721346	 -0.737485	 -0.000216
C	 -0.823008	 0.326187	 0.001381
H	 0.371250	 -1.265087	 -0.865474
H	 0.370908	 -1.265746	 0.867490
C	 -1.671179	 0.180323	 1.265656
H	 -1.430705	 0.126915	 -0.875650
H	 -0.479515	 1.351257	 -0.096357
C	 -2.884679	 1.111456	 1.282072
H	 -2.009589	 -0.850501	 1.359877
H	 -1.055588	 0.379052	 2.141690
C	 -3.731080	 0.966127	 2.546088
H	 -3.502019	 0.912427	 0.408906
H	 -2.548203	 2.141622	 1.188911
H	 -4.111461	 -0.046226	 2.649366
H	 -4.582896	 1.638836	 2.528106
H	 -3.149876	 1.192314	 3.435667
C	 4.024888	 -0.184556	 -0.001949
H	 4.179030	 0.422472	 -0.882452
H	 4.701782	 -1.024608	 -0.003642
H	 4.181981	 0.421185	 0.878906

	symmetry c1
}
set optking {
	frozen_dihedral = ("
		9 5 3 6
	")
}

ee = optimize('scf')
oeprop('DIPOLE', 'QUADRUPOLE', 'MULLIKEN_CHARGES')
f=open( 'psi4out.xyz', 'w' )
f.write( "23  " )
f.write( str(ee) + "\n" )
f.write( MOL.save_string_xyz() )
f.close()
--------------------------------------------------------------------------

    Molecular point group: c1
  Charge       = 0
  Multiplicity = 1
  Basis Set: 6-31G*
  Basis Set:
  @DF-RHF Final Energy:  -422.97148879591919
    Total Energy =                       -422.9714887959187308
    Molecular point group: c1
  Basis Set: 6-31G*
  Basis Set:
  Basis Set: 6-31G*
  Basis Set:
  @DF-RHF Final Energy:  -422.97169627354373
    Total Energy =                       -422.9716962735435573
  Basis Set: 6-31G*
  Basis Set:
  Basis Set: 6-31G*
  Basis Set:
  @DF-RHF Final Energy:  -422.97166897600823
    Total Energy =                       -422.9716689760078907
  Basis Set: 6-31G*
  Basis Set:
  Basis Set: 6-31G*
  Basis Set:
  @DF-RHF Final Energy:  -422.97187334286275
    Total Energy =                       -422.9718733428629776
  Basis Set: 6-31G*
  Basis Set:
  Basis Set: 6-31G*
  Basis Set:
  @DF-RHF Final Energy:  -422.97187551604497
    Total Energy =                       -422.9718755160452019
  Basis Set: 6-31G*
  Basis Set:
  Basis Set: 6-31G*
  Basis Set:
  @DF-RHF Final Energy:  -422.97187724963641
    Total Energy =                       -422.9718772496366910
  Basis Set: 6-31G*
  Basis Set:
  Basis Set: 6-31G*
  Basis Set:
  @DF-RHF Final Energy:  -422.97187888789563
    Total Energy =                       -422.9718788878950591
  Basis Set: 6-31G*
  Basis Set:
  Charge       = 0
  Multiplicity = 1
  Basis Set: 6-31G*
  Basis Set:

    Orbital Energies (a.u.)
    -----------------------

    Doubly Occupied:

       1A    -20.604007     2A    -20.546327     3A    -11.373234
       4A    -11.281111     5A    -11.235281     6A    -11.217331
       7A    -11.216185     8A    -11.214802     9A    -11.208332
      10A     -1.469998    11A     -1.363357    12A     -1.090335
      13A     -1.042164    14A     -0.986435    15A     -0.931215
      16A     -0.843987    17A     -0.794622    18A     -0.766819
      19A     -0.701643    20A     -0.680926    21A     -0.672247
      22A     -0.642721    23A     -0.611358    24A     -0.599285
      25A     -0.570379    26A     -0.557227    27A     -0.555297
      28A     -0.529211    29A     -0.523392    30A     -0.499576
      31A     -0.487106    32A     -0.467522    33A     -0.462908
      34A     -0.457460    35A     -0.453804    36A     -0.438685

  @DF-RHF Final Energy:  -422.97187949075396

   => Energetics <=

    Nuclear Repulsion Energy =            455.2126903853873046
    One-Electron Energy =               -1478.1765663286964809
    Two-Electron Energy =                 599.9919964525556679
    DFT Exchange-Correlation Energy =       0.0000000000000000
    Empirical Dispersion Energy =           0.0000000000000000
    PCM Polarization Energy =               0.0000000000000000
    EFP Energy =                            0.0000000000000000
    Total Energy =                       -422.9718794907535084
    Molecular point group: c1
  Basis Set: 6-31G*
  Basis Set:

  -Total Gradient:
     Atom            X                  Y                   Z
    ------   -----------------  -----------------  -----------------
       1       -0.000014110948    -0.000015551406    -0.000004101641
       2       -0.000011989872     0.000069339464    -0.000004326915
       3        0.000781158579     0.001086222944    -0.000801090249
       4        0.000079873873    -0.000062198573     0.000003027747
       5       -0.000782816722    -0.001085636349     0.000804788820
       6       -0.000526635127    -0.000718817847     0.000543707841
       7       -0.000004209938    -0.000008543725    -0.000004607675
       8        0.000007750638     0.000003776005    -0.000010768219
       9        0.000524221418     0.000721629574    -0.000535706403
      10       -0.000019847790    -0.000000532116    -0.000004071589
      11       -0.000006847017     0.000006291726     0.000007942132
      12        0.000002466958     0.000004584349     0.000004701347
      13       -0.000002134026    -0.000000335998     0.000001735260
      14       -0.000012296112    -0.000000303231    -0.000001917290
      15        0.000004785603     0.000000697646     0.000000833758
      16        0.000002678985    -0.000000613906     0.000004727257
      17        0.000000156244    -0.000002373982     0.000001755090
      18       -0.000000338904    -0.000002579470    -0.000001895435
      19        0.000001193917     0.000002835684    -0.000001038600
      20       -0.000020448160     0.000007195706    -0.000008162898
      21        0.000002590162    -0.000000487498     0.000000562845
      22       -0.000006756574    -0.000004952746     0.000001319104
      23        0.000001554805     0.000000353746     0.000002585712

  **** Optimization is complete! (in 8 steps) ****
    Final optimized geometry and variables:
    Molecular point group: c1

    Geometry (in Angstrom), charge = 0, multiplicity = 1:

    O            1.661809240149     1.025414357052    -0.510462618983
    C            1.504642554075    -0.151753595080    -0.560791660881
    C            0.177861596259    -0.876019348967    -0.572958078487
    O            2.511813834687    -1.014761153253    -0.606036406537
    C           -1.054214036830     0.043696500782    -0.564797969675
    H            0.184009485886    -1.539079174554    -1.431715771152
    H            0.184075874122    -1.535596444157     0.290566236528
    C           -1.901983047672    -0.092728685234     0.701764778635
    H           -1.667621905874    -0.169164888548    -1.435497908607
    H           -0.727000698857     1.070990525672    -0.667207751633
    C           -3.122283774920     0.828345028774     0.706854342859
    H           -2.230220568218    -1.125376358103     0.811920020971
    H           -1.282665132002     0.126164795515     1.570135066764
    C           -3.966769728754     0.693365369502     1.973426759878
    H           -3.739414519047     0.612586510605    -0.162922220438
    H           -2.793426128306     1.859459399156     0.599707277347
    H           -4.338278117790    -0.320773897100     2.091411503628
    H           -4.824417899804     1.358328649869     1.946770325267
    H           -3.386739984248     0.937354213391     2.858930617441
    C            3.821396843659    -0.476456745895    -0.590805969581
    H            3.977610059855     0.167372582205    -1.444336700096
    H            4.488688602538    -1.323106783413    -0.633936579675
    H            3.990045621153     0.087444815169     0.315326779911

  Mulliken Charges: (a.u.)
   Center  Symbol    Alpha    Beta     Spin     Total
       1     O     4.28502  4.28502  0.00000 -0.57005
       2     C     2.61247  2.61247  0.00000  0.77506
       3     C     3.21043  3.21043  0.00000 -0.42087
       4     O     4.30540  4.30540  0.00000 -0.61080
       5     C     3.16209  3.16209  0.00000 -0.32418
       6     H     0.39704  0.39704  0.00000  0.20591
       7     H     0.39775  0.39775  0.00000  0.20451
       8     C     3.15462  3.15462  0.00000 -0.30923
       9     H     0.41911  0.41911  0.00000  0.16179
      10     H     0.39457  0.39457  0.00000  0.21087
      11     C     3.15281  3.15281  0.00000 -0.30563
      12     H     0.42464  0.42464  0.00000  0.15072
      13     H     0.42101  0.42101  0.00000  0.15797
      14     C     3.23947  3.23947  0.00000 -0.47894
      15     H     0.42313  0.42313  0.00000  0.15373
      16     H     0.41956  0.41956  0.00000  0.16087
      17     H     0.42233  0.42233  0.00000  0.15533
      18     H     0.41888  0.41888  0.00000  0.16225
      19     H     0.42109  0.42109  0.00000  0.15782
      20     C     3.09203  3.09203  0.00000 -0.18405
      21     H     0.40895  0.40895  0.00000  0.18210
      22     H     0.40846  0.40846  0.00000  0.18308
      23     H     0.40914  0.40914  0.00000  0.18173

   Total alpha = 36.00000, Total beta = 36.00000, Total charge =  0.00000
