                              Psi4 1.0.54 Driver

  ==> Input File <==

--------------------------------------------------------------------------
set {
	reference rhf
	basis cc-pvtz
}

set_num_threads( 4 )
memory 2 gb

molecule MOL {
0 1

O	 -2.474003	 -2.177954	 0.802273
C	 -1.698602	 -2.686553	 0.059636
C	 -0.661247	 -1.859868	 -0.674214
C	 -1.691261	 -4.177928	 -0.178098
C	 0.571414	 -1.616102	 0.205541
H	 -1.118301	 -0.912274	 -0.929708
H	 -0.366440	 -2.355462	 -1.593094
C	 1.630207	 -0.772146	 -0.501001
H	 0.247015	 -1.131826	 1.117938
H	 1.009281	 -2.568372	 0.494942
C	 2.907848	 -0.545876	 0.309149
H	 1.199663	 0.189805	 -0.767949
H	 1.895532	 -1.256715	 -1.436629
C	 3.373802	 0.906639	 0.372125
H	 3.699140	 -1.146831	 -0.127906
H	 2.764321	 -0.923458	 1.318191
H	 3.519798	 1.311927	 -0.623875
H	 4.316899	 0.983758	 0.900700
H	 2.661122	 1.540651	 0.885346
H	 -2.001727	 -4.378014	 -1.198674
H	 -2.367078	 -4.667099	 0.506411
H	 -0.690486	 -4.579044	 -0.063454

	symmetry c1
}
set optking {
	frozen_dihedral = ("
		12 8 11 15
	")
}

ee,wfn = optimize('scf', return_wfn=True)
oeprop( wfn, 'DIPOLE', 'QUADRUPOLE', 'MULLIKEN_CHARGES')
f=open( 'psi4out.xyz', 'w' )
f.write( "22  " )
f.write( str(ee) + "\n" )
f.write( MOL.save_string_xyz() )
f.close()
--------------------------------------------------------------------------

    Molecular point group: c1
  Charge       = 0
  Multiplicity = 1
  Basis Set: CC-PVTZ
  Basis Set:
  @DF-RHF Final Energy:  -348.21959932420214
    Total Energy =                       -348.2195993242022496
    Molecular point group: c1
  Basis Set: CC-PVTZ
  Basis Set:
  Basis Set: CC-PVTZ
  Basis Set:
  @DF-RHF Final Energy:  -348.22001063803344
    Total Energy =                       -348.2200106380333864
  Basis Set: CC-PVTZ
  Basis Set:
  Basis Set: CC-PVTZ
  Basis Set:
  @DF-RHF Final Energy:  -348.21999624450513
    Total Energy =                       -348.2199962445051824
  Basis Set: CC-PVTZ
  Basis Set:
  Basis Set: CC-PVTZ
  Basis Set:
  @DF-RHF Final Energy:  -348.21995921612813
    Total Energy =                       -348.2199592161277906
  Basis Set: CC-PVTZ
  Basis Set:
  Basis Set: CC-PVTZ
  Basis Set:
  @DF-RHF Final Energy:  -348.22005353823886
    Total Energy =                       -348.2200535382394264
  Basis Set: CC-PVTZ
  Basis Set:
  Basis Set: CC-PVTZ
  Basis Set:
  @DF-RHF Final Energy:  -348.22002724018199
    Total Energy =                       -348.2200272401815937
  Basis Set: CC-PVTZ
  Basis Set:
  Basis Set: CC-PVTZ
  Basis Set:
  @DF-RHF Final Energy:  -348.22006138601347
    Total Energy =                       -348.2200613860132989
  Basis Set: CC-PVTZ
  Basis Set:
  Charge       = 0
  Multiplicity = 1
  Basis Set: CC-PVTZ
  Basis Set:

    Orbital Energies (a.u.)
    -----------------------

    Doubly Occupied:

       1A    -20.536774     2A    -11.319326     3A    -11.228984
       4A    -11.227531     5A    -11.226892     6A    -11.220128
       7A    -11.218602     8A    -11.210566     9A     -1.396909
      10A     -1.096292    11A     -1.045903    12A     -1.001501
      13A     -0.939499    14A     -0.847654    15A     -0.799094
      16A     -0.733975    17A     -0.664558    18A     -0.648025
      19A     -0.631264    20A     -0.612870    21A     -0.599390
      22A     -0.583131    23A     -0.561313    24A     -0.554281
      25A     -0.530079    26A     -0.513825    27A     -0.502761
      28A     -0.489589    29A     -0.474960    30A     -0.463501
      31A     -0.461037    32A     -0.398421

  @DF-RHF Final Energy:  -348.22006184827706

   => Energetics <=

    Nuclear Repulsion Energy =            369.7552113660771056
    One-Electron Energy =               -1204.4732720707640965
    Two-Electron Energy =                 486.4979988564097084
    DFT Exchange-Correlation Energy =       0.0000000000000000
    Empirical Dispersion Energy =           0.0000000000000000
    PCM Polarization Energy =               0.0000000000000000
    EFP Energy =                            0.0000000000000000
    Total Energy =                       -348.2200618482772825
    Molecular point group: c1
  Basis Set: CC-PVTZ
  Basis Set:

  -Total Gradient:
     Atom            X                  Y                   Z
    ------   -----------------  -----------------  -----------------
       1        0.000011287653    -0.000006507929    -0.000003924584
       2        0.000022195261    -0.000018802073     0.000011156336
       3       -0.000004576855    -0.000001449838    -0.000006404325
       4       -0.000042038477     0.000006312801    -0.000015723291
       5       -0.000009843107    -0.000002390223     0.000003600358
       6       -0.000005728725    -0.000007206980    -0.000003250879
       7       -0.000000210505     0.000010085132     0.000011632749
       8       -0.001500377154     0.000498503801     0.002223999851
       9        0.000004904960    -0.000002248016    -0.000009251589
      10       -0.000001915484    -0.000000449998    -0.000004263285
      11       -0.000502484407    -0.002291630004     0.001377113277
      12        0.001347715787    -0.000064818111    -0.002085292142
      13       -0.000000063904     0.000006098785     0.000011213011
      14        0.000015758352     0.000002234461     0.000005496266
      15        0.000650105658     0.001853241186    -0.001516375846
      16       -0.000005651548     0.000008932639    -0.000012749193
      17       -0.000011011726    -0.000004657983     0.000013408336
      18       -0.000000045238     0.000003719000    -0.000005881377
      19        0.000006395165    -0.000012334818    -0.000005543989
      20        0.000010018260     0.000002058411     0.000006951411
      21        0.000008080397     0.000010914438    -0.000003596626
      22        0.000007485635     0.000010395320     0.000007685525

  **** Optimization is complete! (in 8 steps) ****
    Final optimized geometry and variables:
    Molecular point group: c1

    Geometry (in Angstrom), charge = 0, multiplicity = 1:

    O           -2.715885995968    -0.499650985238     0.804470866724
    C           -1.963743537849    -1.036043286976     0.057614183572
    C           -0.928587008256    -0.242116673200    -0.714165631533
    C           -1.986232346393    -2.531740784583    -0.149801700869
    C            0.334677361114    -0.019533765664     0.125670482037
    H           -1.370003460297     0.713427188654    -0.967125129889
    H           -0.672206744706    -0.754610399089    -1.635402304412
    C            1.395030446371     0.795674812972    -0.608381585629
    H            0.057074839713     0.486131538433     1.044158073350
    H            0.758249298043    -0.978040679224     0.414790532772
    C            2.679933654416     1.019548650851     0.212926701951
    H            0.975739264371     1.753140498994    -0.902160071571
    H            1.643110242972     0.294220131906    -1.539375406533
    C            3.146459192244     2.473177318114     0.216820362684
    H            3.479930611719     0.406451075431    -0.187759678227
    H            2.524422304172     0.696385700078     1.236847597693
    H            3.337182544319     2.824399901637    -0.791924434785
    H            4.061240471507     2.590720220397     0.786500020209
    H            2.395908529627     3.122510024983     0.654943931026
    H           -2.325749627506    -2.746295511190    -1.158089897657
    H           -2.652908698737    -2.995535064384     0.560787387765
    H           -0.989891371333    -2.947913669610    -0.051984524843

  Mulliken Charges: (a.u.)
   Center  Symbol    Alpha    Beta     Spin     Total
       1     O     4.17776  4.17776  0.00000 -0.35552
       2     C     2.85816  2.85816  0.00000  0.28367
       3     C     3.09920  3.09920  0.00000 -0.19841
       4     C     3.15524  3.15524  0.00000 -0.31049
       5     C     3.10177  3.10177  0.00000 -0.20353
       6     H     0.43860  0.43860  0.00000  0.12279
       7     H     0.44930  0.44930  0.00000  0.10140
       8     C     3.09407  3.09407  0.00000 -0.18814
       9     H     0.44051  0.44051  0.00000  0.11899
      10     H     0.45061  0.45061  0.00000  0.09878
      11     C     3.08801  3.08801  0.00000 -0.17602
      12     H     0.45108  0.45108  0.00000  0.09783
      13     H     0.45120  0.45120  0.00000  0.09760
      14     C     3.14759  3.14759  0.00000 -0.29518
      15     H     0.45111  0.45111  0.00000  0.09779
      16     H     0.45290  0.45290  0.00000  0.09419
      17     H     0.45452  0.45452  0.00000  0.09096
      18     H     0.44902  0.44902  0.00000  0.10195
      19     H     0.45407  0.45407  0.00000  0.09185
      20     H     0.44834  0.44834  0.00000  0.10332
      21     H     0.43605  0.43605  0.00000  0.12790
      22     H     0.45088  0.45088  0.00000  0.09824

   Total alpha = 32.00000, Total beta = 32.00000, Total charge = -0.00000

*** Psi4 exiting successfully. Buy a developer a beer!
