  ==> Input File <==

--------------------------------------------------------------------------
set {
	reference rhf
	basis 6-31G*
}

set_num_threads( 4 )
memory 2 gb

molecule MOL {
0 1

H	 -3.269016	 -0.876744	 0.468090
C	 -2.809304	 0.000122	 0.025886
N	 -1.391456	 0.000019	 0.300661
H	 -3.037557	 -0.000063	 -1.044252
H	 -3.269223	 0.876956	 0.468000
C	 -0.630205	 0.670372	 -0.735153
C	 -0.876352	 -1.334714	 0.535107
H	 -0.733504	 0.165484	 -1.700515
H	 -1.010458	 1.680273	 -0.849478
C	 0.842287	 0.727508	 -0.359557
H	 -1.436152	 -1.787147	 1.347193
H	 -0.995943	 -1.972334	 -0.346169
C	 0.596140	 -1.277578	 0.910703
H	 1.402087	 1.179942	 -1.171643
H	 0.961878	 1.365128	 0.521719
N	 1.357391	 -0.607225	 -0.125112
H	 0.976393	 -2.287479	 1.025027
H	 0.699439	 -0.772690	 1.876065
C	 2.775239	 -0.607328	 0.149662
H	 3.309528	 -0.153374	 -0.677521
H	 3.128842	 -1.626870	 0.256087
H	 3.034166	 -0.061073	 1.061725

	symmetry c1
}
set optking {
	frozen_dihedral = ("
		6 3 2 4
	")
}

ee = optimize('scf')
oeprop('DIPOLE', 'QUADRUPOLE', 'MULLIKEN_CHARGES')
f=open( 'psi4out.xyz', 'w' )
f.write( "22  " )
f.write( str(ee) + "\n" )
f.write( MOL.save_string_xyz() )
f.close()
--------------------------------------------------------------------------

    Molecular point group: c1
  Charge       = 0
  Multiplicity = 1
  Basis Set: 6-31G*
  Basis Set:
  @DF-RHF Final Energy:  -344.22666781272414
    Total Energy =                       -344.2266678127239175
    Molecular point group: c1
  Basis Set: 6-31G*
  Basis Set:
  Basis Set: 6-31G*
  Basis Set:
  @DF-RHF Final Energy:  -344.22691171405279
    Total Energy =                       -344.2269117140525623
  Basis Set: 6-31G*
  Basis Set:
  Basis Set: 6-31G*
  Basis Set:
  @DF-RHF Final Energy:  -344.22696285977071
    Total Energy =                       -344.2269628597711062
  Basis Set: 6-31G*
  Basis Set:
  Charge       = 0
  Multiplicity = 1
  Basis Set: 6-31G*
  Basis Set:

    Orbital Energies (a.u.)
    -----------------------

    Doubly Occupied:

       1A    -15.541504     2A    -15.541288     3A    -11.238560
       4A    -11.238530     5A    -11.237852     6A    -11.237782
       7A    -11.235717     8A    -11.235668     9A     -1.254036
      10A     -1.202634    11A     -1.024019    12A     -0.991093
      13A     -0.911607    14A     -0.866036    15A     -0.835626
      16A     -0.755402    17A     -0.664868    18A     -0.634999
      19A     -0.629707    20A     -0.625311    21A     -0.619583
      22A     -0.580084    23A     -0.551345    24A     -0.546713
      25A     -0.541452    26A     -0.518711    27A     -0.497730
      28A     -0.488730    29A     -0.463621    30A     -0.454622
      31A     -0.349403    32A     -0.344377

  @DF-RHF Final Energy:  -344.22696446467023

   => Energetics <=

    Nuclear Repulsion Energy =            421.1590915326800086
    One-Electron Energy =               -1301.0548822715886672
    Two-Electron Energy =                 535.6688262742384268
    DFT Exchange-Correlation Energy =       0.0000000000000000
    Empirical Dispersion Energy =           0.0000000000000000
    PCM Polarization Energy =               0.0000000000000000
    EFP Energy =                            0.0000000000000000
    Total Energy =                       -344.2269644646702318
    Molecular point group: c1
  Basis Set: 6-31G*
  Basis Set:

  -Total Gradient:
     Atom            X                  Y                   Z
    ------   -----------------  -----------------  -----------------
       1       -0.000006431268    -0.000007268561     0.000002341103
       2        0.000094305631    -0.008097675733    -0.000729226541
       3       -0.000523806430     0.006147769640     0.002591718248
       4        0.000031699950     0.005300639940     0.000002411632
       5       -0.000003868655     0.000024946520     0.000001748619
       6        0.000319883473    -0.003502428927    -0.001840648454
       7       -0.000024907400     0.000148503978     0.000021956488
       8       -0.000014795319     0.000001934947    -0.000022284973
       9        0.000008699024    -0.000008513299    -0.000000784469
      10        0.000043362212     0.000038405914     0.000005543714
      11       -0.000004643087     0.000009444410    -0.000014993631
      12        0.000013310057    -0.000005489963     0.000008107717
      13        0.000042806924    -0.000036454461     0.000004706551
      14        0.000027435133    -0.000006606869    -0.000001646239
      15        0.000008986616    -0.000001542047     0.000001049552
      16       -0.000002351612    -0.000007627690    -0.000015259853
      17        0.000046047659    -0.000012785023     0.000001678245
      18       -0.000013613343    -0.000003754903    -0.000019570392
      19       -0.000017240547     0.000015946655     0.000010817462
      20       -0.000009260311     0.000003456649    -0.000004665632
      21       -0.000015472076    -0.000000063961    -0.000001988447
      22       -0.000000146630    -0.000000837216    -0.000001010697

  **** Optimization is complete! (in 4 steps) ****
    Final optimized geometry and variables:
    Molecular point group: c1

    Geometry (in Angstrom), charge = 0, multiplicity = 1:

    H           -3.291612584716    -0.534985949280     0.403033357827
    C           -2.801564878695     0.314176518242    -0.055876838790
    N           -1.376167783879     0.299181830788     0.221532201652
    H           -3.021432571386     0.315757943069    -1.124411787699
    H           -3.247707956676     1.216161847892     0.354026111675
    C           -0.615804633840     0.963569205424    -0.820246067910
    C           -0.854637071847    -1.039423385849     0.438144399090
    H           -0.721550478009     0.448694541555    -1.779468685223
    H           -0.999522580958     1.971576984866    -0.944538237665
    C            0.856972484051     1.030933373821    -0.449246319242
    H           -1.408092907811    -1.503280418139     1.247426451061
    H           -0.968847708921    -1.669917763104    -0.448656202406
    C            0.617254748689    -0.977854022915     0.815776518663
    H            1.411863497648     1.484976898580    -1.263971682199
    H            0.975613515688     1.670836593854     0.430414134698
    N            1.379377766774    -0.300849930637    -0.215012790869
    H            1.001275749970    -1.986774277295     0.927447835596
    H            0.715394009524    -0.476151069461     1.783342202084
    C            2.795787891042    -0.293169287688     0.065693018580
    H            3.331001606907     0.166323205508    -0.757900027292
    H            3.155014399629    -1.310905824919     0.170758013080
    H            3.047715362600     0.251910948511     0.980442786895

  Mulliken Charges: (a.u.)
   Center  Symbol    Alpha    Beta     Spin     Total
       1     H     0.41857  0.41857  0.00000  0.16286
       2     C     3.14078  3.14078  0.00000 -0.28155
       3     N     3.78699  3.78699  0.00000 -0.57398
       4     H     0.42919  0.42919  0.00000  0.14161
       5     H     0.41581  0.41581  0.00000  0.16839
       6     C     3.05943  3.05943  0.00000 -0.11887
       7     C     3.05854  3.05854  0.00000 -0.11708
       8     H     0.42759  0.42759  0.00000  0.14483
       9     H     0.41739  0.41739  0.00000  0.16521
      10     C     3.05572  3.05572  0.00000 -0.11144
      11     H     0.41769  0.41769  0.00000  0.16463
      12     H     0.42850  0.42850  0.00000  0.14301
      13     C     3.05629  3.05629  0.00000 -0.11258
      14     H     0.41811  0.41811  0.00000  0.16377
      15     H     0.42837  0.42837  0.00000  0.14325
      16     N     3.78704  3.78704  0.00000 -0.57407
      17     H     0.41816  0.41816  0.00000  0.16367
      18     H     0.42843  0.42843  0.00000  0.14314
      19     C     3.14026  3.14026  0.00000 -0.28052
      20     H     0.41686  0.41686  0.00000  0.16627
      21     H     0.41685  0.41685  0.00000  0.16630
      22     H     0.43343  0.43343  0.00000  0.13314

   Total alpha = 32.00000, Total beta = 32.00000, Total charge = -0.00000
