                              Psi4 1.0.54 Driver

  ==> Input File <==

--------------------------------------------------------------------------
set {
	reference rhf
	basis cc-pvtz
}

set_num_threads( 4 )
memory 2 gb

molecule MOL {
0 1

O	 -0.694481	 1.313155	 -0.204815
C	 -0.862519	 0.151932	 -0.046791
C	 -2.171428	 -0.477048	 0.339095
O	 0.085519	 -0.757083	 -0.192238
H	 -2.467997	 -1.191667	 -0.417688
H	 -2.923379	 0.287970	 0.444097
H	 -2.053854	 -1.015120	 1.270901
C	 1.392036	 -0.330828	 -0.560749
C	 1.427568	 1.147881	 -0.886408
H	 1.736282	 -0.921222	 -1.395462
H	 2.004446	 -0.549639	 0.301125
H	 2.447641	 1.449022	 -1.096690
H	 0.822686	 1.366878	 -1.755626
H	 1.065567	 1.732805	 -0.049501

	symmetry c1
}
set optking {
	frozen_dihedral = ("
		10 8 4 2
	")
}

ee,wfn = optimize('scf', return_wfn=True)
oeprop( wfn, 'DIPOLE', 'QUADRUPOLE', 'MULLIKEN_CHARGES')
f=open( 'psi4out.xyz', 'w' )
f.write( "14  " )
f.write( str(ee) + "\n" )
f.write( MOL.save_string_xyz() )
f.close()
--------------------------------------------------------------------------

    Molecular point group: c1
  Charge       = 0
  Multiplicity = 1
  Basis Set: CC-PVTZ
  Basis Set:
  @DF-RHF Final Energy:  -305.94684998458126
    Total Energy =                       -305.9468499845812630
    Molecular point group: c1
  Basis Set: CC-PVTZ
  Basis Set:
  Basis Set: CC-PVTZ
  Basis Set:
  @DF-RHF Final Energy:  -304.64981869773851
    Total Energy =                       -304.6498186977386240
  Basis Set: CC-PVTZ
  Basis Set:
  Basis Set: CC-PVTZ
  Basis Set:
  @DF-RHF Final Energy:  -304.82694825291810
    Total Energy =                       -304.8269482529179868
  Basis Set: CC-PVTZ
  Basis Set:
  Basis Set: CC-PVTZ
  Basis Set:
  @DF-RHF Final Energy:  -304.97699583754979
    Total Energy =                       -304.9769958375497936
  Basis Set: CC-PVTZ
  Basis Set:
  @DF-RHF Final Energy:  -305.11195277264079
    Total Energy =                       -305.1119527726407341
  @DF-RHF Final Energy:  -305.37689906474935
    Total Energy =                       -305.3768990647492956
  @DF-RHF Final Energy:  -305.53784640725183
    Total Energy =                       -305.5378464072520046
  @DF-RHF Final Energy:  -305.75135683481790
    Total Energy =                       -305.7513568348178978
  @DF-RHF Final Energy:  -305.87174759671143
    Total Energy =                       -305.8717475967112591
  @DF-RHF Final Energy:  -305.94423694783342
    Total Energy =                       -305.9442369478333603
  @DF-RHF Final Energy:  -305.96080050579894
    Total Energy =                       -305.9608005057987157
  @DF-RHF Final Energy:  -305.96476776877324
    Total Energy =                       -305.9647677687735268
  @DF-RHF Final Energy:  -305.97714769685388
    Total Energy =                       -305.9771476968535922
  @DF-RHF Final Energy:  -305.97856194948474
    Total Energy =                       -305.9785619494846856
  @DF-RHF Final Energy:  -305.97893178916451
    Total Energy =                       -305.9789317891643918
  @DF-RHF Final Energy:  -305.97956923822596
    Total Energy =                       -305.9795692382257357
  @DF-RHF Final Energy:  -305.97976376791047
    Total Energy =                       -305.9797637679106401
  @DF-RHF Final Energy:  -305.97978166657589
    Total Energy =                       -305.9797816665758319
  Basis Set: CC-PVTZ
  Basis Set:
  @DF-RHF Final Energy:  -305.97978605021831
    Total Energy =                       -305.9797860502180242
  Basis Set: CC-PVTZ
  Basis Set:
  Basis Set: CC-PVTZ
  Basis Set:
  @DF-RHF Final Energy:  -305.97978912383957
    Total Energy =                       -305.9797891238396232
  Basis Set: CC-PVTZ
  Basis Set:
  Basis Set: CC-PVTZ
  Basis Set:
  @DF-RHF Final Energy:  -305.97979033139387
    Total Energy =                       -305.9797903313942129
  Basis Set: CC-PVTZ
  Basis Set:
  Charge       = 0
  Multiplicity = 1
  Basis Set: CC-PVTZ
  Basis Set:

    Orbital Energies (a.u.)
    -----------------------

    Doubly Occupied:

       1A    -20.591156     2A    -20.528345     3A    -11.368246
       4A    -11.290237     5A    -11.228486     6A    -11.213867
       7A     -1.463292     8A     -1.364888     9A     -1.056270
      10A     -0.996393    11A     -0.894458    12A     -0.748468
      13A     -0.689310    14A     -0.684245    15A     -0.674199
      16A     -0.611484    17A     -0.588523    18A     -0.569153
      19A     -0.548082    20A     -0.535510    21A     -0.516922
      22A     -0.496151    23A     -0.445459    24A     -0.433226

  @DF-RHF Final Energy:  -305.97979110861343

   => Energetics <=

    Nuclear Repulsion Energy =            249.0821256888274320
    One-Electron Energy =                -911.0510909620345501
    Two-Electron Energy =                 355.9891741645936349
    DFT Exchange-Correlation Energy =       0.0000000000000000
    Empirical Dispersion Energy =           0.0000000000000000
    PCM Polarization Energy =               0.0000000000000000
    EFP Energy =                            0.0000000000000000
    Total Energy =                       -305.9797911086134832
    Molecular point group: c1
  Basis Set: CC-PVTZ
  Basis Set:

  -Total Gradient:
     Atom            X                  Y                   Z
    ------   -----------------  -----------------  -----------------
       1        0.000012914685     0.000021919984     0.000015356167
       2       -0.000738688935    -0.001725896381     0.000350435312
       3       -0.000063739933    -0.000031885666     0.000025558336
       4        0.000836513178     0.002577391344    -0.000505551817
       5        0.000016696849     0.000018967692    -0.000017553141
       6        0.000012428184    -0.000022605159    -0.000010303454
       7        0.000015626533     0.000036331147    -0.000005119773
       8        0.001818470556    -0.000378739210     0.000125957326
       9       -0.000015273229     0.000013091690    -0.000015673561
      10       -0.001874925647    -0.000506490505     0.000011580377
      11       -0.000019288938     0.000009454527     0.000010427599
      12       -0.000009173777    -0.000003056669     0.000007639384
      13        0.000006015923    -0.000002294383    -0.000001481472
      14        0.000002424551    -0.000006188411     0.000008728716

  **** Optimization is complete! (in 22 steps) ****
    Final optimized geometry and variables:
    Molecular point group: c1

    Geometry (in Angstrom), charge = 0, multiplicity = 1:

    O           -1.165961896512     0.764790336656     0.209049955176
    C           -0.214206789100     0.322287231764     0.753855731587
    C            0.026487331098     0.422738221543     2.236516266779
    O            0.785562178967    -0.310695139043     0.170356026957
    H            0.120728198065    -0.569446498084     2.658381652838
    H           -0.792897022264     0.947982232616     2.699629233484
    H            0.955997596850     0.946457854445     2.418716316811
    C            0.891565548812    -0.678166941642    -1.206838783840
    C           -0.312823069795    -0.507292722801    -2.114766995945
    H            1.162994694242    -1.724071586820    -1.181169854289
    H            1.732277130909    -0.120373914145    -1.595681664811
    H           -0.032257900321    -0.921905062715    -3.078062453722
    H           -1.175113406439    -1.046600712591    -1.750976299251
    H           -0.590353846932     0.525312070826    -2.248341306037

  Mulliken Charges: (a.u.)
   Center  Symbol    Alpha    Beta     Spin     Total
       1     O     4.19747  4.19747  0.00000 -0.39494
       2     C     2.80641  2.80641  0.00000  0.38719
       3     C     3.13474  3.13474  0.00000 -0.26947
       4     O     4.15614  4.15614  0.00000 -0.31228
       5     H     0.44702  0.44702  0.00000  0.10596
       6     H     0.43908  0.43908  0.00000  0.12184
       7     H     0.44610  0.44610  0.00000  0.10780
       8     C     2.98057  2.98057  0.00000  0.03886
       9     C     3.14887  3.14887  0.00000 -0.29775
      10     H     0.45244  0.45244  0.00000  0.09512
      11     H     0.45385  0.45385  0.00000  0.09230
      12     H     0.45272  0.45272  0.00000  0.09456
      13     H     0.44534  0.44534  0.00000  0.10931
      14     H     0.43925  0.43925  0.00000  0.12150

   Total alpha = 24.00000, Total beta = 24.00000, Total charge =  0.00000

*** Psi4 exiting successfully. Buy a developer a beer!
