                              Psi4 1.0.54 Driver

  ==> Input File <==

--------------------------------------------------------------------------
set {
	reference rhf
	basis cc-pvtz
}

set_num_threads( 4 )
memory 2 gb

molecule MOL {
0 1

H	 2.856977	 0.089498	 -2.121207
O	 1.940880	 -0.091408	 -2.228285
C	 1.247976	 0.212216	 -1.113312
C	 1.858374	 0.724406	 0.021481
C	 -0.114997	 -0.002683	 -1.125309
H	 2.920238	 0.891191	 0.029095
C	 1.105767	 1.020117	 1.140004
H	 -0.589372	 -0.398146	 -2.000192
C	 -0.861704	 0.296439	 0.000000
H	 1.588875	 1.415944	 2.012215
C	 -0.258212	 0.808065	 1.136160
C	 -2.330689	 0.069587	 0.000000
H	 -0.846049	 1.037058	 2.004432
O	 -2.848621	 -0.993976	 0.000000
H	 -2.934306	 0.982410	 0.000000

	symmetry c1
}
set optking {
	frozen_dihedral = ("
		11 9 12 14
	")
}

ee,wfn = optimize('scf', return_wfn=True)
oeprop( wfn, 'DIPOLE', 'QUADRUPOLE', 'MULLIKEN_CHARGES')
f=open( 'psi4out.xyz', 'w' )
f.write( "15  " )
f.write( str(ee) + "\n" )
f.write( MOL.save_string_xyz() )
f.close()
--------------------------------------------------------------------------

    Molecular point group: c1
  Charge       = 0
  Multiplicity = 1
  Basis Set: CC-PVTZ
  Basis Set:
  @DF-RHF Final Energy:  -418.42836569435065
    Total Energy =                       -418.4283656943506458
    Molecular point group: c1
  Basis Set: CC-PVTZ
  Basis Set:
  Basis Set: CC-PVTZ
  Basis Set:
  @DF-RHF Final Energy:  -418.42694041596604
    Total Energy =                       -418.4269404159664418
  Basis Set: CC-PVTZ
  Basis Set:
  Basis Set: CC-PVTZ
  Basis Set:
  @DF-RHF Final Energy:  -418.42853478237009
    Total Energy =                       -418.4285347823705479
  Basis Set: CC-PVTZ
  Basis Set:
  Basis Set: CC-PVTZ
  Basis Set:
  @DF-RHF Final Energy:  -418.42879186947278
    Total Energy =                       -418.4287918694726613
  Basis Set: CC-PVTZ
  Basis Set:
  Basis Set: CC-PVTZ
  Basis Set:
  @DF-RHF Final Energy:  -418.42879599066617
    Total Energy =                       -418.4287959906660035
  Basis Set: CC-PVTZ
  Basis Set:
  Charge       = 0
  Multiplicity = 1
  Basis Set: CC-PVTZ
  Basis Set:

    Orbital Energies (a.u.)
    -----------------------

    Doubly Occupied:

       1A    -20.596018     2A    -20.562944     3A    -11.332536
       4A    -11.311753     5A    -11.255474     6A    -11.249706
       7A    -11.239620     8A    -11.237441     9A    -11.236952
      10A     -1.427920    11A     -1.417537    12A     -1.172174
      13A     -1.050587    14A     -1.027683    15A     -0.901499
      16A     -0.846308    17A     -0.820410    18A     -0.742213
      19A     -0.703869    20A     -0.684041    21A     -0.661383
      22A     -0.644230    23A     -0.616215    24A     -0.607164
      25A     -0.585862    26A     -0.547430    27A     -0.535994
      28A     -0.516042    29A     -0.497164    30A     -0.426982
      31A     -0.357364    32A     -0.328513

  @DF-RHF Final Energy:  -418.42879678542050

   => Energetics <=

    Nuclear Repulsion Energy =            403.3004575136172321
    One-Electron Energy =               -1369.1764463286990576
    Two-Electron Energy =                 547.4471920296610961
    DFT Exchange-Correlation Energy =       0.0000000000000000
    Empirical Dispersion Energy =           0.0000000000000000
    PCM Polarization Energy =               0.0000000000000000
    EFP Energy =                            0.0000000000000000
    Total Energy =                       -418.4287967854207864
    Molecular point group: c1
  Basis Set: CC-PVTZ
  Basis Set:

  -Total Gradient:
     Atom            X                  Y                   Z
    ------   -----------------  -----------------  -----------------
       1       -0.000003974818     0.000014560137    -0.000005315614
       2        0.000008698032     0.000022117930     0.000005212980
       3       -0.000099905444    -0.000148286957    -0.000052009848
       4       -0.000016296182     0.000076535395     0.000122123495
       5        0.000082520347     0.000050270944    -0.000054007821
       6       -0.000000430198    -0.000009421912    -0.000002339084
       7        0.000141255262     0.000023335830    -0.000059571551
       8        0.000000579597     0.000014931044     0.000000759552
       9       -0.000848639259     0.005141092716     0.000383170935
      10       -0.000004987798    -0.000000109906     0.000010079251
      11        0.000516771003    -0.003654523598     0.001173439075
      12        0.000194392564    -0.001404255624    -0.006255573929
      13        0.000014371378     0.000018746209    -0.000000944141
      14        0.000047152359    -0.000186786954     0.004744298502
      15       -0.000031506847     0.000041794743    -0.000009321805

  **** Optimization is complete! (in 6 steps) ****
    Final optimized geometry and variables:
    Molecular point group: c1

    Geometry (in Angstrom), charge = 0, multiplicity = 1:

    H            2.885862693500    -0.136439728189    -1.823917490830
    O            1.965631609422    -0.293036673273    -1.936080714225
    C            1.280237573302     0.016606262402    -0.819621311784
    C            1.893046440311     0.517962881976     0.313897419474
    C           -0.088583408521    -0.192053886110    -0.833951365144
    H            2.956432924789     0.672689946220     0.327602103368
    C            1.133025921412     0.814927843934     1.429465171979
    H           -0.546270377923    -0.605127746680    -1.710964533085
    C           -0.837246276087     0.125756245431     0.279547467136
    H            1.615916473394     1.193802474143     2.309667639307
    C           -0.233046967787     0.628648982007     1.421100329868
    C           -2.313095031205    -0.133722733330     0.285574829743
    H           -0.817995919601     0.864894955245     2.289335014425
    O           -2.789636285696    -1.213853538412     0.268524361183
    H           -2.950716240220     0.753784428613     0.354881031295

  Mulliken Charges: (a.u.)
   Center  Symbol    Alpha    Beta     Spin     Total
       1     H     0.38649  0.38649  0.00000  0.22702
       2     O     4.17116  4.17116  0.00000 -0.34231
       3     C     2.83608  2.83608  0.00000  0.32785
       4     C     3.13920  3.13920  0.00000 -0.27839
       5     C     3.13155  3.13155  0.00000 -0.26309
       6     H     0.43257  0.43257  0.00000  0.13487
       7     C     3.05511  3.05511  0.00000 -0.11022
       8     H     0.41504  0.41504  0.00000  0.16993
       9     C     2.92844  2.92844  0.00000  0.14311
      10     H     0.41971  0.41971  0.00000  0.16058
      11     C     3.11682  3.11682  0.00000 -0.23363
      12     C     2.93070  2.93070  0.00000  0.13860
      13     H     0.42499  0.42499  0.00000  0.15002
      14     O     4.15594  4.15594  0.00000 -0.31189
      15     H     0.45622  0.45622  0.00000  0.08756

   Total alpha = 32.00000, Total beta = 32.00000, Total charge = -0.00000

*** Psi4 exiting successfully. Buy a developer a beer!
