  ==> Input File <==

--------------------------------------------------------------------------
set {
	reference rhf
	basis 6-31G*
}

set_num_threads( 4 )
memory 2 gb

molecule MOL {
0 1

H	 -3.435634	 2.817605	 0.551938
C	 -3.661302	 1.745350	 0.497474
C	 -2.660244	 0.921717	 -0.272021
O	 -4.635754	 1.312740	 1.021918
C	 -1.220012	 1.144545	 0.209990
H	 -2.947747	 -0.120834	 -0.200338
H	 -2.737979	 1.218398	 -1.317293
C	 -0.252658	 0.041456	 -0.226725
H	 -0.873521	 2.100229	 -0.171974
H	 -1.211708	 1.231594	 1.295398
C	 1.180775	 0.282413	 0.250794
H	 -0.266029	 -0.034465	 -1.312038
H	 -0.597733	 -0.921000	 0.146291
C	 2.148627	 -0.814315	 -0.201312
H	 1.516199	 1.249228	 -0.115937
H	 1.192670	 0.346017	 1.338083
C	 3.580890	 -0.659131	 0.322722
H	 2.166869	 -0.852443	 -1.289387
H	 1.762857	 -1.776509	 0.128956
C	 4.324889	 0.564933	 -0.213704
H	 4.142010	 -1.551473	 0.056605
H	 3.564836	 -0.624694	 1.410140
H	 4.342616	 0.565491	 -1.300421
H	 3.866655	 1.493402	 0.110242
H	 5.353900	 0.572371	 0.132816

	symmetry c1
}
set optking {
	frozen_dihedral = ("
		6 3 5 8
	")
}

ee = optimize('scf')
oeprop('DIPOLE', 'QUADRUPOLE', 'MULLIKEN_CHARGES')
f=open( 'psi4out.xyz', 'w' )
f.write( "25  " )
f.write( str(ee) + "\n" )
f.write( MOL.save_string_xyz() )
f.close()
--------------------------------------------------------------------------

    Molecular point group: c1
  Charge       = 0
  Multiplicity = 1
  Basis Set: 6-31G*
  Basis Set:
  @DF-RHF Final Energy:  -387.12095344840770
    Total Energy =                       -387.1209534484077039
    Molecular point group: c1
  Basis Set: 6-31G*
  Basis Set:
  Basis Set: 6-31G*
  Basis Set:
  @DF-RHF Final Energy:  -387.12118371519074
    Total Energy =                       -387.1211837151906821
  Basis Set: 6-31G*
  Basis Set:
  Basis Set: 6-31G*
  Basis Set:
  @DF-RHF Final Energy:  -387.12079278685451
    Total Energy =                       -387.1207927868542811
  Basis Set: 6-31G*
  Basis Set:
  Basis Set: 6-31G*
  Basis Set:
  @DF-RHF Final Energy:  -387.12121137136995
    Total Energy =                       -387.1212113713702365
  Basis Set: 6-31G*
  Basis Set:
  Basis Set: 6-31G*
  Basis Set:
  @DF-RHF Final Energy:  -387.12120667733592
    Total Energy =                       -387.1212066773352944
  Basis Set: 6-31G*
  Basis Set:
  Basis Set: 6-31G*
  Basis Set:
  @DF-RHF Final Energy:  -387.12121600680649
    Total Energy =                       -387.1212160068063213
  Basis Set: 6-31G*
  Basis Set:
  Charge       = 0
  Multiplicity = 1
  Basis Set: 6-31G*
  Basis Set:

    Orbital Energies (a.u.)
    -----------------------

    Doubly Occupied:

       1A    -20.561597     2A    -11.326215     3A    -11.235832
       4A    -11.234500     5A    -11.226294     6A    -11.220889
       7A    -11.219344     8A    -11.218620     9A    -11.211808
      10A     -1.401466    11A     -1.104531    12A     -1.070436
      13A     -1.015013    14A     -0.944822    15A     -0.875295
      16A     -0.813059    17A     -0.795664    18A     -0.781121
      19A     -0.677275    20A     -0.655255    21A     -0.633944
      22A     -0.622297    23A     -0.615607    24A     -0.588652
      25A     -0.565072    26A     -0.560314    27A     -0.528894
      28A     -0.522431    29A     -0.516433    30A     -0.493314
      31A     -0.488501    32A     -0.479719    33A     -0.466045
      34A     -0.460184    35A     -0.450337    36A     -0.407413

  @DF-RHF Final Energy:  -387.12121557326958

   => Energetics <=

    Nuclear Repulsion Energy =            431.7169256127095309
    One-Electron Energy =               -1379.6998977538223699
    Two-Electron Energy =                 560.8617565678442816
    DFT Exchange-Correlation Energy =       0.0000000000000000
    Empirical Dispersion Energy =           0.0000000000000000
    PCM Polarization Energy =               0.0000000000000000
    EFP Energy =                            0.0000000000000000
    Total Energy =                       -387.1212155732686142
    Molecular point group: c1
  Basis Set: 6-31G*
  Basis Set:

  -Total Gradient:
     Atom            X                  Y                   Z
    ------   -----------------  -----------------  -----------------
       1       -0.000003449566    -0.000024127363    -0.000020517129
       2        0.000109041347    -0.000041337720    -0.000024839502
       3       -0.001711769563     0.000225972410     0.004569836544
       4       -0.000050305353    -0.000004961762     0.000035674722
       5        0.000924919585     0.001618029834    -0.003399063533
       6        0.001180294212    -0.000465348951    -0.003026499313
       7        0.000035626826    -0.000000173053    -0.000029428097
       8       -0.000432001095    -0.001255217351     0.001854765185
       9       -0.000060771363    -0.000015648605    -0.000006485419
      10        0.000001880291     0.000005006491     0.000000375209
      11        0.000009722729    -0.000032106872     0.000030739347
      12        0.000021869886    -0.000019600839    -0.000004488408
      13       -0.000014619076     0.000030947754     0.000015518370
      14        0.000008885554    -0.000014858805    -0.000001950479
      15        0.000018309194     0.000018757534     0.000009782400
      16       -0.000008265721    -0.000010146753     0.000014401833
      17        0.000013159287     0.000001183897    -0.000040687553
      18       -0.000014856291    -0.000029295522    -0.000000881082
      19        0.000015552949     0.000007140409     0.000022473714
      20       -0.000012851095    -0.000005054579     0.000006666576
      21        0.000009694841     0.000007417474    -0.000011701811
      22       -0.000007345313    -0.000009316170    -0.000005005799
      23       -0.000004126678    -0.000003271341     0.000005548825
      24       -0.000031976558     0.000012923426     0.000003995857
      25        0.000003380972     0.000003086456     0.000001769542

  **** Optimization is complete! (in 7 steps) ****
    Final optimized geometry and variables:
    Molecular point group: c1

    Geometry (in Angstrom), charge = 0, multiplicity = 1:

    H           -3.305633077805     2.296467409080     0.405342219173
    C           -3.533993301264     1.226896251035     0.325679552970
    C           -2.516789842678     0.408153747361    -0.423048731400
    O           -4.526604427045     0.790952439087     0.812657958469
    C           -1.083932879089     0.642762391691     0.082268213760
    H           -2.793487890271    -0.638210938981    -0.368395864304
    H           -2.574863856376     0.693388592725    -1.473337182402
    C           -0.117771024590    -0.454990706280    -0.366891646647
    H           -0.730115506562     1.613460632272    -0.255767988001
    H           -1.084233576899     0.678708784730     1.170188665976
    C            1.319462345795    -0.217943517755     0.100762621546
    H           -0.135863909718    -0.531536909397    -1.452892877204
    H           -0.469943577336    -1.411359332204     0.012809303049
    C            2.278372493863    -1.324595783272    -0.346513128780
    H            1.659281060681     0.743652238787    -0.275205208119
    H            1.336492642181    -0.146115989524     1.187226854879
    C            3.714723892802    -1.172615230280     0.167063846032
    H            2.290351034983    -1.372713068766    -1.434307739320
    H            1.889312265739    -2.281576536582    -0.005038999265
    C            4.459596089395     0.046721707291    -0.379352409354
    H            4.270729114476    -2.068330350198    -0.098310992668
    H            3.705239127765    -1.133215375835     1.254391494511
    H            4.473506683075     0.040843668691    -1.466022557990
    H            4.005053252575     0.978387104887    -0.059081792174
    H            5.489763451582     0.053707861441    -0.036955543440

  Mulliken Charges: (a.u.)
   Center  Symbol    Alpha    Beta     Spin     Total
       1     H     0.43195  0.43195  0.00000  0.13610
       2     C     2.82904  2.82904  0.00000  0.34191
       3     C     3.20984  3.20984  0.00000 -0.41969
       4     O     4.23829  4.23829  0.00000 -0.47657
       5     C     3.16501  3.16501  0.00000 -0.33001
       6     H     0.39906  0.39906  0.00000  0.20187
       7     H     0.40800  0.40800  0.00000  0.18401
       8     C     3.15212  3.15212  0.00000 -0.30425
       9     H     0.41758  0.41758  0.00000  0.16484
      10     H     0.41515  0.41515  0.00000  0.16970
      11     C     3.15471  3.15471  0.00000 -0.30942
      12     H     0.42137  0.42137  0.00000  0.15725
      13     H     0.41854  0.41854  0.00000  0.16292
      14     C     3.15310  3.15310  0.00000 -0.30621
      15     H     0.42091  0.42091  0.00000  0.15819
      16     H     0.42245  0.42245  0.00000  0.15509
      17     C     3.15269  3.15269  0.00000 -0.30539
      18     H     0.42376  0.42376  0.00000  0.15248
      19     H     0.42125  0.42125  0.00000  0.15750
      20     C     3.24145  3.24145  0.00000 -0.48290
      21     H     0.42006  0.42006  0.00000  0.15988
      22     H     0.42272  0.42272  0.00000  0.15457
      23     H     0.42214  0.42214  0.00000  0.15572
      24     H     0.42043  0.42043  0.00000  0.15915
      25     H     0.41838  0.41838  0.00000  0.16325

   Total alpha = 36.00000, Total beta = 36.00000, Total charge = -0.00000
