                              Psi4 1.0.54 Driver

  ==> Input File <==

--------------------------------------------------------------------------
set {
	reference rhf
	basis cc-pvtz
}

set_num_threads( 4 )
memory 2 gb

molecule MOL {
0 1

O	 -1.765574	 2.174034	 0.054026
C	 -1.789881	 1.055067	 -0.344413
C	 -0.564136	 0.422065	 -0.972827
C	 -3.029858	 0.200572	 -0.230117
C	 0.376695	 -0.140025	 0.100361
H	 -0.052195	 1.190221	 -1.538480
H	 -0.857096	 -0.367444	 -1.656724
C	 1.630207	 -0.772146	 -0.501001
H	 0.643342	 0.664931	 0.773542
H	 -0.148062	 -0.884346	 0.694428
C	 2.907848	 -0.545876	 0.309149
H	 1.772784	 -0.391628	 -1.509394
H	 1.468529	 -1.842059	 -0.599744
C	 3.373802	 0.906639	 0.372125
H	 3.699140	 -1.146831	 -0.127906
H	 2.764321	 -0.923458	 1.318191
H	 3.519798	 1.311927	 -0.623875
H	 4.316899	 0.983758	 0.900700
H	 2.661122	 1.540651	 0.885346
H	 -3.424246	 0.009571	 -1.223080
H	 -3.776535	 0.705896	 0.362918
H	 -2.792798	 -0.761257	 0.210652

	symmetry c1
}
set optking {
	frozen_dihedral = ("
		3 5 8 12
	")
}

ee,wfn = optimize('scf', return_wfn=True)
oeprop( wfn, 'DIPOLE', 'QUADRUPOLE', 'MULLIKEN_CHARGES')
f=open( 'psi4out.xyz', 'w' )
f.write( "22  " )
f.write( str(ee) + "\n" )
f.write( MOL.save_string_xyz() )
f.close()
--------------------------------------------------------------------------

    Molecular point group: c1
  Charge       = 0
  Multiplicity = 1
  Basis Set: CC-PVTZ
  Basis Set:
  @DF-RHF Final Energy:  -348.21941332869523
    Total Energy =                       -348.2194133286951683
    Molecular point group: c1
  Basis Set: CC-PVTZ
  Basis Set:
  Basis Set: CC-PVTZ
  Basis Set:
  @DF-RHF Final Energy:  -348.21914746735501
    Total Energy =                       -348.2191474673550147
  Basis Set: CC-PVTZ
  Basis Set:
  Basis Set: CC-PVTZ
  Basis Set:
  @DF-RHF Final Energy:  -348.21977629487463
    Total Energy =                       -348.2197762948746913
  Basis Set: CC-PVTZ
  Basis Set:
  Basis Set: CC-PVTZ
  Basis Set:
  @DF-RHF Final Energy:  -348.21981735070273
    Total Energy =                       -348.2198173507032379
  Basis Set: CC-PVTZ
  Basis Set:
  @DF-RHF Final Energy:  -348.21986735372218
    Total Energy =                       -348.2198673537218951
  @DF-RHF Final Energy:  -348.21983528565789
    Total Energy =                       -348.2198352856571546
  Basis Set: CC-PVTZ
  Basis Set:
  @DF-RHF Final Energy:  -348.21983387417282
    Total Energy =                       -348.2198338741732186
  Basis Set: CC-PVTZ
  Basis Set:
  Basis Set: CC-PVTZ
  Basis Set:
  @DF-RHF Final Energy:  -348.21989338121875
    Total Energy =                       -348.2198933812182986
  Basis Set: CC-PVTZ
  Basis Set:
  Basis Set: CC-PVTZ
  Basis Set:
  @DF-RHF Final Energy:  -348.21989446236131
    Total Energy =                       -348.2198944623611396
  Basis Set: CC-PVTZ
  Basis Set:
  Charge       = 0
  Multiplicity = 1
  Basis Set: CC-PVTZ
  Basis Set:

    Orbital Energies (a.u.)
    -----------------------

    Doubly Occupied:

       1A    -20.536844     2A    -11.319098     3A    -11.228195
       4A    -11.227571     5A    -11.226807     6A    -11.220364
       7A    -11.218790     8A    -11.208738     9A     -1.396843
      10A     -1.095875    11A     -1.045466    12A     -0.999637
      13A     -0.939065    14A     -0.857073    15A     -0.789160
      16A     -0.734749    17A     -0.660647    18A     -0.649593
      19A     -0.627621    20A     -0.621081    21A     -0.599815
      22A     -0.575482    23A     -0.569451    24A     -0.546377
      25A     -0.533003    26A     -0.512914    27A     -0.505959
      28A     -0.489750    29A     -0.469467    30A     -0.464910
      31A     -0.460597    32A     -0.398236

  @DF-RHF Final Energy:  -348.21989459833947

   => Energetics <=

    Nuclear Repulsion Energy =            374.6749401248115419
    One-Electron Energy =               -1214.3313198205266872
    Two-Electron Energy =                 491.4364850973760781
    DFT Exchange-Correlation Energy =       0.0000000000000000
    Empirical Dispersion Energy =           0.0000000000000000
    PCM Polarization Energy =               0.0000000000000000
    EFP Energy =                            0.0000000000000000
    Total Energy =                       -348.2198945983390672
    Molecular point group: c1
  Basis Set: CC-PVTZ
  Basis Set:

  -Total Gradient:
     Atom            X                  Y                   Z
    ------   -----------------  -----------------  -----------------
       1        0.000006182135    -0.000022926570    -0.000001237313
       2       -0.000010965534    -0.000005780250     0.000017848171
       3        0.001246123749     0.002347705770     0.000180977661
       4       -0.000012123431     0.000030419813    -0.000021828830
       5       -0.002222172597    -0.003918084111    -0.000589165224
       6       -0.000002205266    -0.000003488176    -0.000002083103
       7        0.000007117804     0.000005818229     0.000006557522
       8        0.002979789072     0.004328075510     0.001814410539
       9       -0.000005637824    -0.000009794080    -0.000009487340
      10        0.000003480128     0.000009200454    -0.000004938860
      11        0.000004855408    -0.000002714783    -0.000004454048
      12       -0.002012058285    -0.002758552068    -0.001400586819
      13        0.000001927709     0.000009936197     0.000000252569
      14       -0.000004727891    -0.000001667380     0.000000639537
      15        0.000000578263     0.000000313853     0.000002369386
      16       -0.000000215746     0.000003201409    -0.000003418198
      17       -0.000002367684    -0.000003449208     0.000003527648
      18        0.000000715094     0.000000755578    -0.000000468862
      19        0.000000266284    -0.000000929338    -0.000000063795
      20        0.000004136016    -0.000008053397     0.000008646299
      21        0.000009392221    -0.000005591167    -0.000002473128
      22        0.000007910377     0.000005603713     0.000004976186

  **** Optimization is complete! (in 10 steps) ****
    Final optimized geometry and variables:
    Molecular point group: c1

    Geometry (in Angstrom), charge = 0, multiplicity = 1:

    O           -1.975624994703     1.739634266711     0.202511635177
    C           -1.957184449305     0.628979778767    -0.218984932790
    C           -0.700087068694     0.047514992211    -0.834054068517
    C           -3.172816588804    -0.264346819425    -0.149472992370
    C            0.224838503494    -0.531218085687     0.244504219617
    H           -0.187310957478     0.845530726910    -1.354843625103
    H           -0.956685689879    -0.721809363684    -1.555537586419
    C            1.499808101789    -1.165432640220    -0.336119359600
    H            0.479567562965     0.274990931831     0.921042958075
    H           -0.306502815945    -1.268009572027     0.838491664009
    C            2.750485530677    -0.980162435866     0.523711807652
    H            1.678264336435    -0.784335542215    -1.337693548129
    H            1.324731716676    -2.228901268284    -0.469420208740
    C            3.311468637607     0.439522900348     0.513642196192
    H            3.518996767764    -1.660366223601     0.170414706354
    H            2.529343245864    -1.277988648013     1.545320558429
    H            3.594199946922     0.735387166557    -0.491218212803
    H            4.194155562679     0.509682965527     1.138704965564
    H            2.594594246412     1.164375175843     0.880571305408
    H           -3.546528671411    -0.435049395295    -1.154052556328
    H           -3.942734469609     0.201267812607     0.446312360913
    H           -2.915349580350    -1.232376193331     0.265254276744

  Mulliken Charges: (a.u.)
   Center  Symbol    Alpha    Beta     Spin     Total
       1     O     4.17720  4.17720  0.00000 -0.35440
       2     C     2.85872  2.85872  0.00000  0.28256
       3     C     3.09889  3.09889  0.00000 -0.19777
       4     C     3.15513  3.15513  0.00000 -0.31026
       5     C     3.10980  3.10980  0.00000 -0.21961
       6     H     0.43879  0.43879  0.00000  0.12242
       7     H     0.44818  0.44818  0.00000  0.10364
       8     C     3.09865  3.09865  0.00000 -0.19730
       9     H     0.43941  0.43941  0.00000  0.12117
      10     H     0.44515  0.44515  0.00000  0.10969
      11     C     3.08963  3.08963  0.00000 -0.17927
      12     H     0.45321  0.45321  0.00000  0.09357
      13     H     0.44735  0.44735  0.00000  0.10531
      14     C     3.14992  3.14992  0.00000 -0.29983
      15     H     0.44782  0.44782  0.00000  0.10436
      16     H     0.45350  0.45350  0.00000  0.09299
      17     H     0.45482  0.45482  0.00000  0.09035
      18     H     0.44696  0.44696  0.00000  0.10608
      19     H     0.45148  0.45148  0.00000  0.09705
      20     H     0.44830  0.44830  0.00000  0.10340
      21     H     0.43612  0.43612  0.00000  0.12777
      22     H     0.45097  0.45097  0.00000  0.09807

   Total alpha = 32.00000, Total beta = 32.00000, Total charge = -0.00000

*** Psi4 exiting successfully. Buy a developer a beer!
