  ==> Input File <==

--------------------------------------------------------------------------
set {
	reference rhf
	basis 6-31G*
}

set_num_threads( 1 )
memory 2 gb

molecule MOL {
0 1

H	 1.096074	 -1.245138	 -0.151995
O	 1.276496	 -0.470275	 -0.666668
C	 0.709265	 0.639550	 -0.033818
C	 -0.793441	 0.596080	 0.058728
H	 1.013645	 1.505168	 -0.611105
H	 1.124933	 0.769985	 0.964797
C	 -1.530462	 -0.493172	 -0.025500
H	 -1.268471	 1.554324	 0.202247
H	 -1.092586	 -1.461565	 -0.186463
H	 -2.602122	 -0.450675	 0.050101

	symmetry c1
}
set optking {
	frozen_dihedral = ("
		5 3 2 1,
		3 4 7 9
	")
}

ee = energy('scf')
oeprop('DIPOLE', 'QUADRUPOLE', 'MULLIKEN_CHARGES')
f=open( 'psi4out.xyz', 'w' )
f.write( "10  " )
f.write( str(ee) + "\n" )
f.write( MOL.save_string_xyz() )
f.close()
--------------------------------------------------------------------------

    Molecular point group: c1

    Geometry (in Angstrom), charge = 0, multiplicity = 1:

       Center              X                  Y                   Z               Mass
    ------------   -----------------  -----------------  -----------------  -----------------
           H          1.108138813032    -1.280713109969     0.027198103729     1.007825032070
           O          1.288560813032    -0.505850109969    -0.487474896271    15.994914619560
           C          0.721329813032     0.603974890031     0.145375103729    12.000000000000
           C         -0.781376186968     0.560504890031     0.237921103729    12.000000000000
           H          1.025709813032     1.469592890031    -0.431911896271     1.007825032070
           H          1.136997813032     0.734409890031     1.143990103729     1.007825032070
           C         -1.518397186968    -0.528747109969     0.153693103729    12.000000000000
           H         -1.256406186968     1.518748890031     0.381440103729     1.007825032070
           H         -1.080521186968    -1.497140109969    -0.007269896271     1.007825032070
           H         -2.590057186968    -0.486250109969     0.229294103729     1.007825032070

  Charge       = 0
  Multiplicity = 1
  Basis Set: 6-31G*
  Basis Set:

    Orbital Energies (a.u.)
    -----------------------

    Doubly Occupied:

       1A    -20.560309     2A    -11.278462     3A    -11.232693
       4A    -11.222430     5A     -1.369201     6A     -1.059738
       7A     -0.930204     8A     -0.767670     9A     -0.695062
      10A     -0.659913    11A     -0.621240    12A     -0.568043
      13A     -0.532224    14A     -0.502905    15A     -0.444663
      16A     -0.366399

  @DF-RHF Final Energy:  -191.91420843708335

   => Energetics <=

    Nuclear Repulsion Energy =            119.3533495147897270
    One-Electron Energy =                -496.9126859948986521
    Two-Electron Energy =                 185.6451280430258635
    DFT Exchange-Correlation Energy =       0.0000000000000000
    Empirical Dispersion Energy =           0.0000000000000000
    PCM Polarization Energy =               0.0000000000000000
    EFP Energy =                            0.0000000000000000
    Total Energy =                       -191.9142084370830617

  Mulliken Charges: (a.u.)
   Center  Symbol    Alpha    Beta     Spin     Total
       1     H     0.27960  0.27960  0.00000  0.44081
       2     O     4.36476  4.36476  0.00000 -0.72953
       3     C     3.00597  3.00597  0.00000 -0.01195
       4     C     3.08291  3.08291  0.00000 -0.16581
       5     H     0.41043  0.41043  0.00000  0.17914
       6     H     0.42303  0.42303  0.00000  0.15394
       7     C     3.19766  3.19766  0.00000 -0.39533
       8     H     0.40867  0.40867  0.00000  0.18266
       9     H     0.41823  0.41823  0.00000  0.16353
      10     H     0.40873  0.40873  0.00000  0.18254

   Total alpha = 16.00000, Total beta = 16.00000, Total charge = -0.00000
