  ==> Input File <==

--------------------------------------------------------------------------
set {
	reference rhf
	basis 6-31G*
}

set_num_threads( 4 )
memory 2 gb

molecule MOL {
0 1

O	 2.841495	 1.389456	 0.185497
C	 2.776531	 0.267917	 0.586355
C	 1.481348	 -0.524021	 0.569754
C	 3.993369	 -0.443016	 1.142265
C	 0.291004	 0.242674	 0.000989
H	 1.656802	 -1.437808	 0.003541
H	 1.277512	 -0.850894	 1.588580
C	 -0.994322	 -0.586602	 0.000262
H	 0.524234	 0.563138	 -1.009474
H	 0.144320	 1.150601	 0.577444
C	 -2.259874	 0.272531	 0.000494
H	 -1.004862	 -1.240012	 -0.870939
H	 -1.005220	 -1.241071	 0.870675
C	 -3.549786	 -0.549746	 -0.000374
H	 -2.250389	 0.926680	 -0.869574
H	 -2.250838	 0.925513	 0.871430
C	 -4.809590	 0.315458	 -0.000369
H	 -3.560515	 -1.202009	 -0.871156
H	 -3.561123	 -1.202955	 0.869711
H	 -4.844746	 0.956611	 -0.876632
H	 -5.706986	 -0.295590	 -0.001609
H	 -4.845960	 0.954827	 0.877144
H	 4.199972	 -1.343519	 0.571276
H	 4.850422	 0.214741	 1.101631
H	 3.817848	 -0.746546	 2.170222

	symmetry c1
}
set optking {
	frozen_dihedral = ("
		9 5 8 12
	")
}

ee = optimize('scf')
oeprop('DIPOLE', 'QUADRUPOLE', 'MULLIKEN_CHARGES')
f=open( 'psi4out.xyz', 'w' )
f.write( "25  " )
f.write( str(ee) + "\n" )
f.write( MOL.save_string_xyz() )
f.close()
--------------------------------------------------------------------------

    Molecular point group: c1
  Charge       = 0
  Multiplicity = 1
  Basis Set: 6-31G*
  Basis Set:
  @DF-RHF Final Energy:  -387.13458549787936
    Total Energy =                       -387.1345854978791294
    Molecular point group: c1
  Basis Set: 6-31G*
  Basis Set:
  Basis Set: 6-31G*
  Basis Set:
  @DF-RHF Final Energy:  -387.13476881205321
    Total Energy =                       -387.1347688120536077
  Basis Set: 6-31G*
  Basis Set:
  Basis Set: 6-31G*
  Basis Set:
  @DF-RHF Final Energy:  -387.13443628592461
    Total Energy =                       -387.1344362859248349
  Basis Set: 6-31G*
  Basis Set:
  Basis Set: 6-31G*
  Basis Set:
  @DF-RHF Final Energy:  -387.13483250860929
    Total Energy =                       -387.1348325086090654
  Basis Set: 6-31G*
  Basis Set:
  Basis Set: 6-31G*
  Basis Set:
  @DF-RHF Final Energy:  -387.13482908564146
    Total Energy =                       -387.1348290856407175
  Basis Set: 6-31G*
  Basis Set:
  Basis Set: 6-31G*
  Basis Set:
  @DF-RHF Final Energy:  -387.13484228927109
    Total Energy =                       -387.1348422892712051
  Basis Set: 6-31G*
  Basis Set:
  Charge       = 0
  Multiplicity = 1
  Basis Set: 6-31G*
  Basis Set:

    Orbital Energies (a.u.)
    -----------------------

    Doubly Occupied:

       1A    -20.550410     2A    -11.326098     3A    -11.231719
       4A    -11.228262     5A    -11.217136     6A    -11.216554
       7A    -11.215297     8A    -11.213505     9A    -11.208359
      10A     -1.395649    11A     -1.093075    12A     -1.056141
      13A     -1.014178    14A     -0.969129    15A     -0.890265
      16A     -0.814370    17A     -0.790540    18A     -0.730069
      19A     -0.661267    20A     -0.651008    21A     -0.633174
      22A     -0.623108    23A     -0.596536    24A     -0.583081
      25A     -0.566393    26A     -0.561472    27A     -0.539593
      28A     -0.524944    29A     -0.513792    30A     -0.490746
      31A     -0.486598    32A     -0.474340    33A     -0.463348
      34A     -0.462042    35A     -0.449439    36A     -0.399076

  @DF-RHF Final Energy:  -387.13484257826116

   => Energetics <=

    Nuclear Repulsion Energy =            438.3957859195014066
    One-Electron Energy =               -1393.3798367774979852
    Two-Electron Energy =                 567.8492082797348530
    DFT Exchange-Correlation Energy =       0.0000000000000000
    Empirical Dispersion Energy =           0.0000000000000000
    PCM Polarization Energy =               0.0000000000000000
    EFP Energy =                            0.0000000000000000
    Total Energy =                       -387.1348425782617824
    Molecular point group: c1
  Basis Set: 6-31G*
  Basis Set:

  -Total Gradient:
     Atom            X                  Y                   Z
    ------   -----------------  -----------------  -----------------
       1        0.000001828758    -0.000003084615    -0.000008439897
       2       -0.000000790254     0.000006439568     0.000018421895
       3        0.000015047317     0.000001716137    -0.000011380934
       4        0.000001391540     0.000002411921     0.000006380888
       5       -0.003024133840     0.004631319639     0.000207966195
       6       -0.000007506485    -0.000005428987     0.000001640121
       7        0.000003198050     0.000004889845     0.000001447093
       8        0.002718914198    -0.004152261231     0.002362787186
       9        0.002099458311    -0.003204420996    -0.000530454197
      10        0.000007789435    -0.000014626814     0.000001574736
      11       -0.000006365652    -0.000001090162    -0.000020620688
      12       -0.001797058039     0.002716660964    -0.002032743738
      13       -0.000009765426     0.000017828618    -0.000015554935
      14       -0.000009921296     0.000002953458     0.000034456399
      15       -0.000004519152     0.000007674676    -0.000001052376
      16        0.000012507587    -0.000004182212     0.000002002033
      17       -0.000001786144    -0.000002544239    -0.000021836417
      18        0.000000655287    -0.000003806527     0.000009299016
      19       -0.000001021632     0.000001554297     0.000009096043
      20        0.000001159731     0.000010194145     0.000003693393
      21       -0.000001192459     0.000001292249    -0.000010624244
      22       -0.000001880698    -0.000010142389     0.000003557785
      23        0.000001822385     0.000001028595    -0.000004598805
      24        0.000002021898    -0.000001475296    -0.000001415145
      25        0.000000146568    -0.000002900642    -0.000003601405

  **** Optimization is complete! (in 7 steps) ****
    Final optimized geometry and variables:
    Molecular point group: c1

    Geometry (in Angstrom), charge = 0, multiplicity = 1:

    O            2.882613721606     1.329150377539    -0.138108381283
    C            2.820612813423     0.214418449259     0.282040617520
    C            1.516529918645    -0.561288291575     0.329267662258
    C            4.050393947792    -0.502814431184     0.800154804013
    C            0.310771683779     0.213631188843    -0.199167782614
    H            1.656404479023    -1.483866739283    -0.233121626076
    H            1.351904245105    -0.874156063472     1.359365616160
    C           -0.970951348310    -0.629454667916    -0.193231347839
    H            0.535399717002     0.530644022697    -1.211775187148
    H            0.179553050338     1.113222873133     0.392488386037
    C           -2.240782840188     0.225208506421    -0.238066089205
    H           -0.973030454707    -1.283389939898    -1.063008182294
    H           -1.001705642062    -1.267962044721     0.687307827350
    C           -3.526021755368    -0.601338006264    -0.304391621041
    H           -2.195753685266     0.889906322551    -1.099265866358
    H           -2.271707243604     0.868065800213     0.639887980038
    C           -4.788637659658     0.259033049819    -0.341097752956
    H           -3.499087231405    -1.239265952302    -1.185355486059
    H           -3.569547122286    -1.269063451911     0.553757375105
    H           -4.790000349182     0.916098452481    -1.206187791687
    H           -5.682480647139    -0.355160078898    -0.391013544528
    H           -4.864478186699     0.881978380814     0.545669381453
    H            4.223097658698    -1.414705721502     0.236014155471
    H            4.912862263298     0.143446908576     0.714521539862
    H            3.912923979965    -0.787942423001     1.839119279190

  Mulliken Charges: (a.u.)
   Center  Symbol    Alpha    Beta     Spin     Total
       1     O     4.26127  4.26127  0.00000 -0.52254
       2     C     2.73587  2.73587  0.00000  0.52826
       3     C     3.21181  3.21181  0.00000 -0.42362
       4     C     3.28662  3.28662  0.00000 -0.57323
       5     C     3.14848  3.14848  0.00000 -0.29697
       6     H     0.40992  0.40992  0.00000  0.18016
       7     H     0.41023  0.41023  0.00000  0.17955
       8     C     3.15464  3.15464  0.00000 -0.30928
       9     H     0.41060  0.41060  0.00000  0.17879
      10     H     0.41186  0.41186  0.00000  0.17628
      11     C     3.15165  3.15165  0.00000 -0.30330
      12     H     0.42256  0.42256  0.00000  0.15489
      13     H     0.42483  0.42483  0.00000  0.15035
      14     C     3.15167  3.15167  0.00000 -0.30335
      15     H     0.42189  0.42189  0.00000  0.15621
      16     H     0.42328  0.42328  0.00000  0.15344
      17     C     3.23925  3.23925  0.00000 -0.47850
      18     H     0.42338  0.42338  0.00000  0.15324
      19     H     0.42385  0.42385  0.00000  0.15230
      20     H     0.42121  0.42121  0.00000  0.15758
      21     H     0.41954  0.41954  0.00000  0.16092
      22     H     0.42160  0.42160  0.00000  0.15679
      23     H     0.40879  0.40879  0.00000  0.18242
      24     H     0.39650  0.39650  0.00000  0.20700
      25     H     0.40870  0.40870  0.00000  0.18260

   Total alpha = 36.00000, Total beta = 36.00000, Total charge =  0.00000
