                              Psi4 1.0.54 Driver

  ==> Input File <==

--------------------------------------------------------------------------
set {
	reference rhf
	basis cc-pvtz
}

set_num_threads( 4 )
memory 2 gb

molecule MOL {
0 1

H	 -4.024094	 -0.454727	 0.000004
C	 -2.962215	 -0.297920	 0.000004
C	 -2.454736	 0.988978	 0.000025
C	 -2.105837	 -1.382632	 -0.000016
H	 -3.120052	 1.830438	 0.000041
C	 -1.090106	 1.189676	 0.000026
H	 -2.500390	 -2.380229	 -0.000033
C	 -0.739175	 -1.183302	 -0.000016
H	 -0.680214	 2.179144	 0.000042
C	 -0.227341	 0.104540	 0.000006
H	 -0.073209	 -2.021168	 -0.000032
C	 1.238974	 0.374429	 0.000004
O	 1.532153	 1.643915	 0.210811
O	 2.063107	 -0.460275	 -0.171029
C	 2.901647	 1.995696	 0.228060
H	 3.419840	 1.465641	 1.012848
H	 2.931863	 3.057336	 0.411353
H	 3.364427	 1.766353	 -0.719904

	symmetry c1
}
set optking {
	frozen_dihedral = ("
		13 12 10 6
	")
}

ee,wfn = optimize('scf', return_wfn=True)
oeprop( wfn, 'DIPOLE', 'QUADRUPOLE', 'MULLIKEN_CHARGES')
f=open( 'psi4out.xyz', 'w' )
f.write( "18  " )
f.write( str(ee) + "\n" )
f.write( MOL.save_string_xyz() )
f.close()
--------------------------------------------------------------------------

    Molecular point group: c1
  Charge       = 0
  Multiplicity = 1
  Basis Set: CC-PVTZ
  Basis Set:
  @DF-RHF Final Energy:  -457.50858917058275
    Total Energy =                       -457.5085891705822405
    Molecular point group: c1
  Basis Set: CC-PVTZ
  Basis Set:
  Basis Set: CC-PVTZ
  Basis Set:
  @DF-RHF Final Energy:  -457.50977989802522
    Total Energy =                       -457.5097798980247035
  Basis Set: CC-PVTZ
  Basis Set:
  Basis Set: CC-PVTZ
  Basis Set:
  @DF-RHF Final Energy:  -457.50883443780231
    Total Energy =                       -457.5088344378024203
  Basis Set: CC-PVTZ
  Basis Set:
  Basis Set: CC-PVTZ
  Basis Set:
  @DF-RHF Final Energy:  -457.50998771134590
    Total Energy =                       -457.5099877113457296
  Basis Set: CC-PVTZ
  Basis Set:
  Basis Set: CC-PVTZ
  Basis Set:
  @DF-RHF Final Energy:  -457.51002095520226
    Total Energy =                       -457.5100209552022079
  Basis Set: CC-PVTZ
  Basis Set:
  Charge       = 0
  Multiplicity = 1
  Basis Set: CC-PVTZ
  Basis Set:

    Orbital Energies (a.u.)
    -----------------------

    Doubly Occupied:

       1A    -20.601137     2A    -20.534604     3A    -11.371748
       4A    -11.281340     5A    -11.245054     6A    -11.243391
       7A    -11.242723     8A    -11.240133     9A    -11.236141
      10A    -11.235392    11A     -1.477144    12A     -1.368597
      13A     -1.170864    14A     -1.051929    15A     -1.029115
      16A     -0.980661    17A     -0.863246    18A     -0.838635
      19A     -0.781371    20A     -0.744955    21A     -0.687877
      22A     -0.681890    23A     -0.676633    24A     -0.634026
      25A     -0.630263    26A     -0.601283    27A     -0.587890
      28A     -0.564594    29A     -0.532239    30A     -0.520300
      31A     -0.509623    32A     -0.502447    33A     -0.464143
      34A     -0.449554    35A     -0.350156    36A     -0.346316

  @DF-RHF Final Energy:  -457.51002321466262

   => Energetics <=

    Nuclear Repulsion Energy =            494.0327837740853738
    One-Electron Energy =               -1602.5307880974582986
    Two-Electron Energy =                 650.9879811087105281
    DFT Exchange-Correlation Energy =       0.0000000000000000
    Empirical Dispersion Energy =           0.0000000000000000
    PCM Polarization Energy =               0.0000000000000000
    EFP Energy =                            0.0000000000000000
    Total Energy =                       -457.5100232146623966
    Molecular point group: c1
  Basis Set: CC-PVTZ
  Basis Set:

  -Total Gradient:
     Atom            X                  Y                   Z
    ------   -----------------  -----------------  -----------------
       1        0.000009236537     0.000010372932     0.000006273345
       2        0.000035100922    -0.000204428800    -0.000022641698
       3        0.000164292596     0.000135656046     0.000022231720
       4       -0.000200429756     0.000074082781    -0.000012877613
       5       -0.000000505818    -0.000011964865    -0.000002847613
       6       -0.000182546341     0.000024999118    -0.001145459984
       7        0.000014272191     0.000002436304    -0.000000715684
       8        0.000172659442     0.000114666442     0.000045923628
       9        0.000020623703     0.000004182499     0.000002779200
      10        0.000127898491    -0.000193888219     0.002067926083
      11       -0.000005454922     0.000008903174    -0.000009230132
      12        0.000070474187     0.000475656365    -0.002010150300
      13       -0.000212524530    -0.000340509089     0.001045883422
      14       -0.000111684382    -0.000140014824    -0.000016886705
      15        0.000179947352     0.000023518462     0.000037751299
      16       -0.000009111748     0.000028066064    -0.000038990944
      17       -0.000039133751    -0.000022379051    -0.000011641067
      18       -0.000033114175     0.000010644661     0.000042673040

  **** Optimization is complete! (in 6 steps) ****
    Final optimized geometry and variables:
    Molecular point group: c1

    Geometry (in Angstrom), charge = 0, multiplicity = 1:

    H           -3.957136340359    -0.857914498013    -0.058117628404
    C           -2.901071970101    -0.666074863189    -0.046831985305
    C           -2.437557962782     0.636107319013    -0.038648269266
    C           -2.007887062647    -1.722181333825    -0.042201222975
    H           -3.131050457383     1.454600594440    -0.046080380008
    C           -1.079353056275     0.885339146768    -0.020925312691
    H           -2.368092845350    -2.732625614902    -0.049956693555
    C           -0.650719878017    -1.474768100706    -0.031694878964
    H           -0.716948942538     1.892550956578    -0.011637448684
    C           -0.181862218361    -0.170581134889    -0.014408213464
    H            0.054571480641    -2.280859008263    -0.037015648282
    C            1.293504284893     0.045080373285    -0.020569255579
    O            1.632566602803     1.304614952806     0.178372459075
    O            2.085831170052    -0.822704544076    -0.176207340069
    C            3.013424847099     1.608921259244     0.182562341970
    H            3.518110583542     1.070819884042     0.970650299118
    H            3.081758148886     2.670988779254     0.352566699989
    H            3.462053619736     1.352103369719    -0.765217921686

  Mulliken Charges: (a.u.)
   Center  Symbol    Alpha    Beta     Spin     Total
       1     H     0.42032  0.42032  0.00000  0.15935
       2     C     3.07017  3.07017  0.00000 -0.14033
       3     C     3.07472  3.07472  0.00000 -0.14945
       4     C     3.07493  3.07493  0.00000 -0.14986
       5     H     0.42186  0.42186  0.00000  0.15629
       6     C     3.08279  3.08279  0.00000 -0.16559
       7     H     0.42042  0.42042  0.00000  0.15916
       8     C     3.07691  3.07691  0.00000 -0.15382
       9     H     0.41149  0.41149  0.00000  0.17703
      10     C     3.00724  3.00724  0.00000 -0.01448
      11     H     0.40708  0.40708  0.00000  0.18583
      12     C     2.78638  2.78638  0.00000  0.42724
      13     O     4.14818  4.14818  0.00000 -0.29637
      14     O     4.21055  4.21055  0.00000 -0.42111
      15     C     3.03661  3.03661  0.00000 -0.07323
      16     H     0.45223  0.45223  0.00000  0.09553
      17     H     0.44513  0.44513  0.00000  0.10975
      18     H     0.45297  0.45297  0.00000  0.09405

   Total alpha = 36.00000, Total beta = 36.00000, Total charge = -0.00000

*** Psi4 exiting successfully. Buy a developer a beer!
