  ==> Input File <==

--------------------------------------------------------------------------
set {
	reference rhf
	basis 6-31G*
}

set_num_threads( 1 )
memory 2 gb

molecule MOL {
0 1

H	 -2.499100	 -0.730091	 -0.745082
O	 -2.347518	 -0.290803	 0.079804
C	 -1.184022	 0.487508	 -0.006784
C	 0.062599	 -0.378592	 0.031606
H	 -1.176523	 1.099369	 -0.904519
H	 -1.187323	 1.153111	 0.844927
O	 1.171513	 0.459272	 -0.058250
H	 0.050699	 -1.089204	 -0.797170
H	 0.078739	 -0.954914	 0.954740
C	 0.864801	 1.813310	 -0.166194
H	 0.310780	 2.166187	 0.701658
H	 1.797941	 2.355565	 -0.230314
H	 0.275814	 2.017243	 -1.057989

	symmetry c1
}
set optking {
	frozen_dihedral = ("
		8 4 3 5,
		1 2 3 5,
		4 7 10 13
	")
}

ee = energy('scf')
oeprop('DIPOLE', 'QUADRUPOLE', 'MULLIKEN_CHARGES')
f=open( 'psi4out.xyz', 'w' )
f.write( "13  " )
f.write( str(ee) + "\n" )
f.write( MOL.save_string_xyz() )
f.close()
--------------------------------------------------------------------------

    Molecular point group: c1

    Geometry (in Angstrom), charge = 0, multiplicity = 1:

       Center              X                  Y                   Z               Mass
    ------------   -----------------  -----------------  -----------------  -----------------
           H         -2.180150066157    -1.148561662693    -0.710959319725     1.007825032070
           O         -2.028568066157    -0.709273662693     0.113926680275    15.994914619560
           C         -0.865072066157     0.069037337307     0.027338680275    12.000000000000
           C          0.381548933843    -0.797062662693     0.065728680275    12.000000000000
           H         -0.857573066157     0.680898337307    -0.870396319725     1.007825032070
           H         -0.868373066157     0.734640337307     0.879049680275     1.007825032070
           O          1.490462933843     0.040801337307    -0.024127319725    15.994914619560
           H          0.369648933843    -1.507674662693    -0.763047319725     1.007825032070
           H          0.397688933843    -1.373384662693     0.988862680275     1.007825032070
           C          1.183750933843     1.394839337307    -0.132071319725    12.000000000000
           H          0.629729933843     1.747716337307     0.735780680275     1.007825032070
           H          2.116890933843     1.937094337307    -0.196191319725     1.007825032070
           H          0.594763933843     1.598772337307    -1.023866319725     1.007825032070

  Charge       = 0
  Multiplicity = 1
  Basis Set: 6-31G*
  Basis Set:

    Orbital Energies (a.u.)
    -----------------------

    Doubly Occupied:

       1A    -20.562653     2A    -20.558851     3A    -11.273589
       4A    -11.271472     5A    -11.269410     6A     -1.391901
       7A     -1.367509     8A     -1.008949     9A     -0.957545
      10A     -0.819886    11A     -0.723728    12A     -0.689788
      13A     -0.661500    14A     -0.632208    15A     -0.585134
      16A     -0.565112    17A     -0.554614    18A     -0.521127
      19A     -0.497972    20A     -0.423709    21A     -0.407504

  @DF-RHF Final Energy:  -267.91839360927156

   => Energetics <=

    Nuclear Repulsion Energy =            197.4062091937762773
    One-Electron Energy =                -757.1608005802314665
    Two-Electron Energy =                 291.8361977771836564
    DFT Exchange-Correlation Energy =       0.0000000000000000
    Empirical Dispersion Energy =           0.0000000000000000
    PCM Polarization Energy =               0.0000000000000000
    EFP Energy =                            0.0000000000000000
    Total Energy =                       -267.9183936092715612

  Mulliken Charges: (a.u.)
   Center  Symbol    Alpha    Beta     Spin     Total
       1     H     0.28134  0.28134  0.00000  0.43733
       2     O     4.37651  4.37651  0.00000 -0.75301
       3     C     3.02134  3.02134  0.00000 -0.04268
       4     C     2.98289  2.98289  0.00000  0.03422
       5     H     0.42334  0.42334  0.00000  0.15332
       6     H     0.40776  0.40776  0.00000  0.18447
       7     O     4.31093  4.31093  0.00000 -0.62186
       8     H     0.43029  0.43029  0.00000  0.13942
       9     H     0.41605  0.41605  0.00000  0.16790
      10     C     3.09274  3.09274  0.00000 -0.18549
      11     H     0.42529  0.42529  0.00000  0.14943
      12     H     0.40481  0.40481  0.00000  0.19038
      13     H     0.42672  0.42672  0.00000  0.14657

   Total alpha = 21.00000, Total beta = 21.00000, Total charge =  0.00000
