                              Psi4 1.0.54 Driver

  ==> Input File <==

--------------------------------------------------------------------------
set {
	reference rhf
	basis cc-pvtz
}

set_num_threads( 4 )
memory 2 gb

molecule MOL {
0 1

H	 -3.401682	 -1.036167	 0.000000
O	 -3.113760	 -0.140926	 0.000000
C	 -1.775087	 -0.058754	 0.000000
C	 -1.013778	 -0.415399	 -1.106186
C	 -1.161962	 0.399745	 1.154140
H	 -1.496700	 -0.770240	 -1.997983
C	 0.355922	 -0.311769	 -1.052564
H	 -1.767508	 0.669525	 1.995895
C	 0.210641	 0.497654	 1.191585
H	 0.954507	 -0.583763	 -1.899220
C	 0.985270	 0.145959	 0.096730
H	 0.687366	 0.853240	 2.086464
C	 2.454277	 0.259298	 0.160261
O	 3.196437	 -0.016997	 -0.722357
H	 2.844326	 0.631003	 1.113937

	symmetry c1
}
set optking {
	frozen_dihedral = ("
		5 3 2 1
	")
}

ee,wfn = optimize('scf', return_wfn=True)
oeprop( wfn, 'DIPOLE', 'QUADRUPOLE', 'MULLIKEN_CHARGES')
f=open( 'psi4out.xyz', 'w' )
f.write( "15  " )
f.write( str(ee) + "\n" )
f.write( MOL.save_string_xyz() )
f.close()
--------------------------------------------------------------------------

    Molecular point group: c1
  Charge       = 0
  Multiplicity = 1
  Basis Set: CC-PVTZ
  Basis Set:
  @DF-RHF Final Energy:  -418.43675772633173
    Total Energy =                       -418.4367577263315070
    Molecular point group: c1
  Basis Set: CC-PVTZ
  Basis Set:
  Basis Set: CC-PVTZ
  Basis Set:
  @DF-RHF Final Energy:  -418.43732357040568
    Total Energy =                       -418.4373235704058516
  Basis Set: CC-PVTZ
  Basis Set:
  Basis Set: CC-PVTZ
  Basis Set:
  @DF-RHF Final Energy:  -418.43729643608532
    Total Energy =                       -418.4372964360850347
  Basis Set: CC-PVTZ
  Basis Set:
  Basis Set: CC-PVTZ
  Basis Set:
  @DF-RHF Final Energy:  -418.43713576993275
    Total Energy =                       -418.4371357699327518
  Basis Set: CC-PVTZ
  Basis Set:
  Basis Set: CC-PVTZ
  Basis Set:
  @DF-RHF Final Energy:  -418.43738429242126
    Total Energy =                       -418.4373842924212568
  Basis Set: CC-PVTZ
  Basis Set:
  Charge       = 0
  Multiplicity = 1
  Basis Set: CC-PVTZ
  Basis Set:

    Orbital Energies (a.u.)
    -----------------------

    Doubly Occupied:

       1A    -20.589027     2A    -20.550427     3A    -11.326168
       4A    -11.313350     5A    -11.257925     6A    -11.252216
       7A    -11.242913     8A    -11.241286     9A    -11.240353
      10A     -1.418534    11A     -1.406548    12A     -1.175713
      13A     -1.045149    14A     -1.041058    15A     -0.890379
      16A     -0.863176    17A     -0.799387    18A     -0.756531
      19A     -0.712975    20A     -0.674169    21A     -0.652124
      22A     -0.635834    23A     -0.622577    24A     -0.610012
      25A     -0.565324    26A     -0.558661    27A     -0.542903
      28A     -0.503160    29A     -0.488201    30A     -0.425073
      31A     -0.360215    32A     -0.344703

  @DF-RHF Final Energy:  -418.43738545444387

   => Energetics <=

    Nuclear Repulsion Energy =            401.7564432435195840
    One-Electron Energy =               -1366.1755132711255101
    Two-Electron Energy =                 545.9816845731622834
    DFT Exchange-Correlation Energy =       0.0000000000000000
    Empirical Dispersion Energy =           0.0000000000000000
    PCM Polarization Energy =               0.0000000000000000
    EFP Energy =                            0.0000000000000000
    Total Energy =                       -418.4373854544436426
    Molecular point group: c1
  Basis Set: CC-PVTZ
  Basis Set:

  -Total Gradient:
     Atom            X                  Y                   Z
    ------   -----------------  -----------------  -----------------
       1       -0.000092686992     0.000030761424     0.002115448140
       2        0.000043050174    -0.000790707985    -0.002351792308
       3        0.000002101457     0.002170311632    -0.000544221215
       4       -0.000191716861    -0.000028873391     0.000102894786
       5        0.000195052805    -0.001385613787     0.000646733676
       6        0.000005784761     0.000008539442    -0.000003374436
       7        0.000154809383     0.000054655160     0.000108355092
       8        0.000001151023    -0.000001669386    -0.000021055014
       9       -0.000117669004    -0.000050276666     0.000109343171
      10       -0.000013087272     0.000001143539    -0.000002775692
      11        0.000023596796    -0.000042320035    -0.000167370465
      12        0.000019782373     0.000012020441    -0.000011103291
      13       -0.000037901248     0.000071716083     0.000055366875
      14        0.000011647660    -0.000031272661    -0.000028405764
      15       -0.000003915048    -0.000018413813    -0.000008043557

  **** Optimization is complete! (in 6 steps) ****
    Final optimized geometry and variables:
    Molecular point group: c1

    Geometry (in Angstrom), charge = 0, multiplicity = 1:

    H           -3.423304087536    -1.030237643781     0.006817788097
    O           -3.127109700106    -0.136551893223    -0.000011305939
    C           -1.768901490904    -0.075129046728     0.046071761010
    C           -1.012419955705    -0.448314076598    -1.056303696043
    C           -1.157160351786     0.388830539424     1.192601781398
    H           -1.509720296154    -0.793345169852    -1.942007416529
    C            0.358166931479    -0.357787102480    -1.004251039094
    H           -1.761434010077     0.675142786883     2.030165744009
    C            0.220435849090     0.484552165863     1.232325602599
    H            0.957399780910    -0.641177546432    -1.846593428594
    C            0.986570217212     0.111434315123     0.142942979772
    H            0.700313594267     0.848602010233     2.121989897793
    C            2.460219305049     0.216720899915     0.208261831782
    O            3.199666791910    -0.082516069794    -0.667551656581
    H            2.850382831157     0.603934265020     1.155509272344

  Mulliken Charges: (a.u.)
   Center  Symbol    Alpha    Beta     Spin     Total
       1     H     0.38520  0.38520  0.00000  0.22959
       2     O     4.18510  4.18510  0.00000 -0.37020
       3     C     2.86371  2.86371  0.00000  0.27257
       4     C     3.11501  3.11501  0.00000 -0.23002
       5     C     3.10678  3.10678  0.00000 -0.21356
       6     H     0.41539  0.41539  0.00000  0.16922
       7     C     3.07075  3.07075  0.00000 -0.14149
       8     H     0.41348  0.41348  0.00000  0.17305
       9     C     3.07612  3.07612  0.00000 -0.15224
      10     H     0.40684  0.40684  0.00000  0.18632
      11     C     2.99615  2.99615  0.00000  0.00770
      12     H     0.42076  0.42076  0.00000  0.15848
      13     C     2.91015  2.91015  0.00000  0.17971
      14     O     4.17536  4.17536  0.00000 -0.35073
      15     H     0.45919  0.45919  0.00000  0.08161

   Total alpha = 32.00000, Total beta = 32.00000, Total charge = -0.00000

*** Psi4 exiting successfully. Buy a developer a beer!
