  ==> Input File <==

--------------------------------------------------------------------------
set {
	reference rhf
	basis cc-pvtz
}

set_num_threads( 4 )
memory 2 gb

molecule MOL {
0 1

H	 0.951709	 1.564153	 -0.280407
O	 0.057669	 1.301365	 -0.158528
C	 0.004145	 -0.005141	 0.363049
C	 1.199168	 -0.827145	 -0.096690
C	 -1.316386	 -0.602081	 -0.083515
H	 0.012026	 0.043363	 1.450619
H	 1.216685	 -0.896776	 -1.178167
H	 2.129940	 -0.372354	 0.228035
H	 1.160783	 -1.829622	 0.314294
H	 -1.357882	 -0.655920	 -1.165207
H	 -2.140147	 0.011735	 0.257253
H	 -1.440790	 -1.601175	 0.317669

	symmetry c1
}
set optking {
	frozen_dihedral = ("
		1 2 3 4
	")
}

ee = optimize('scf')
oeprop('DIPOLE', 'QUADRUPOLE', 'MULLIKEN_CHARGES')
f=open( 'psi4out.xyz', 'w' )
f.write( "12  " )
f.write( str(ee) + "\n" )
f.write( MOL.save_string_xyz() )
f.close()
--------------------------------------------------------------------------

    Molecular point group: c1
  Charge       = 0
  Multiplicity = 1
  Basis Set: CC-PVTZ
  Basis Set:
  @DF-RHF Final Energy:  -193.19504499054207
    Total Energy =                       -193.1950449905419873
    Molecular point group: c1
  Basis Set: CC-PVTZ
  Basis Set:
  Basis Set: CC-PVTZ
  Basis Set:
  @DF-RHF Final Energy:  -193.19510623373094
    Total Energy =                       -193.1951062337308826
  Basis Set: CC-PVTZ
  Basis Set:
  Basis Set: CC-PVTZ
  Basis Set:
  @DF-RHF Final Energy:  -193.19513153594619
    Total Energy =                       -193.1951315359461887
  Basis Set: CC-PVTZ
  Basis Set:
  Charge       = 0
  Multiplicity = 1
  Basis Set: CC-PVTZ
  Basis Set:

    Orbital Energies (a.u.)
    -----------------------

    Doubly Occupied:

       1A    -20.543200     2A    -11.273947     3A    -11.215801
       4A    -11.205103     5A     -1.363907     6A     -1.043952
       7A     -0.943388     8A     -0.807963     9A     -0.688819
      10A     -0.639969    11A     -0.608256    12A     -0.548050
      13A     -0.538367    14A     -0.526551    15A     -0.514499
      16A     -0.470450    17A     -0.431306

  @DF-RHF Final Energy:  -193.19513175282572

   => Energetics <=

    Nuclear Repulsion Energy =            135.7496814187509813
    One-Electron Energy =                -531.1625700780509760
    Two-Electron Energy =                 202.2177569064741647
    DFT Exchange-Correlation Energy =       0.0000000000000000
    Empirical Dispersion Energy =           0.0000000000000000
    PCM Polarization Energy =               0.0000000000000000
    EFP Energy =                            0.0000000000000000
    Total Energy =                       -193.1951317528258301
    Molecular point group: c1
  Basis Set: CC-PVTZ
  Basis Set:

  -Total Gradient:
     Atom            X                  Y                   Z
    ------   -----------------  -----------------  -----------------
       1       -0.000014903509    -0.000657003563    -0.001738820697
       2        0.000274235579     0.000959506948     0.002500091657
       3       -0.000850228676    -0.000625395758    -0.001703045186
       4        0.000602003005     0.000342356302     0.000954282358
       5       -0.000015895822    -0.000013266764    -0.000004367876
       6        0.000011602733    -0.000020158299    -0.000007576429
       7       -0.000016390738     0.000002642622     0.000008002415
       8        0.000014085022     0.000000901889    -0.000007480189
       9       -0.000004175162     0.000008101448     0.000000370120
      10        0.000000933067     0.000002032721     0.000000487790
      11       -0.000001304968    -0.000002426878    -0.000003677034
      12        0.000000039469     0.000002709334     0.000001733070

  **** Optimization is complete! (in 4 steps) ****
    Final optimized geometry and variables:
    Molecular point group: c1

    Geometry (in Angstrom), charge = 0, multiplicity = 1:

    H            0.948597167602     1.580919337643    -0.254576822573
    O            0.056803231184     1.309576594094    -0.141121261007
    C            0.002322493341    -0.005342479968     0.361637335805
    C            1.198973723095    -0.824009175134    -0.096863692587
    C           -1.320526331157    -0.603655092419    -0.076951506822
    H            0.017321823193     0.039107723006     1.449029746526
    H            1.223719794143    -0.893672905556    -1.179051220543
    H            2.127734513546    -0.371961252208     0.238242975147
    H            1.157410176680    -1.827478199318     0.309654404423
    H           -1.359543871511    -0.686621999068    -1.156973589652
    H           -2.139381692725     0.027579034181     0.243743637074
    H           -1.457713860996    -1.589236777971     0.353261689893

  Mulliken Charges: (a.u.)
   Center  Symbol    Alpha    Beta     Spin     Total
       1     H     0.39340  0.39340  0.00000  0.21321
       2     O     4.20755  4.20755  0.00000 -0.41511
       3     C     2.91930  2.91930  0.00000  0.16140
       4     C     3.15284  3.15284  0.00000 -0.30568
       5     C     3.13965  3.13965  0.00000 -0.27930
       6     H     0.46635  0.46635  0.00000  0.06729
       7     H     0.45070  0.45070  0.00000  0.09860
       8     H     0.45612  0.45612  0.00000  0.08776
       9     H     0.45317  0.45317  0.00000  0.09365
      10     H     0.45546  0.45546  0.00000  0.08908
      11     H     0.44600  0.44600  0.00000  0.10801
      12     H     0.45945  0.45945  0.00000  0.08110

   Total alpha = 17.00000, Total beta = 17.00000, Total charge =  0.00000
