  ==> Input File <==

--------------------------------------------------------------------------
set {
	reference rhf
	basis 6-31G*
}

set_num_threads( 4 )
memory 2 gb

molecule MOL {
0 1

H	 -0.525791	 -1.610206	 -0.297752
N	 -0.626943	 -0.667432	 -0.000092
C	 -1.937071	 -0.217586	 0.412122
C	 0.469286	 0.129090	 0.000148
H	 -2.652453	 -0.310617	 -0.398174
H	 -1.863209	 0.819454	 0.696411
H	 -2.295861	 -0.790603	 1.260623
C	 1.788933	 -0.616240	 -0.000037
O	 0.411098	 1.327768	 -0.000049
H	 1.872803	 -1.245775	 -0.880381
H	 2.595421	 0.101576	 0.003713
H	 1.870096	 -1.252171	 0.875943

	symmetry c1
}
set optking {
	frozen_dihedral = ("
		3 2 4 9
	")
}

ee = optimize('scf')
oeprop('DIPOLE', 'QUADRUPOLE', 'MULLIKEN_CHARGES')
f=open( 'psi4out.xyz', 'w' )
f.write( "12  " )
f.write( str(ee) + "\n" )
f.write( MOL.save_string_xyz() )
f.close()
--------------------------------------------------------------------------

    Molecular point group: c1
  Charge       = 0
  Multiplicity = 1
  Basis Set: 6-31G*
  Basis Set:
  @DF-RHF Final Energy:  -247.00107399361698
    Total Energy =                       -247.0010739936169557
    Molecular point group: c1
  Basis Set: 6-31G*
  Basis Set:
  Basis Set: 6-31G*
  Basis Set:
  @DF-RHF Final Energy:  -247.00236964129013
    Total Energy =                       -247.0023696412900449
  Basis Set: 6-31G*
  Basis Set:
  Basis Set: 6-31G*
  Basis Set:
  @DF-RHF Final Energy:  -247.00395580882832
    Total Energy =                       -247.0039558088284934
  Basis Set: 6-31G*
  Basis Set:
  Basis Set: 6-31G*
  Basis Set:
  @DF-RHF Final Energy:  -247.00415463562302
    Total Energy =                       -247.0041546356229674
  Basis Set: 6-31G*
  Basis Set:
  @DF-RHF Final Energy:  -247.00425159349902
    Total Energy =                       -247.0042515934988501
  @DF-RHF Final Energy:  -247.00449218731148
    Total Energy =                       -247.0044921873114276
  Basis Set: 6-31G*
  Basis Set:
  @DF-RHF Final Energy:  -247.00468190469624
    Total Energy =                       -247.0046819046963265
  Basis Set: 6-31G*
  Basis Set:
  Basis Set: 6-31G*
  Basis Set:
  @DF-RHF Final Energy:  -247.00478742602729
    Total Energy =                       -247.0047874260273488
  Basis Set: 6-31G*
  Basis Set:
  Basis Set: 6-31G*
  Basis Set:
  @DF-RHF Final Energy:  -247.00479151886864
    Total Energy =                       -247.0047915188688421
  Basis Set: 6-31G*
  Basis Set:
  Charge       = 0
  Multiplicity = 1
  Basis Set: 6-31G*
  Basis Set:

    Orbital Energies (a.u.)
    -----------------------

    Doubly Occupied:

       1A    -20.520234     2A    -15.581024     3A    -11.343425
       4A    -11.254667     5A    -11.231108     6A     -1.387771
       7A     -1.228377     8A     -1.015906     9A     -0.931051
      10A     -0.782902    11A     -0.689578    12A     -0.648712
      13A     -0.632930    14A     -0.586647    15A     -0.581230
      16A     -0.554323    17A     -0.545865    18A     -0.505700
      19A     -0.416619    20A     -0.388664

  @DF-RHF Final Energy:  -247.00479247704570

   => Energetics <=

    Nuclear Repulsion Energy =            181.4153302049839169
    One-Electron Energy =                -695.1867785334777636
    Two-Electron Energy =                 266.7666558514480357
    DFT Exchange-Correlation Energy =       0.0000000000000000
    Empirical Dispersion Energy =           0.0000000000000000
    PCM Polarization Energy =               0.0000000000000000
    EFP Energy =                            0.0000000000000000
    Total Energy =                       -247.0047924770458394
    Molecular point group: c1
  Basis Set: 6-31G*
  Basis Set:

  -Total Gradient:
     Atom            X                  Y                   Z
    ------   -----------------  -----------------  -----------------
       1       -0.000036803169     0.000009226864     0.000005363422
       2       -0.000470842285     0.003945734921    -0.006121424046
       3        0.000430016609    -0.002155463088     0.002764114972
       4       -0.000285183928    -0.003322849208     0.007338591066
       5       -0.000032562401     0.000001124249    -0.000009862031
       6        0.000049199066    -0.000037238055    -0.000035714427
       7       -0.000011064996     0.000013776712     0.000008943274
       8       -0.000003143316     0.000023621235     0.000058805744
       9        0.000390031198     0.001530674746    -0.003975356452
      10       -0.000021243917     0.000005404655    -0.000012637753
      11       -0.000004915174     0.000000641720    -0.000005810901
      12       -0.000003487689    -0.000014654755    -0.000015012867

  **** Optimization is complete! (in 10 steps) ****
    Final optimized geometry and variables:
    Molecular point group: c1

    Geometry (in Angstrom), charge = 0, multiplicity = 1:

    H           -0.536463967427    -1.533743938130    -0.552242956883
    N           -0.652938788985    -0.563440636790    -0.363856392056
    C           -1.953264335329    -0.162691152216     0.135009028390
    C            0.466988705564     0.122741896344    -0.003333982532
    H           -2.719207977638    -0.694682046621    -0.414361595888
    H           -2.082978017701     0.896835545177    -0.021960813508
    H           -2.068935827391    -0.370832895261     1.194759492104
    C            1.771316666985    -0.615116812587    -0.221230012181
    O            0.428630697139     1.242504178045     0.422117446772
    H            1.755137654956    -1.204171679665    -1.131631218612
    H            2.577665080440     0.102138956515    -0.265707478253
    H            1.950328281474    -1.286585894037     0.613698168072

  Mulliken Charges: (a.u.)
   Center  Symbol    Alpha    Beta     Spin     Total
       1     H     0.31400  0.31400  0.00000  0.37200
       2     N     3.88248  3.88248  0.00000 -0.76497
       3     C     3.14322  3.14322  0.00000 -0.28644
       4     C     2.63446  2.63446  0.00000  0.73108
       5     H     0.41538  0.41538  0.00000  0.16923
       6     H     0.39352  0.39352  0.00000  0.21296
       7     H     0.41650  0.41650  0.00000  0.16700
       8     C     3.29563  3.29563  0.00000 -0.59126
       9     O     4.29769  4.29769  0.00000 -0.59538
      10     H     0.41028  0.41028  0.00000  0.17944
      11     H     0.39235  0.39235  0.00000  0.21530
      12     H     0.40449  0.40449  0.00000  0.19102

   Total alpha = 20.00000, Total beta = 20.00000, Total charge = -0.00000
