  ==> Input File <==

--------------------------------------------------------------------------
set {
	reference rhf
	basis 6-31G*
}

set_num_threads( 1 )
memory 2 gb

molecule MOL {
0 1

H	 -3.161837	 0.500524	 -0.000234
C	 -2.367097	 -0.232926	 -0.000000
O	 -1.158440	 0.455814	 -0.000122
H	 -2.468853	 -0.861886	 -0.882833
H	 -2.468942	 -0.861421	 0.883154
C	 -0.029776	 -0.365156	 0.000148
C	 1.212217	 0.508981	 0.000007
H	 -0.036772	 -1.013236	 -0.877259
H	 -0.036869	 -1.012778	 0.877897
C	 0.942689	 1.907226	 -0.554202
H	 1.587114	 0.574548	 1.016774
H	 1.980972	 0.014829	 -0.586106
H	 0.192607	 2.428903	 0.033720
H	 1.845368	 2.508800	 -0.543025
H	 0.588534	 1.865208	 -1.580464

	symmetry c1
}
set optking {
	frozen_dihedral = ("
		6 3 2 4,
		8 6 3 2
	")
}

ee = energy('scf')
oeprop('DIPOLE', 'QUADRUPOLE', 'MULLIKEN_CHARGES')
f=open( 'psi4out.xyz', 'w' )
f.write( "15  " )
f.write( str(ee) + "\n" )
f.write( MOL.save_string_xyz() )
f.close()
--------------------------------------------------------------------------

    Molecular point group: c1

    Geometry (in Angstrom), charge = 0, multiplicity = 1:

       Center              X                  Y                   Z               Mass
    ------------   -----------------  -----------------  -----------------  -----------------
           H         -2.845569777861     0.051182865607     0.112112599901     1.007825032070
           C         -2.050829777861    -0.682267134393     0.112346599901    12.000000000000
           O         -0.842172777861     0.006472865607     0.112224599901    15.994914619560
           H         -2.152585777861    -1.311227134393    -0.770486400099     1.007825032070
           H         -2.152674777861    -1.310762134393     0.995500599901     1.007825032070
           C          0.286491222139    -0.814497134393     0.112494599901    12.000000000000
           C          1.528484222139     0.059639865607     0.112353599901    12.000000000000
           H          0.279495222139    -1.462577134393    -0.764912400099     1.007825032070
           H          0.279398222139    -1.462119134393     0.990243599901     1.007825032070
           C          1.258956222139     1.457884865607    -0.441855400099    12.000000000000
           H          1.903381222139     0.125206865607     1.129120599901     1.007825032070
           H          2.297239222139    -0.434512134393    -0.473759400099     1.007825032070
           H          0.508874222139     1.979561865607     0.146066599901     1.007825032070
           H          2.161635222139     2.059458865607    -0.430678400099     1.007825032070
           H          0.904801222139     1.415866865607    -1.468117400099     1.007825032070

  Charge       = 0
  Multiplicity = 1
  Basis Set: 6-31G*
  Basis Set:

    Orbital Energies (a.u.)
    -----------------------

    Doubly Occupied:

       1A    -20.554169     2A    -11.265794     3A    -11.264606
       4A    -11.213014     5A    -11.198587     6A     -1.380208
       7A     -1.052152     8A     -0.946027     9A     -0.891108
      10A     -0.791721    11A     -0.673710    12A     -0.660295
      13A     -0.635000    14A     -0.600383    15A     -0.547710
      16A     -0.540424    17A     -0.505837    18A     -0.480150
      19A     -0.473228    20A     -0.460076    21A     -0.410233

  @DF-RHF Final Energy:  -232.13262187022525

   => Energetics <=

    Nuclear Repulsion Energy =            194.8701296372677803
    One-Electron Energy =                -700.9168058232655767
    Two-Electron Energy =                 273.9140543157736829
    DFT Exchange-Correlation Energy =       0.0000000000000000
    Empirical Dispersion Energy =           0.0000000000000000
    PCM Polarization Energy =               0.0000000000000000
    EFP Energy =                            0.0000000000000000
    Total Energy =                       -232.1326218702241135

  Mulliken Charges: (a.u.)
   Center  Symbol    Alpha    Beta     Spin     Total
       1     H     0.41248  0.41248  0.00000  0.17503
       2     C     3.07840  3.07840  0.00000 -0.15681
       3     O     4.30489  4.30489  0.00000 -0.60977
       4     H     0.43013  0.43013  0.00000  0.13974
       5     H     0.43041  0.43041  0.00000  0.13918
       6     C     2.98487  2.98487  0.00000  0.03025
       7     C     3.17080  3.17080  0.00000 -0.34161
       8     H     0.43209  0.43209  0.00000  0.13582
       9     H     0.43000  0.43000  0.00000  0.13999
      10     C     3.23244  3.23244  0.00000 -0.46487
      11     H     0.41891  0.41891  0.00000  0.16218
      12     H     0.42057  0.42057  0.00000  0.15886
      13     H     0.40752  0.40752  0.00000  0.18497
      14     H     0.42521  0.42521  0.00000  0.14957
      15     H     0.42128  0.42128  0.00000  0.15745

   Total alpha = 21.00000, Total beta = 21.00000, Total charge =  0.00000
