  ==> Input File <==

--------------------------------------------------------------------------
set {
	reference rhf
	basis cc-pvtz
}

set_num_threads( 4 )
memory 2 gb

molecule MOL {
0 1

O	 0.661248	 -1.067110	 2.177162
C	 0.060362	 -1.124928	 1.159580
C	 -1.335939	 -1.658303	 1.012907
O	 0.550743	 -0.719877	 0.000412
H	 -1.977568	 -0.888292	 0.604495
H	 -1.703604	 -1.977483	 1.974406
H	 -1.336052	 -2.488651	 0.318675
C	 1.863204	 -0.194033	 0.000410
H	 2.031502	 0.409177	 -0.879273
H	 2.524488	 -1.045142	 0.000793
H	 2.031291	 0.409823	 0.879686

	symmetry c1
}
set optking {
	frozen_dihedral = ("
		2 4 8 9
	")
}

ee = optimize('scf')
oeprop('DIPOLE', 'QUADRUPOLE', 'MULLIKEN_CHARGES')
f=open( 'psi4out.xyz', 'w' )
f.write( "11  " )
f.write( str(ee) + "\n" )
f.write( MOL.save_string_xyz() )
f.close()
--------------------------------------------------------------------------

    Molecular point group: c1
  Charge       = 0
  Multiplicity = 1
  Basis Set: CC-PVTZ
  Basis Set:
  @DF-RHF Final Energy:  -266.93726183937758
    Total Energy =                       -266.9372618393775269
    Molecular point group: c1
  Basis Set: CC-PVTZ
  Basis Set:
  Basis Set: CC-PVTZ
  Basis Set:
  @DF-RHF Final Energy:  -266.93836579424931
    Total Energy =                       -266.9383657942494210
  Basis Set: CC-PVTZ
  Basis Set:
  Basis Set: CC-PVTZ
  Basis Set:
  @DF-RHF Final Energy:  -266.93791601469081
    Total Energy =                       -266.9379160146905861
  Basis Set: CC-PVTZ
  Basis Set:
  Basis Set: CC-PVTZ
  Basis Set:
  @DF-RHF Final Energy:  -266.93865296213596
    Total Energy =                       -266.9386529621357909
  Basis Set: CC-PVTZ
  Basis Set:
  Basis Set: CC-PVTZ
  Basis Set:
  @DF-RHF Final Energy:  -266.93865694117585
    Total Energy =                       -266.9386569411758501
  Basis Set: CC-PVTZ
  Basis Set:
  Charge       = 0
  Multiplicity = 1
  Basis Set: CC-PVTZ
  Basis Set:

    Orbital Energies (a.u.)
    -----------------------

    Doubly Occupied:

       1A    -20.598499     2A    -20.535082     3A    -11.369168
       4A    -11.279643     5A    -11.233052     6A     -1.473539
       7A     -1.367831     8A     -1.037000     9A     -0.953870
      10A     -0.779970    11A     -0.698387    12A     -0.684098
      13A     -0.681092    14A     -0.597034    15A     -0.592795
      16A     -0.561737    17A     -0.528513    18A     -0.523304
      19A     -0.461715    20A     -0.445806

  @DF-RHF Final Energy:  -266.93865721037554

   => Energetics <=

    Nuclear Repulsion Energy =            183.5714053296454153
    One-Electron Energy =                -728.2158594430090943
    Two-Electron Energy =                 277.7057969029881974
    DFT Exchange-Correlation Energy =       0.0000000000000000
    Empirical Dispersion Energy =           0.0000000000000000
    PCM Polarization Energy =               0.0000000000000000
    EFP Energy =                            0.0000000000000000
    Total Energy =                       -266.9386572103755384
    Molecular point group: c1
  Basis Set: CC-PVTZ
  Basis Set:

  -Total Gradient:
     Atom            X                  Y                   Z
    ------   -----------------  -----------------  -----------------
       1       -0.000018010339    -0.000014871744     0.000013224539
       2       -0.000499813952     0.001197110415     0.000217014200
       3       -0.000001372328     0.000018014679     0.000008601047
       4        0.000586772176    -0.001495054297    -0.000140626907
       5        0.000002470128    -0.000002978782    -0.000003788739
       6       -0.000000596071    -0.000002867760     0.000001483966
       7        0.000008269797    -0.000003928292     0.000004001025
       8        0.000399641935    -0.000896545374    -0.000823921079
       9       -0.000469871349     0.001213711579     0.000716990717
      10       -0.000009868043     0.000007938618     0.000010417544
      11        0.000002378043    -0.000020529043    -0.000003396310

  **** Optimization is complete! (in 6 steps) ****
    Final optimized geometry and variables:
    Molecular point group: c1

    Geometry (in Angstrom), charge = 0, multiplicity = 1:

    O            0.276603540068    -0.145513535232     1.320890694322
    C           -0.318470783016    -0.183421382210     0.299103252822
    C           -1.723048937410    -0.691493246936     0.141049295125
    O            0.182372623542     0.220010828156    -0.856597716472
    H           -2.349521292281     0.092634435584    -0.263932473940
    H           -2.100720027522    -1.013015731211     1.097885147653
    H           -1.733266346789    -1.515717179174    -0.560372451306
    C            1.491500854585     0.755134525237    -0.861518547369
    H            1.577444041186     1.333411112999    -1.767356323303
    H            2.221729681090    -0.041664975781    -0.854617455313
    H            1.649029565394     1.388227414476    -0.003140163143

  Mulliken Charges: (a.u.)
   Center  Symbol    Alpha    Beta     Spin     Total
       1     O     4.19688  4.19688  0.00000 -0.39377
       2     C     2.80068  2.80068  0.00000  0.39864
       3     C     3.13861  3.13861  0.00000 -0.27722
       4     O     4.14839  4.14839  0.00000 -0.29678
       5     H     0.44572  0.44572  0.00000  0.10856
       6     H     0.43789  0.43789  0.00000  0.12421
       7     H     0.44521  0.44521  0.00000  0.10959
       8     C     3.03356  3.03356  0.00000 -0.06711
       9     H     0.44675  0.44675  0.00000  0.10650
      10     H     0.45621  0.45621  0.00000  0.08758
      11     H     0.45010  0.45010  0.00000  0.09980

   Total alpha = 20.00000, Total beta = 20.00000, Total charge =  0.00000
