                              Psi4 1.0.54 Driver

  ==> Input File <==

--------------------------------------------------------------------------
set {
	reference rhf
	basis cc-pvtz
}

set_num_threads( 4 )
memory 2 gb

molecule MOL {
0 1

O	 3.219313	 0.959291	 -0.614106
C	 2.698710	 0.058177	 -0.050237
C	 1.246364	 -0.005813	 0.348416
O	 3.344101	 -1.038700	 0.312317
C	 0.453207	 1.232821	 -0.049003
H	 0.839270	 -0.907818	 -0.092281
H	 1.216683	 -0.160521	 1.422434
C	 -0.998367	 1.217982	 0.432195
H	 0.481498	 1.345443	 -1.127236
H	 0.951413	 2.105557	 0.354893
C	 -1.882951	 0.151251	 -0.211235
H	 -1.429490	 2.193659	 0.228843
H	 -1.019755	 1.099323	 1.513279
C	 -3.342450	 0.243269	 0.226009
H	 -1.826223	 0.246578	 -1.293162
H	 -1.508033	 -0.839650	 0.027695
C	 -4.234517	 -0.821434	 -0.405970
H	 -3.730149	 1.228245	 -0.022691
H	 -3.398860	 0.159952	 1.308941
C	 -5.717210	 -0.609074	 -0.119089
H	 -4.073987	 -0.832012	 -1.480604
H	 -3.935160	 -1.801480	 -0.044373
H	 -6.321582	 -1.381176	 -0.581234
H	 -6.056267	 0.348460	 -0.500241
H	 -5.916106	 -0.627669	 0.947355
C	 4.720529	 -1.114346	 0.001449
H	 4.874321	 -1.055557	 -1.065852
H	 5.057824	 -2.067950	 0.373977
H	 5.264321	 -0.313596	 0.480350

	symmetry c1
}
set optking {
	frozen_dihedral = ("
		21 17 14 11
	")
}

ee,wfn = optimize('scf', return_wfn=True)
oeprop( wfn, 'DIPOLE', 'QUADRUPOLE', 'MULLIKEN_CHARGES')
f=open( 'psi4out.xyz', 'w' )
f.write( "29  " )
f.write( str(ee) + "\n" )
f.write( MOL.save_string_xyz() )
f.close()
--------------------------------------------------------------------------

    Molecular point group: c1
  Charge       = 0
  Multiplicity = 1
  Basis Set: CC-PVTZ
  Basis Set:
  @DF-RHF Final Energy:  -501.22472327859168
    Total Energy =                       -501.2247232785921369
    Molecular point group: c1
  Basis Set: CC-PVTZ
  Basis Set:
  Basis Set: CC-PVTZ
  Basis Set:
  @DF-RHF Final Energy:  -501.22474426079486
    Total Energy =                       -501.2247442607954326
  Basis Set: CC-PVTZ
  Basis Set:
  Basis Set: CC-PVTZ
  Basis Set:
  @DF-RHF Final Energy:  -501.22474493663992
    Total Energy =                       -501.2247449366392402
  Basis Set: CC-PVTZ
  Basis Set:
  Basis Set: CC-PVTZ
  Basis Set:
  @DF-RHF Final Energy:  -501.22475073346141
    Total Energy =                       -501.2247507334615193
  Basis Set: CC-PVTZ
  Basis Set:
  Basis Set: CC-PVTZ
  Basis Set:
  @DF-RHF Final Energy:  -501.22475515630083
    Total Energy =                       -501.2247551563009438
  Basis Set: CC-PVTZ
  Basis Set:
  Charge       = 0
  Multiplicity = 1
  Basis Set: CC-PVTZ
  Basis Set:

    Orbital Energies (a.u.)
    -----------------------

    Doubly Occupied:

       1A    -20.595990     2A    -20.533836     3A    -11.364253
       4A    -11.278247     5A    -11.232939     6A    -11.217058
       7A    -11.215535     8A    -11.213915     9A    -11.213742
      10A    -11.212294    11A    -11.207238    12A     -1.471883
      13A     -1.365469    14A     -1.099370    15A     -1.067973
      16A     -1.020599    17A     -0.978184    18A     -0.929258
      19A     -0.862241    20A     -0.799827    21A     -0.791086
      22A     -0.765641    23A     -0.702951    24A     -0.685446
      25A     -0.676092    26A     -0.651187    27A     -0.630071
      28A     -0.605592    29A     -0.595866    30A     -0.582061
      31A     -0.568250    32A     -0.550106    33A     -0.532582
      34A     -0.531519    35A     -0.517337    36A     -0.513748
      37A     -0.496268    38A     -0.478470    39A     -0.470297
      40A     -0.463238    41A     -0.460266    42A     -0.457898
      43A     -0.443836    44A     -0.437514

  @DF-RHF Final Energy:  -501.22475492675619

   => Energetics <=

    Nuclear Repulsion Energy =            611.1809489929347592
    One-Electron Energy =               -1893.8370498849835712
    Two-Electron Energy =                 781.4313459652921665
    DFT Exchange-Correlation Energy =       0.0000000000000000
    Empirical Dispersion Energy =           0.0000000000000000
    PCM Polarization Energy =               0.0000000000000000
    EFP Energy =                            0.0000000000000000
    Total Energy =                       -501.2247549267567592
    Molecular point group: c1
  Basis Set: CC-PVTZ
  Basis Set:

  -Total Gradient:
     Atom            X                  Y                   Z
    ------   -----------------  -----------------  -----------------
       1       -0.000007359109    -0.000008668438    -0.000025826091
       2        0.000023286831     0.000028563829     0.000066225942
       3       -0.000018287693    -0.000013695600    -0.000034183413
       4       -0.000005537866    -0.000013996739    -0.000021033829
       5        0.000012494426     0.000011087321     0.000040110288
       6       -0.000028268516    -0.000020239907    -0.000000973375
       7        0.000005827726     0.000006237380    -0.000002504100
       8        0.000000462044     0.000020966504    -0.000019816046
       9       -0.000005468243     0.000007151953     0.000001403250
      10        0.000005906036    -0.000004396364     0.000006938657
      11       -0.000203469518     0.000674768613    -0.000862536499
      12        0.000001143587    -0.000001679251    -0.000011883706
      13       -0.000003603560     0.000012628479     0.000003370105
      14        0.000554180945    -0.001204293179     0.001231270715
      15        0.000002229740     0.000005848005    -0.000006871551
      16        0.000014573079    -0.000008601614    -0.000002155169
      17       -0.001402533931     0.001527026461    -0.000590114573
      18       -0.000013367496    -0.000007391766    -0.000005652363
      19        0.000018643931     0.000003339980     0.000046967235
      20        0.000023209672    -0.000015725448     0.000011361475
      21        0.001085838989    -0.001010086388     0.000157954787
      22       -0.000021842609     0.000009681021     0.000023255661
      23       -0.000027336280    -0.000034788804    -0.000018249821
      24       -0.000001212379     0.000031739976    -0.000023452986
      25       -0.000007632311     0.000003713581     0.000036270562
      26       -0.000000507197     0.000000608772     0.000000929421
      27       -0.000000109193     0.000000248257    -0.000001374573
      28       -0.000000735965    -0.000001160646     0.000000175926
      29       -0.000000525133     0.000001114013     0.000000394071

  **** Optimization is complete! (in 6 steps) ****
    Final optimized geometry and variables:
    Molecular point group: c1

    Geometry (in Angstrom), charge = 0, multiplicity = 1:

    O            3.223695794058     0.947328440963    -0.593229928581
    C            2.700015657133     0.043198657879    -0.037076867795
    C            1.247351029766    -0.019491615964     0.360744612191
    O            3.341652816442    -1.059168732459     0.315367558034
    C            0.458765372916     1.226018063084    -0.024143494303
    H            0.836985139603    -0.915413316406    -0.089316897093
    H            1.216778970880    -0.185175623997     1.433094852849
    C           -0.993282193112     1.210740132127     0.455522166643
    H            0.488370024116     1.349922387265    -1.101107555167
    H            0.959441184221     2.092829763892     0.389387982025
    C           -1.879476513987     0.150973000700    -0.197099803166
    H           -1.422118104738     2.188964696886     0.259437103392
    H           -1.015933962768     1.083614120299     1.535592089536
    C           -3.340399794888     0.246640915250     0.234595518735
    H           -1.819959471743     0.252654355026    -1.278118013739
    H           -1.507989026878    -0.842680636118     0.036760051215
    C           -4.229783190898    -0.825935226722    -0.389162592090
    H           -3.723986053705     1.228476552752    -0.033089358627
    H           -3.405329615555     0.181513664221     1.318103706346
    C           -5.712448447093    -0.625303594244    -0.096602882531
    H           -4.066987847707    -0.849203707874    -1.463257492316
    H           -3.920743211937    -1.801168737549    -0.021824139493
    H           -6.310646858018    -1.414872165814    -0.536879331548
    H           -6.065641147808     0.319527691843    -0.496086159397
    H           -5.903377849908    -0.622740429297     0.971601554321
    C            4.717714428752    -1.136832861736     0.003351647395
    H            4.871367635795    -1.068864729563    -1.063429237921
    H            5.051837685326    -2.094959447055     0.367053375407
    H            5.264471345380    -0.342370545035     0.489310332006

  Mulliken Charges: (a.u.)
   Center  Symbol    Alpha    Beta     Spin     Total
       1     O     4.19699  4.19699  0.00000 -0.39399
       2     C     2.80491  2.80491  0.00000  0.39019
       3     C     3.10168  3.10168  0.00000 -0.20335
       4     O     4.14721  4.14721  0.00000 -0.29441
       5     C     3.09261  3.09261  0.00000 -0.18521
       6     H     0.43903  0.43903  0.00000  0.12194
       7     H     0.43990  0.43990  0.00000  0.12019
       8     C     3.10395  3.10395  0.00000 -0.20790
       9     H     0.44623  0.44623  0.00000  0.10754
      10     H     0.43959  0.43959  0.00000  0.12083
      11     C     3.09299  3.09299  0.00000 -0.18599
      12     H     0.44532  0.44532  0.00000  0.10936
      13     H     0.45368  0.45368  0.00000  0.09263
      14     C     3.08606  3.08606  0.00000 -0.17212
      15     H     0.45283  0.45283  0.00000  0.09434
      16     H     0.45421  0.45421  0.00000  0.09158
      17     C     3.08372  3.08372  0.00000 -0.16744
      18     H     0.45457  0.45457  0.00000  0.09087
      19     H     0.45424  0.45424  0.00000  0.09152
      20     C     3.15019  3.15019  0.00000 -0.30038
      21     H     0.45484  0.45484  0.00000  0.09032
      22     H     0.45482  0.45482  0.00000  0.09036
      23     H     0.44839  0.44839  0.00000  0.10322
      24     H     0.45491  0.45491  0.00000  0.09017
      25     H     0.45517  0.45517  0.00000  0.08967
      26     C     3.03812  3.03812  0.00000 -0.07624
      27     H     0.45435  0.45435  0.00000  0.09130
      28     H     0.44528  0.44528  0.00000  0.10945
      29     H     0.45423  0.45423  0.00000  0.09153

   Total alpha = 44.00000, Total beta = 44.00000, Total charge = -0.00000

*** Psi4 exiting successfully. Buy a developer a beer!
