                              Psi4 1.0.54 Driver

  ==> Input File <==

--------------------------------------------------------------------------
set {
	reference rhf
	basis cc-pvtz
}

set_num_threads( 4 )
memory 2 gb

molecule MOL {
0 1

H	 1.142197	 -0.502793	 -1.230803
O	 1.675515	 -0.612943	 -0.465627
C	 1.135873	 0.113391	 0.608264
C	 0.027642	 1.012027	 0.090274
H	 1.902972	 0.727968	 1.072615
H	 0.756163	 -0.561896	 1.370018
C	 -1.138737	 0.285728	 -0.581921
H	 0.464661	 1.708096	 -0.618252
H	 -0.340737	 1.603071	 0.925246
C	 -1.933983	 -0.631436	 0.343653
H	 -0.763151	 -0.285569	 -1.422081
H	 -1.808359	 1.035291	 -0.992333
H	 -2.789188	 -1.049673	 -0.174718
H	 -1.335629	 -1.461368	 0.700418
H	 -2.305435	 -0.092167	 1.209725

	symmetry c1
}
set optking {
	frozen_dihedral = ("
		1 2 3 4
	")
}

ee,wfn = optimize('scf', return_wfn=True)
oeprop( wfn, 'DIPOLE', 'QUADRUPOLE', 'MULLIKEN_CHARGES')
f=open( 'psi4out.xyz', 'w' )
f.write( "15  " )
f.write( str(ee) + "\n" )
f.write( MOL.save_string_xyz() )
f.close()
--------------------------------------------------------------------------

    Molecular point group: c1
  Charge       = 0
  Multiplicity = 1
  Basis Set: CC-PVTZ
  Basis Set:
  @DF-RHF Final Energy:  -232.23236055118900
    Total Energy =                       -232.2323605511890605
    Molecular point group: c1
  Basis Set: CC-PVTZ
  Basis Set:
  Basis Set: CC-PVTZ
  Basis Set:
  @DF-RHF Final Energy:  -231.53833157287983
    Total Energy =                       -231.5383315728798834
  Basis Set: CC-PVTZ
  Basis Set:
  Basis Set: CC-PVTZ
  Basis Set:
  @DF-RHF Final Energy:  -231.72518814569207
    Total Energy =                       -231.7251881456921581
  Basis Set: CC-PVTZ
  Basis Set:
  Basis Set: CC-PVTZ
  Basis Set:
  @DF-RHF Final Energy:  -232.03179939257538
    Total Energy =                       -232.0317993925752091
  Basis Set: CC-PVTZ
  Basis Set:
  @DF-RHF Final Energy:  -232.16652285445744
    Total Energy =                       -232.1665228544574120
  @DF-RHF Final Energy:  -232.22658809892999
    Total Energy =                       -232.2265880989302218
  @DF-RHF Final Energy:  -232.23409589276832
    Total Energy =                       -232.2340958927684369
  @DF-RHF Final Energy:  -232.23444718090616
    Total Energy =                       -232.2344471809061588
  Basis Set: CC-PVTZ
  Basis Set:
  @DF-RHF Final Energy:  -232.23450076734952
    Total Energy =                       -232.2345007673494024
  Basis Set: CC-PVTZ
  Basis Set:
  Basis Set: CC-PVTZ
  Basis Set:
  @DF-RHF Final Energy:  -232.23450572237815
    Total Energy =                       -232.2345057223780032
  Basis Set: CC-PVTZ
  Basis Set:
  Basis Set: CC-PVTZ
  Basis Set:
  @DF-RHF Final Energy:  -232.23451156364715
    Total Energy =                       -232.2345115636472883
  Basis Set: CC-PVTZ
  Basis Set:
  Charge       = 0
  Multiplicity = 1
  Basis Set: CC-PVTZ
  Basis Set:

    Orbital Energies (a.u.)
    -----------------------

    Doubly Occupied:

       1A    -20.542689     2A    -11.264124     3A    -11.225365
       4A    -11.222323     5A    -11.212988     6A     -1.361124
       7A     -1.075358     8A     -0.977568     9A     -0.884027
      10A     -0.794062    11A     -0.675603    12A     -0.649647
      13A     -0.632675    14A     -0.588086    15A     -0.578672
      16A     -0.548710    17A     -0.507791    18A     -0.485621
      19A     -0.481540    20A     -0.458752    21A     -0.432078

  @DF-RHF Final Energy:  -232.23451179083455

   => Energetics <=

    Nuclear Repulsion Energy =            191.6661900127017759
    One-Electron Energy =                -694.6038029230799111
    Two-Electron Energy =                 270.7031011195436463
    DFT Exchange-Correlation Energy =       0.0000000000000000
    Empirical Dispersion Energy =           0.0000000000000000
    PCM Polarization Energy =               0.0000000000000000
    EFP Energy =                            0.0000000000000000
    Total Energy =                       -232.2345117908344605
    Molecular point group: c1
  Basis Set: CC-PVTZ
  Basis Set:

  -Total Gradient:
     Atom            X                  Y                   Z
    ------   -----------------  -----------------  -----------------
       1        0.000254597365     0.000285643449     0.000098335612
       2       -0.000395844400    -0.000422692089    -0.000175326787
       3        0.000295613883     0.000306172963     0.000189024707
       4       -0.000167749055    -0.000170917829    -0.000132860182
       5        0.000003275332     0.000001740090     0.000007460712
       6       -0.000001565046    -0.000009418457     0.000000246141
       7        0.000000181793     0.000010631158     0.000012329237
       8        0.000006356641     0.000003040569    -0.000001259714
       9       -0.000004949823     0.000003157906     0.000008252273
      10        0.000007925066    -0.000005752615     0.000002385571
      11        0.000003578430    -0.000001842575    -0.000008302783
      12        0.000009200719     0.000001006062    -0.000004125340
      13        0.000002823017     0.000000630615    -0.000001906804
      14       -0.000007757212    -0.000001477937     0.000003295198
      15       -0.000005686710     0.000000078690     0.000002452159

  **** Optimization is complete! (in 12 steps) ****
    Final optimized geometry and variables:
    Molecular point group: c1

    Geometry (in Angstrom), charge = 0, multiplicity = 1:

    H            1.710680869368    -0.776578064349     0.128665305395
    O            1.404797245665    -0.863081707663     1.011084551272
    C            0.316241432797    -0.006704885932     1.249319454053
    C            0.063504793020     0.997058703033     0.133537809894
    H            0.519204282185     0.532181268218     2.167346452359
    H           -0.568665258958    -0.609742545546     1.422117640560
    C           -0.308919526658     0.402645247340    -1.228414971242
    H            0.949629024577     1.616289140237     0.020862684722
    H           -0.733543080422     1.659322808394     0.459650596979
    C           -1.617940370226    -0.381966664317    -1.242562570877
    H            0.491315000329    -0.235707971786    -1.594707495148
    H           -0.377159306129     1.218123347117    -1.940956376555
    H           -1.860451388757    -0.702845067615    -2.248831729071
    H           -1.563944257553    -1.268106187236    -0.622271027066
    H           -2.441000173992     0.226606714206    -0.882459867398

  Mulliken Charges: (a.u.)
   Center  Symbol    Alpha    Beta     Spin     Total
       1     H     0.39066  0.39066  0.00000  0.21868
       2     O     4.20971  4.20971  0.00000 -0.41943
       3     C     2.95774  2.95774  0.00000  0.08452
       4     C     3.11649  3.11649  0.00000 -0.23299
       5     H     0.45939  0.45939  0.00000  0.08123
       6     H     0.47223  0.47223  0.00000  0.05554
       7     C     3.08892  3.08892  0.00000 -0.17783
       8     H     0.44419  0.44419  0.00000  0.11163
       9     H     0.45196  0.45196  0.00000  0.09608
      10     C     3.15275  3.15275  0.00000 -0.30550
      11     H     0.46121  0.46121  0.00000  0.07758
      12     H     0.44576  0.44576  0.00000  0.10847
      13     H     0.44549  0.44549  0.00000  0.10901
      14     H     0.44957  0.44957  0.00000  0.10087
      15     H     0.45394  0.45394  0.00000  0.09213

   Total alpha = 21.00000, Total beta = 21.00000, Total charge = -0.00000

*** Psi4 exiting successfully. Buy a developer a beer!
