  ==> Input File <==

--------------------------------------------------------------------------
set {
	reference rhf
	basis 6-31G*
}

set_num_threads( 1 )
memory 2 gb

molecule MOL {
0 1

O	 -2.658001	 0.195073	 0.716015
C	 -2.068631	 -0.715436	 0.217968
C	 -0.889235	 -0.467034	 -0.705952
C	 -2.440904	 -2.153237	 0.503479
C	 0.379448	 -0.143569	 0.099626
H	 -1.140111	 0.376390	 -1.339987
H	 -0.714675	 -1.329247	 -1.343247
C	 1.631333	 -0.777471	 -0.511575
H	 0.482768	 0.934507	 0.149241
H	 0.263088	 -0.495696	 1.123449
C	 2.915987	 -0.544314	 0.291766
H	 1.766672	 -0.399098	 -1.523130
H	 1.471257	 -1.849544	 -0.605828
C	 3.373361	 0.914346	 0.347591
H	 3.708709	 -1.142521	 -0.150311
H	 2.780642	 -0.921148	 1.303579
H	 3.506512	 1.320010	 -0.651625
H	 4.322697	 0.999599	 0.867103
H	 2.660624	 1.545032	 0.868198
H	 -2.817679	 -2.619894	 -0.402907
H	 -3.201486	 -2.193422	 1.270737
H	 -1.569653	 -2.720891	 0.817318

	symmetry c1
}
set optking {
	frozen_dihedral = ("
		6 3 2 1,
		3 5 8 12,
		12 8 11 15
	")
}

ee = energy('scf')
oeprop('DIPOLE', 'QUADRUPOLE', 'MULLIKEN_CHARGES')
f=open( 'psi4out.xyz', 'w' )
f.write( "22  " )
f.write( str(ee) + "\n" )
f.write( MOL.save_string_xyz() )
f.close()
--------------------------------------------------------------------------

    Molecular point group: c1

    Geometry (in Angstrom), charge = 0, multiplicity = 1:

       Center              X                  Y                   Z               Mass
    ------------   -----------------  -----------------  -----------------  -----------------
           O         -2.692279354879     0.651521464651     0.586721036249    15.994914619560
           C         -2.102909354879    -0.258987535349     0.088674036249    12.000000000000
           C         -0.923513354879    -0.010585535349    -0.835245963751    12.000000000000
           C         -2.475182354879    -1.696788535349     0.374185036249    12.000000000000
           C          0.345169645121     0.312879464651    -0.029667963751    12.000000000000
           H         -1.174389354879     0.832838464651    -1.469280963751     1.007825032070
           H         -0.748953354879    -0.872798535349    -1.472540963751     1.007825032070
           C          1.597054645121    -0.321022535349    -0.640868963751    12.000000000000
           H          0.448489645121     1.390955464651     0.019947036249     1.007825032070
           H          0.228809645121    -0.039247535349     0.994155036249     1.007825032070
           C          2.881708645121    -0.087865535349     0.162472036249    12.000000000000
           H          1.732393645121     0.057350464651    -1.652423963751     1.007825032070
           H          1.436978645121    -1.393095535349    -0.735121963751     1.007825032070
           C          3.339082645121     1.370794464651     0.218297036249    12.000000000000
           H          3.674430645121    -0.686072535349    -0.279604963751     1.007825032070
           H          2.746363645121    -0.464699535349     1.174285036249     1.007825032070
           H          3.472233645121     1.776458464651    -0.780918963751     1.007825032070
           H          4.288418645121     1.456047464651     0.737809036249     1.007825032070
           H          2.626345645121     2.001480464651     0.738904036249     1.007825032070
           H         -2.851957354879    -2.163445535349    -0.532200963751     1.007825032070
           H         -3.235764354879    -1.736973535349     1.141443036249     1.007825032070
           H         -1.603931354879    -2.264442535349     0.688024036249     1.007825032070

  Charge       = 0
  Multiplicity = 1
  Basis Set: 6-31G*
  Basis Set:

    Orbital Energies (a.u.)
    -----------------------

    Doubly Occupied:

       1A    -20.546191     2A    -11.324194     3A    -11.229156
       4A    -11.228528     5A    -11.227804     6A    -11.223697
       7A    -11.221309     8A    -11.212347     9A     -1.392310
      10A     -1.096635    11A     -1.044394    12A     -0.999582
      13A     -0.938458    14A     -0.858211    15A     -0.787895
      16A     -0.733718    17A     -0.658867    18A     -0.648004
      19A     -0.625603    20A     -0.621276    21A     -0.596050
      22A     -0.575303    23A     -0.570583    24A     -0.547346
      25A     -0.535292    26A     -0.511289    27A     -0.501544
      28A     -0.491399    29A     -0.470865    30A     -0.465602
      31A     -0.455655    32A     -0.395830

  @DF-RHF Final Energy:  -348.09378675786627

   => Energetics <=

    Nuclear Repulsion Energy =            373.7359349988161057
    One-Electron Energy =               -1212.1890569308702652
    Two-Electron Energy =                 490.3593351741881179
    DFT Exchange-Correlation Energy =       0.0000000000000000
    Empirical Dispersion Energy =           0.0000000000000000
    PCM Polarization Energy =               0.0000000000000000
    EFP Energy =                            0.0000000000000000
    Total Energy =                       -348.0937867578660416

  Mulliken Charges: (a.u.)
   Center  Symbol    Alpha    Beta     Spin     Total
       1     O     4.26219  4.26219  0.00000 -0.52439
       2     C     2.74043  2.74043  0.00000  0.51913
       3     C     3.20129  3.20129  0.00000 -0.40257
       4     C     3.28935  3.28935  0.00000 -0.57869
       5     C     3.15955  3.15955  0.00000 -0.31909
       6     H     0.39982  0.39982  0.00000  0.20037
       7     H     0.41532  0.41532  0.00000  0.16936
       8     C     3.15577  3.15577  0.00000 -0.31154
       9     H     0.40621  0.40621  0.00000  0.18758
      10     H     0.41701  0.41701  0.00000  0.16599
      11     C     3.15352  3.15352  0.00000 -0.30703
      12     H     0.42130  0.42130  0.00000  0.15741
      13     H     0.42252  0.42252  0.00000  0.15496
      14     C     3.24218  3.24218  0.00000 -0.48436
      15     H     0.41975  0.41975  0.00000  0.16051
      16     H     0.42220  0.42220  0.00000  0.15559
      17     H     0.42157  0.42157  0.00000  0.15686
      18     H     0.41780  0.41780  0.00000  0.16439
      19     H     0.41831  0.41831  0.00000  0.16337
      20     H     0.40673  0.40673  0.00000  0.18654
      21     H     0.39697  0.39697  0.00000  0.20605
      22     H     0.41022  0.41022  0.00000  0.17955

   Total alpha = 32.00000, Total beta = 32.00000, Total charge = -0.00000
