  ==> Input File <==

--------------------------------------------------------------------------
set {
	reference rhf
	basis 6-31G*
}

set_num_threads( 1 )
memory 2 gb

molecule MOL {
0 1

O	 2.862325	 1.357334	 0.000267
C	 2.843464	 0.164689	 -0.000222
C	 1.546494	 -0.624492	 -0.000609
C	 4.124123	 -0.644674	 -0.000428
C	 0.291004	 0.242674	 0.000989
H	 1.557904	 -1.283758	 -0.867573
H	 1.558622	 -1.285963	 0.864672
C	 0.541614	 1.638195	 -0.573012
H	 -0.084578	 0.322968	 1.016184
H	 -0.486851	 -0.256470	 -0.568173
C	 -0.710219	 2.517196	 -0.575184
H	 1.325104	 2.131727	 0.000239
H	 0.919621	 1.550266	 -1.590581
C	 -0.467586	 3.914802	 -1.147755
H	 -1.088560	 2.606369	 0.441637
H	 -1.493839	 2.025225	 -1.148683
C	 -1.722599	 4.786941	 -1.146355
H	 0.314708	 4.408024	 -0.574544
H	 -0.090797	 3.827003	 -2.164701
H	 -2.104930	 4.921978	 -0.138517
H	 -1.518788	 5.770984	 -1.557233
H	 -2.512929	 4.337433	 -1.740883
H	 4.165367	 -1.288615	 -0.874074
H	 4.976217	 0.020734	 -0.001915
H	 4.166763	 -1.286207	 0.874930

	symmetry c1
}
set optking {
	frozen_dihedral = ("
		9 5 8 12,
		15 11 8 12,
		15 11 14 18,
		1 2 3 6
	")
}

ee = energy('scf')
oeprop('DIPOLE', 'QUADRUPOLE', 'MULLIKEN_CHARGES')
f=open( 'psi4out.xyz', 'w' )
f.write( "25  " )
f.write( str(ee) + "\n" )
f.write( MOL.save_string_xyz() )
f.close()
--------------------------------------------------------------------------

    Molecular point group: c1

    Geometry (in Angstrom), charge = 0, multiplicity = 1:

       Center              X                  Y                   Z               Mass
    ------------   -----------------  -----------------  -----------------  -----------------
           O          1.825669968119    -0.144254133748     0.385832413920    15.994914619560
           C          1.806808968119    -1.336899133748     0.385343413920    12.000000000000
           C          0.509838968119    -2.126080133748     0.384956413920    12.000000000000
           C          3.087467968119    -2.146262133748     0.385137413920    12.000000000000
           C         -0.745651031881    -1.258914133748     0.386554413920    12.000000000000
           H          0.521248968119    -2.785346133748    -0.482007586080     1.007825032070
           H          0.521966968119    -2.787551133748     1.250237413920     1.007825032070
           C         -0.495041031881     0.136606866252    -0.187446586080    12.000000000000
           H         -1.121233031881    -1.178620133748     1.401749413920     1.007825032070
           H         -1.523506031881    -1.758058133748    -0.182607586080     1.007825032070
           C         -1.746874031881     1.015607866252    -0.189618586080    12.000000000000
           H          0.288448968119     0.630138866252     0.385804413920     1.007825032070
           H         -0.117034031881     0.048677866252    -1.205015586080     1.007825032070
           C         -1.504241031881     2.413213866252    -0.762189586080    12.000000000000
           H         -2.125215031881     1.104780866252     0.827202413920     1.007825032070
           H         -2.530494031881     0.523636866252    -0.763117586080     1.007825032070
           C         -2.759254031881     3.285352866252    -0.760789586080    12.000000000000
           H         -0.721947031881     2.906435866252    -0.188978586080     1.007825032070
           H         -1.127452031881     2.325414866252    -1.779135586080     1.007825032070
           H         -3.141585031881     3.420389866252     0.247048413920     1.007825032070
           H         -2.555443031881     4.269395866252    -1.171667586080     1.007825032070
           H         -3.549584031881     2.835844866252    -1.355317586080     1.007825032070
           H          3.128711968119    -2.790203133748    -0.488508586080     1.007825032070
           H          3.939561968119    -1.480854133748     0.383650413920     1.007825032070
           H          3.130107968119    -2.787795133748     1.260495413920     1.007825032070

  Charge       = 0
  Multiplicity = 1
  Basis Set: 6-31G*
  Basis Set:

    Orbital Energies (a.u.)
    -----------------------

    Doubly Occupied:

       1A    -20.549582     2A    -11.332910     3A    -11.233739
       4A    -11.231418     5A    -11.214784     6A    -11.201893
       7A    -11.198513     8A    -11.195433     9A    -11.182931
      10A     -1.406332    11A     -1.083126    12A     -1.050776
      13A     -1.014998    14A     -0.960014    15A     -0.883327
      16A     -0.809967    17A     -0.779831    18A     -0.738565
      19A     -0.667799    20A     -0.645518    21A     -0.625389
      22A     -0.620269    23A     -0.590947    24A     -0.580453
      25A     -0.563330    26A     -0.549589    27A     -0.530074
      28A     -0.521149    29A     -0.511077    30A     -0.502958
      31A     -0.489501    32A     -0.463047    33A     -0.454313
      34A     -0.443521    35A     -0.430438    36A     -0.373244

  @DF-RHF Final Energy:  -387.10098322079097

   => Energetics <=

    Nuclear Repulsion Energy =            458.5129378667575679
    One-Electron Energy =               -1433.9663508156420448
    Two-Electron Energy =                 588.3524297280936253
    DFT Exchange-Correlation Energy =       0.0000000000000000
    Empirical Dispersion Energy =           0.0000000000000000
    PCM Polarization Energy =               0.0000000000000000
    EFP Energy =                            0.0000000000000000
    Total Energy =                       -387.1009832207909085

  Mulliken Charges: (a.u.)
   Center  Symbol    Alpha    Beta     Spin     Total
       1     O     4.26314  4.26314  0.00000 -0.52627
       2     C     2.73345  2.73345  0.00000  0.53309
       3     C     3.21470  3.21470  0.00000 -0.42939
       4     C     3.28657  3.28657  0.00000 -0.57313
       5     C     3.15207  3.15207  0.00000 -0.30414
       6     H     0.40670  0.40670  0.00000  0.18659
       7     H     0.40590  0.40590  0.00000  0.18820
       8     C     3.16560  3.16560  0.00000 -0.33120
       9     H     0.41934  0.41934  0.00000  0.16132
      10     H     0.41945  0.41945  0.00000  0.16110
      11     C     3.14724  3.14724  0.00000 -0.29449
      12     H     0.37577  0.37577  0.00000  0.24845
      13     H     0.43208  0.43208  0.00000  0.13584
      14     C     3.14968  3.14968  0.00000 -0.29936
      15     H     0.42929  0.42929  0.00000  0.14143
      16     H     0.43308  0.43308  0.00000  0.13384
      17     C     3.23842  3.23842  0.00000 -0.47683
      18     H     0.42223  0.42223  0.00000  0.15553
      19     H     0.42494  0.42494  0.00000  0.15012
      20     H     0.42339  0.42339  0.00000  0.15322
      21     H     0.42152  0.42152  0.00000  0.15697
      22     H     0.42364  0.42364  0.00000  0.15272
      23     H     0.40789  0.40789  0.00000  0.18422
      24     H     0.39611  0.39611  0.00000  0.20778
      25     H     0.40779  0.40779  0.00000  0.18441

   Total alpha = 36.00000, Total beta = 36.00000, Total charge = -0.00000
