                              Psi4 1.0.54 Driver

  ==> Input File <==

--------------------------------------------------------------------------
set {
	reference rhf
	basis cc-pvtz
}

set_num_threads( 4 )
memory 2 gb

molecule MOL {
0 1

H	 2.867672	 -0.456275	 0.875795
C	 2.403497	 -0.020426	 0.000000
N	 0.989899	 -0.304564	 0.000000
H	 2.867672	 -0.456275	 -0.875795
H	 2.620366	 1.051270	 0.000000
C	 0.199528	 0.819417	 0.457763
C	 0.665292	 -1.497779	 0.753948
H	 0.453263	 1.093981	 1.486343
H	 0.403669	 1.678439	 -0.170835
C	 -1.277184	 0.481666	 0.383684
H	 1.211180	 -2.338959	 0.342671
H	 0.954059	 -1.397503	 1.804806
C	 -0.823387	 -1.775992	 0.672259
H	 -1.870464	 1.279031	 0.808953
H	 -1.568733	 0.351819	 -0.656623
O	 -1.566881	 -0.676816	 1.108350
H	 -1.088645	 -2.610547	 1.306122
H	 -1.091454	 -2.022666	 -0.353115

	symmetry c1
}
set optking {
	frozen_dihedral = ("
		6 3 2 5
	")
}

ee,wfn = optimize('scf', return_wfn=True)
oeprop( wfn, 'DIPOLE', 'QUADRUPOLE', 'MULLIKEN_CHARGES')
f=open( 'psi4out.xyz', 'w' )
f.write( "18  " )
f.write( str(ee) + "\n" )
f.write( MOL.save_string_xyz() )
f.close()
--------------------------------------------------------------------------

    Molecular point group: c1
  Charge       = 0
  Multiplicity = 1
  Basis Set: CC-PVTZ
  Basis Set:
  @DF-RHF Final Energy:  -325.14090030149595
    Total Energy =                       -325.1409003014960035
    Molecular point group: c1
  Basis Set: CC-PVTZ
  Basis Set:
  Basis Set: CC-PVTZ
  Basis Set:
  @DF-RHF Final Energy:  -325.14183655785877
    Total Energy =                       -325.1418365578584826
  Basis Set: CC-PVTZ
  Basis Set:
  Basis Set: CC-PVTZ
  Basis Set:
  @DF-RHF Final Energy:  -325.14197056208246
    Total Energy =                       -325.1419705620822356
  Basis Set: CC-PVTZ
  Basis Set:
  Basis Set: CC-PVTZ
  Basis Set:
  @DF-RHF Final Energy:  -325.14198034301370
    Total Energy =                       -325.1419803430137563
  Basis Set: CC-PVTZ
  Basis Set:
  Charge       = 0
  Multiplicity = 1
  Basis Set: CC-PVTZ
  Basis Set:

    Orbital Energies (a.u.)
    -----------------------

    Doubly Occupied:

       1A    -20.547237     2A    -15.541002     3A    -11.263862
       4A    -11.263783     5A    -11.242721     6A    -11.242422
       7A    -11.239118     8A     -1.386044     9A     -1.230757
      10A     -1.039239    11A     -0.981517    12A     -0.884263
      13A     -0.870038    14A     -0.773259    15A     -0.684703
      16A     -0.646219    17A     -0.645009    18A     -0.633749
      19A     -0.628607    20A     -0.572969    21A     -0.558029
      22A     -0.545711    23A     -0.526970    24A     -0.500235
      25A     -0.486242    26A     -0.453763    27A     -0.410486
      28A     -0.348246

  @DF-RHF Final Energy:  -325.14198132463940

   => Energetics <=

    Nuclear Repulsion Energy =            341.5320343775987908
    One-Electron Energy =               -1119.0556326055655063
    Two-Electron Energy =                 452.3816169033273695
    DFT Exchange-Correlation Energy =       0.0000000000000000
    Empirical Dispersion Energy =           0.0000000000000000
    PCM Polarization Energy =               0.0000000000000000
    EFP Energy =                            0.0000000000000000
    Total Energy =                       -325.1419813246392891
    Molecular point group: c1
  Basis Set: CC-PVTZ
  Basis Set:

  -Total Gradient:
     Atom            X                  Y                   Z
    ------   -----------------  -----------------  -----------------
       1        0.000016059026     0.000001006252     0.000006938418
       2       -0.000308426840     0.000284637266    -0.006870482387
       3        0.000497506490    -0.001422671533     0.005627609590
       4       -0.000029115811    -0.000006247543     0.000048487839
       5        0.000194594016     0.000141691541     0.004370646592
       6       -0.000351762712     0.001054825007    -0.003142717984
       7       -0.000009878544    -0.000007352651    -0.000034598692
       8        0.000017377158    -0.000011410348    -0.000010180741
       9       -0.000004565482    -0.000007055049    -0.000002386401
      10       -0.000018745630    -0.000026719059    -0.000034232718
      11        0.000001439989     0.000000930989     0.000003142908
      12       -0.000008594311     0.000005413688    -0.000014896219
      13       -0.000006026348    -0.000028800601     0.000046620160
      14       -0.000003479536    -0.000010012480     0.000006360612
      15       -0.000001333779     0.000015214384    -0.000011121668
      16        0.000026901385     0.000017658186    -0.000001709678
      17       -0.000026501788    -0.000011649670     0.000002779799
      18        0.000014552717     0.000010541619     0.000009740572

  **** Optimization is complete! (in 5 steps) ****
    Final optimized geometry and variables:
    Molecular point group: c1

    Geometry (in Angstrom), charge = 0, multiplicity = 1:

    H            2.853280989691     0.064750813745     0.359585109632
    C            2.322105526095     0.424110462756    -0.523301905262
    N            0.904059414481     0.146580184529    -0.453547027939
    H            2.770142643506    -0.040666668314    -1.393562582604
    H            2.495838294941     1.491392720135    -0.563513541390
    C            0.094603986118     1.256691892072    -0.002315176682
    C            0.591484191578    -1.074610245739     0.251935754481
    H            0.328017873564     1.541322257633     1.028928474527
    H            0.285524743589     2.117154142035    -0.632077866544
    C           -1.375036424709     0.890629317925    -0.092071017622
    H            1.146720133814    -1.894945767685    -0.189348049550
    H            0.879745672539    -1.011961315352     1.306095422523
    C           -0.894028214889    -1.366125942740     0.158554249889
    H           -1.987333355156     1.670950466250     0.338098933174
    H           -1.654734575002     0.768591942170    -1.136731402880
    O           -1.648890862155    -0.282877887055     0.614351886273
    H           -1.153808016670    -2.216263579962     0.773916531689
    H           -1.156301162467    -1.593652830898    -0.872787795482

  Mulliken Charges: (a.u.)
   Center  Symbol    Alpha    Beta     Spin     Total
       1     H     0.46651  0.46651  0.00000  0.06699
       2     C     3.09213  3.09213  0.00000 -0.18425
       3     N     3.61818  3.61818  0.00000 -0.23636
       4     H     0.44909  0.44909  0.00000  0.10182
       5     H     0.45547  0.45547  0.00000  0.08907
       6     C     3.03938  3.03938  0.00000 -0.07875
       7     C     3.04060  3.04060  0.00000 -0.08121
       8     H     0.47005  0.47005  0.00000  0.05990
       9     H     0.45410  0.45410  0.00000  0.09180
      10     C     2.98418  2.98418  0.00000  0.03163
      11     H     0.45421  0.45421  0.00000  0.09157
      12     H     0.46897  0.46897  0.00000  0.06206
      13     C     2.98391  2.98391  0.00000  0.03218
      14     H     0.45003  0.45003  0.00000  0.09994
      15     H     0.46838  0.46838  0.00000  0.06325
      16     O     4.18646  4.18646  0.00000 -0.37293
      17     H     0.45011  0.45011  0.00000  0.09978
      18     H     0.46824  0.46824  0.00000  0.06353

   Total alpha = 28.00000, Total beta = 28.00000, Total charge = -0.00000

*** Psi4 exiting successfully. Buy a developer a beer!
