  ==> Input File <==

--------------------------------------------------------------------------
set {
	reference rhf
	basis cc-pvtz
}

set_num_threads( 4 )
memory 2 gb

molecule MOL {
0 1

H	 -2.487165	 0.792339	 -1.728619
C	 -1.804053	 -0.052140	 -1.672957
O	 -1.401606	 -0.295183	 -0.366624
H	 -2.312737	 -0.934904	 -2.031924
H	 -0.954141	 0.149773	 -2.322392
C	 -0.718530	 0.758693	 0.228682
C	 0.718529	 0.758687	 -0.228709
H	 -1.176498	 1.708665	 -0.046615
H	 -0.748705	 0.673525	 1.312779
O	 1.401606	 -0.295166	 0.366636
H	 0.748705	 0.673477	 -1.312803
H	 1.176496	 1.708671	 0.046552
C	 2.714315	 -0.441627	 -0.061017
H	 2.765292	 -0.641548	 -1.128869
H	 3.305661	 0.447341	 0.150952
H	 3.143725	 -1.278506	 0.470147

	symmetry c1
}
set optking {
	frozen_dihedral = ("
		2 3 6 7
	")
}

ee = optimize('scf')
oeprop('DIPOLE', 'QUADRUPOLE', 'MULLIKEN_CHARGES')
f=open( 'psi4out.xyz', 'w' )
f.write( "16  " )
f.write( str(ee) + "\n" )
f.write( MOL.save_string_xyz() )
f.close()
--------------------------------------------------------------------------

    Molecular point group: c1
  Charge       = 0
  Multiplicity = 1
  Basis Set: CC-PVTZ
  Basis Set:
  @DF-RHF Final Energy:  -307.09252400010786
    Total Energy =                       -307.0925240001079146
    Molecular point group: c1
  Basis Set: CC-PVTZ
  Basis Set:
  Basis Set: CC-PVTZ
  Basis Set:
  @DF-RHF Final Energy:  -307.09427063776161
    Total Energy =                       -307.0942706377615536
  Basis Set: CC-PVTZ
  Basis Set:
  Basis Set: CC-PVTZ
  Basis Set:
  @DF-RHF Final Energy:  -307.09483963652792
    Total Energy =                       -307.0948396365280360
  Basis Set: CC-PVTZ
  Basis Set:
  Basis Set: CC-PVTZ
  Basis Set:
  @DF-RHF Final Energy:  -307.09486616859425
    Total Energy =                       -307.0948661685943080
  Basis Set: CC-PVTZ
  Basis Set:
  Basis Set: CC-PVTZ
  Basis Set:
  @DF-RHF Final Energy:  -307.09486897559572
    Total Energy =                       -307.0948689755958867
  Basis Set: CC-PVTZ
  Basis Set:
  Charge       = 0
  Multiplicity = 1
  Basis Set: CC-PVTZ
  Basis Set:

    Orbital Energies (a.u.)
    -----------------------

    Doubly Occupied:

       1A    -20.550131     2A    -20.546979     3A    -11.269228
       4A    -11.267490     5A    -11.263937     6A    -11.262440
       7A     -1.391961     8A     -1.374235     9A     -1.029355
      10A     -0.945198    11A     -0.898859    12A     -0.817863
      13A     -0.690295    14A     -0.681462    15A     -0.661228
      16A     -0.639916    17A     -0.629517    18A     -0.602563
      19A     -0.555582    20A     -0.528335    21A     -0.517381
      22A     -0.489415    23A     -0.463486    24A     -0.421404
      25A     -0.412309

  @DF-RHF Final Energy:  -307.09486908468654

   => Energetics <=

    Nuclear Repulsion Energy =            261.2615602954170413
    One-Electron Energy =                -936.8917161080058804
    Two-Electron Energy =                 368.5352867279020757
    DFT Exchange-Correlation Energy =       0.0000000000000000
    Empirical Dispersion Energy =           0.0000000000000000
    PCM Polarization Energy =               0.0000000000000000
    EFP Energy =                            0.0000000000000000
    Total Energy =                       -307.0948690846867066
    Molecular point group: c1
  Basis Set: CC-PVTZ
  Basis Set:

  -Total Gradient:
     Atom            X                  Y                   Z
    ------   -----------------  -----------------  -----------------
       1        0.000001084544     0.000001443988     0.000000613174
       2       -0.000037949472     0.000001997746     0.000017299797
       3        0.000046175835    -0.000025310251    -0.000017231388
       4       -0.000003022197    -0.000001681525    -0.000011005228
       5        0.000003646337     0.000000465333     0.000006340667
       6       -0.000012718828     0.000044261112    -0.000011281985
       7        0.000003093244     0.000006136681     0.000002950869
       8        0.000001770729    -0.000002858601     0.000000072788
       9        0.000001743092     0.000000822336    -0.000002062277
      10        0.000014953633    -0.000045745250     0.000020980954
      11        0.000002234299    -0.000000637558     0.000003360698
      12       -0.000006786222     0.000003245205    -0.000000369395
      13       -0.000018274160     0.000019940218    -0.000011890137
      14        0.000008131538    -0.000003867364    -0.000002790935
      15        0.000006655480    -0.000000613469     0.000002488519
      16       -0.000010737855     0.000002401399     0.000002523879

  **** Optimization is complete! (in 6 steps) ****
    Final optimized geometry and variables:
    Molecular point group: c1

    Geometry (in Angstrom), charge = 0, multiplicity = 1:

    H           -2.617430106894     0.747938832632    -1.457832626544
    C           -2.026489446613    -0.159959439916    -1.354001317865
    O           -1.597625473925    -0.337873991042    -0.044355969194
    H           -2.645787619301    -1.007137966495    -1.610415244097
    H           -1.201049254644    -0.115518945730    -2.058769231673
    C           -0.855512852868     0.703733531654     0.505301970157
    C            0.602704881721     0.718445125388     0.094590643329
    H           -1.299230159905     1.664792921445     0.248029172841
    H           -0.907901488987     0.586546043627     1.579135417012
    O            1.245921618035    -0.396754912854     0.615653208908
    H            0.699839496766     0.741110015887    -0.989422751407
    H            1.055883672284     1.633557875939     0.477713898685
    C            2.585665391729    -0.503340011302     0.267520085712
    H            2.712965057731    -0.581402787881    -0.810185155179
    H            3.159758050890     0.351573561644     0.619695057516
    H            2.976876790006    -1.398210434530     0.728877010294

  Mulliken Charges: (a.u.)
   Center  Symbol    Alpha    Beta     Spin     Total
       1     H     0.47220  0.47220  0.00000  0.05561
       2     C     3.03292  3.03292  0.00000 -0.06584
       3     O     4.17357  4.17357  0.00000 -0.34713
       4     H     0.44483  0.44483  0.00000  0.11034
       5     H     0.47192  0.47192  0.00000  0.05617
       6     C     2.97519  2.97519  0.00000  0.04962
       7     C     2.96934  2.96934  0.00000  0.06133
       8     H     0.47287  0.47287  0.00000  0.05425
       9     H     0.44938  0.44938  0.00000  0.10124
      10     O     4.16784  4.16784  0.00000 -0.33568
      11     H     0.47635  0.47635  0.00000  0.04729
      12     H     0.47159  0.47159  0.00000  0.05682
      13     C     3.03151  3.03151  0.00000 -0.06303
      14     H     0.47217  0.47217  0.00000  0.05566
      15     H     0.47260  0.47260  0.00000  0.05479
      16     H     0.44572  0.44572  0.00000  0.10857

   Total alpha = 25.00000, Total beta = 25.00000, Total charge =  0.00000
