  ==> Input File <==

--------------------------------------------------------------------------
set {
	reference rhf
	basis 6-31G*
}

set_num_threads( 4 )
memory 2 gb

molecule MOL {
0 1

H	 -2.798360	 -0.862255	 -0.071053
N	 -1.863561	 -0.715187	 0.256814
C	 -1.344686	 0.554728	 -0.219830
H	 -1.300452	 -1.461917	 -0.101532
C	 -0.544924	 1.229950	 0.874515
H	 -0.711516	 0.466244	 -1.103724
H	 -2.181435	 1.195192	 -0.481438
O	 0.574316	 0.437913	 1.152122
H	 -0.230592	 2.222767	 0.553347
H	 -1.161088	 1.337568	 1.764457
C	 1.358151	 0.900416	 2.205338
H	 2.185871	 0.214505	 2.324101
H	 1.752177	 1.894500	 2.001564
H	 0.793775	 0.936776	 3.134836

	symmetry c1
}
set optking {
	frozen_dihedral = ("
		6 3 2 4
	")
}

ee = optimize('scf')
oeprop('DIPOLE', 'QUADRUPOLE', 'MULLIKEN_CHARGES')
f=open( 'psi4out.xyz', 'w' )
f.write( "14  " )
f.write( str(ee) + "\n" )
f.write( MOL.save_string_xyz() )
f.close()
--------------------------------------------------------------------------

    Molecular point group: c1
  Charge       = 0
  Multiplicity = 1
  Basis Set: 6-31G*
  Basis Set:
  @DF-RHF Final Energy:  -248.12056823141322
    Total Energy =                       -248.1205682314131309
    Molecular point group: c1
  Basis Set: 6-31G*
  Basis Set:
  Basis Set: 6-31G*
  Basis Set:
  @DF-RHF Final Energy:  -248.12106073436487
    Total Energy =                       -248.1210607343646757
  Basis Set: 6-31G*
  Basis Set:
  Basis Set: 6-31G*
  Basis Set:
  @DF-RHF Final Energy:  -248.12114475194088
    Total Energy =                       -248.1211447519407898
  Basis Set: 6-31G*
  Basis Set:
  Basis Set: 6-31G*
  Basis Set:
  @DF-RHF Final Energy:  -248.12115237681707
    Total Energy =                       -248.1211523768171219
  Basis Set: 6-31G*
  Basis Set:
  Charge       = 0
  Multiplicity = 1
  Basis Set: 6-31G*
  Basis Set:

    Orbital Energies (a.u.)
    -----------------------

    Doubly Occupied:

       1A    -20.549652     2A    -15.531282     3A    -11.260480
       4A    -11.258868     5A    -11.242197     6A     -1.374632
       7A     -1.173398     8A     -0.997044     9A     -0.902235
      10A     -0.812585    11A     -0.680046    12A     -0.671111
      13A     -0.635661    14A     -0.620532    15A     -0.601029
      16A     -0.530175    17A     -0.520492    18A     -0.503222
      19A     -0.468800    20A     -0.410404    21A     -0.381425

  @DF-RHF Final Energy:  -248.12115372392037

   => Energetics <=

    Nuclear Repulsion Energy =            193.8134756032134760
    One-Electron Energy =                -721.6187180734218600
    Two-Electron Energy =                 279.6840887462879550
    DFT Exchange-Correlation Energy =       0.0000000000000000
    Empirical Dispersion Energy =           0.0000000000000000
    PCM Polarization Energy =               0.0000000000000000
    EFP Energy =                            0.0000000000000000
    Total Energy =                       -248.1211537239204858
    Molecular point group: c1
  Basis Set: 6-31G*
  Basis Set:

  -Total Gradient:
     Atom            X                  Y                   Z
    ------   -----------------  -----------------  -----------------
       1        0.000017747829     0.000032400111     0.000009411698
       2        0.004022817710     0.000312237449     0.005412840266
       3       -0.004782802627     0.000458699989    -0.004334389415
       4       -0.002462458049    -0.000320514646    -0.003760014404
       5       -0.000078667778    -0.000031904119     0.000097753553
       6        0.003227838622    -0.000448732096     0.002621395134
       7        0.000008502604    -0.000012519120    -0.000009113437
       8        0.000023378851     0.000022497483    -0.000041792001
       9        0.000034153511    -0.000058063358    -0.000007310089
      10       -0.000012005016     0.000034376127     0.000015002522
      11        0.000003071978     0.000017331864    -0.000000693978
      12       -0.000002255238    -0.000001273621    -0.000006437523
      13        0.000005944500    -0.000003219795     0.000006746654
      14       -0.000005266897    -0.000001316271    -0.000003398978

  **** Optimization is complete! (in 5 steps) ****
    Final optimized geometry and variables:
    Molecular point group: c1

    Geometry (in Angstrom), charge = 0, multiplicity = 1:

    H           -2.453623672996    -1.333505296124    -0.979618201608
    N           -1.543996338720    -1.184293411502    -0.589448385105
    C           -0.984888483880     0.075799756638    -1.068251183076
    H           -0.983894320576    -1.956451942202    -0.890129505593
    C           -0.183631109695     0.756143008697     0.025350677705
    H           -0.311621835981    -0.060537487410    -1.911863424085
    H           -1.786937661889     0.737753673626    -1.377405045460
    O            0.958606978766    -0.009902231956     0.268333371189
    H            0.102410565159     1.762358002480    -0.285978606790
    H           -0.788327346506     0.836119096835     0.925758313656
    C            1.725867252406     0.428917870434     1.342051198209
    H            2.578245922083    -0.231435426246     1.427961416681
    H            2.084246825789     1.445845072578     1.188362052866
    H            1.162295980200     0.399145809245     2.272333952350

  Mulliken Charges: (a.u.)
   Center  Symbol    Alpha    Beta     Spin     Total
       1     H     0.33316  0.33316  0.00000  0.33367
       2     N     3.91948  3.91948  0.00000 -0.83895
       3     C     3.07917  3.07917  0.00000 -0.15834
       4     H     0.32768  0.32768  0.00000  0.34465
       5     C     2.97749  2.97749  0.00000  0.04502
       6     H     0.42011  0.42011  0.00000  0.15977
       7     H     0.42229  0.42229  0.00000  0.15542
       8     O     4.30653  4.30653  0.00000 -0.61306
       9     H     0.43626  0.43626  0.00000  0.12749
      10     H     0.42627  0.42627  0.00000  0.14745
      11     C     3.07779  3.07779  0.00000 -0.15558
      12     H     0.41364  0.41364  0.00000  0.17272
      13     H     0.43213  0.43213  0.00000  0.13574
      14     H     0.42800  0.42800  0.00000  0.14399

   Total alpha = 21.00000, Total beta = 21.00000, Total charge =  0.00000
