  ==> Input File <==

--------------------------------------------------------------------------
set {
	reference rhf
	basis 6-31G*
}

set_num_threads( 4 )
memory 2 gb

molecule MOL {
0 1

H	 2.675422	 1.701134	 0.621261
O	 3.411778	 1.387409	 0.116852
C	 3.575608	 0.007732	 0.325915
C	 2.506315	 -0.835347	 -0.360055
H	 4.549386	 -0.237570	 -0.078138
H	 3.602457	 -0.215617	 1.391829
C	 1.090976	 -0.599394	 0.172872
H	 2.534259	 -0.626792	 -1.426399
H	 2.769663	 -1.884326	 -0.234921
C	 0.048968	 -1.498943	 -0.497836
H	 0.821777	 0.442345	 0.022282
H	 1.075142	 -0.775163	 1.248602
C	 -1.372835	 -1.363565	 0.059380
H	 0.037028	 -1.297038	 -1.567387
H	 0.364239	 -2.534522	 -0.388837
C	 -2.037799	 -0.007733	 -0.193645
H	 -1.989992	 -2.140889	 -0.386379
H	 -1.360175	 -1.565062	 1.129462
C	 -3.489788	 0.042957	 0.286558
H	 -2.004885	 0.214982	 -1.259208
H	 -1.476978	 0.782158	 0.300172
C	 -4.216917	 1.317354	 -0.141063
H	 -4.025645	 -0.823308	 -0.095450
H	 -3.513059	 -0.038752	 1.371301
H	 -4.239342	 1.411634	 -1.223113
H	 -5.243387	 1.322503	 0.212445
H	 -3.726170	 2.201406	 0.256408

	symmetry c1
}
set optking {
	frozen_dihedral = ("
		20 16 19 22
	")
}

ee = optimize('scf')
oeprop('DIPOLE', 'QUADRUPOLE', 'MULLIKEN_CHARGES')
f=open( 'psi4out.xyz', 'w' )
f.write( "27  " )
f.write( str(ee) + "\n" )
f.write( MOL.save_string_xyz() )
f.close()
--------------------------------------------------------------------------

    Molecular point group: c1
  Charge       = 0
  Multiplicity = 1
  Basis Set: 6-31G*
  Basis Set:
  @DF-RHF Final Energy:  -388.28147336927788
    Total Energy =                       -388.2814733692782738
    Molecular point group: c1
  Basis Set: 6-31G*
  Basis Set:
  Basis Set: 6-31G*
  Basis Set:
  @DF-RHF Final Energy:  -388.28147584488175
    Total Energy =                       -388.2814758448814700
  Basis Set: 6-31G*
  Basis Set:
  Basis Set: 6-31G*
  Basis Set:
  @DF-RHF Final Energy:  -388.28150675815982
    Total Energy =                       -388.2815067581601625
  Basis Set: 6-31G*
  Basis Set:
  Basis Set: 6-31G*
  Basis Set:
  @DF-RHF Final Energy:  -388.28150554411036
    Total Energy =                       -388.2815055441099048
  Basis Set: 6-31G*
  Basis Set:
  Basis Set: 6-31G*
  Basis Set:
  @DF-RHF Final Energy:  -388.28151285379505
    Total Energy =                       -388.2815128537943110
  Basis Set: 6-31G*
  Basis Set:
  Charge       = 0
  Multiplicity = 1
  Basis Set: 6-31G*
  Basis Set:

    Orbital Energies (a.u.)
    -----------------------

    Doubly Occupied:

       1A    -20.552327     2A    -11.267077     3A    -11.219843
       4A    -11.217366     5A    -11.216122     6A    -11.215829
       7A    -11.215247     8A    -11.214299     9A    -11.209428
      10A     -1.359085    11A     -1.095211    12A     -1.061539
      13A     -1.011619    14A     -0.948536    15A     -0.888123
      16A     -0.820110    17A     -0.801483    18A     -0.778558
      19A     -0.693728    20A     -0.651321    21A     -0.639058
      22A     -0.614542    23A     -0.599300    24A     -0.583046
      25A     -0.580529    26A     -0.553154    27A     -0.541575
      28A     -0.530648    29A     -0.506310    30A     -0.493146
      31A     -0.484917    32A     -0.475278    33A     -0.468516
      34A     -0.461296    35A     -0.452036    36A     -0.441894
      37A     -0.422940

  @DF-RHF Final Energy:  -388.28151355403401

   => Energetics <=

    Nuclear Repulsion Energy =            459.5920740282968495
    One-Electron Energy =               -1437.1770977116261747
    Two-Electron Energy =                 589.3035101292955460
    DFT Exchange-Correlation Energy =       0.0000000000000000
    Empirical Dispersion Energy =           0.0000000000000000
    PCM Polarization Energy =               0.0000000000000000
    EFP Energy =                            0.0000000000000000
    Total Energy =                       -388.2815135540338360
    Molecular point group: c1
  Basis Set: 6-31G*
  Basis Set:

  -Total Gradient:
     Atom            X                  Y                   Z
    ------   -----------------  -----------------  -----------------
       1       -0.000009381202    -0.000001897171     0.000000654074
       2       -0.000002764213     0.000001669349     0.000000361463
       3        0.000003247617     0.000004454047    -0.000017613392
       4        0.000006605997     0.000009771005    -0.000002493941
       5        0.000003033876    -0.000000775724    -0.000000007102
       6       -0.000004000590    -0.000002704460    -0.000002315404
       7       -0.000004655565    -0.000008255215     0.000015001514
       8        0.000000089387    -0.000009303102    -0.000004605325
       9        0.000005253986     0.000004732051     0.000009464104
      10       -0.000014313945    -0.000003501347    -0.000001089097
      11        0.000004096162     0.000005206791     0.000006933031
      12       -0.000001944420    -0.000009318507     0.000015346187
      13       -0.000005062398     0.000007803950    -0.000027267206
      14       -0.000003459271     0.000002395342    -0.000000059006
      15       -0.000012798081    -0.000001744823    -0.000000599963
      16       -0.000381658434    -0.002147360702    -0.000777067239
      17        0.000006990383    -0.000014639715     0.000003313684
      18        0.000011608124     0.000009863895    -0.000004397169
      19        0.000562470671     0.001106853815     0.001407764373
      20        0.000172998086     0.001589595292     0.000304420746
      21        0.000020345727    -0.000013800532     0.000038633528
      22       -0.000365604475    -0.000533858712    -0.000976251049
      23        0.000019215170    -0.000015934827     0.000013660398
      24       -0.000003682390     0.000026669994     0.000006980701
      25       -0.000004969980    -0.000002553082    -0.000005830176
      26        0.000000869878     0.000001063344     0.000001583860
      27       -0.000002530106    -0.000004430962    -0.000004521595

  **** Optimization is complete! (in 6 steps) ****
    Final optimized geometry and variables:
    Molecular point group: c1

    Geometry (in Angstrom), charge = 0, multiplicity = 1:

    H            2.677360239588     1.833336928447     0.649218785782
    O            3.415223940005     1.523425038741     0.144646849954
    C            3.583914023040     0.143972457978     0.351121136108
    C            2.518442415499    -0.701584839875    -0.337732566233
    H            4.558966378498    -0.096736595362    -0.052574825659
    H            3.610653644578    -0.081505819912     1.416588249662
    C            1.101643839937    -0.471296457036     0.193757023548
    H            2.547041198154    -0.491137059310    -1.403683912056
    H            2.785204571456    -1.749859753957    -0.214027261381
    C            0.062820046209    -1.369578587509    -0.483618185222
    H            0.830869201277     0.570698997614     0.048080509163
    H            1.084104409686    -0.652684894415     1.268531975647
    C           -1.361551240640    -1.236787529354     0.067733185488
    H            0.055171946561    -1.165168065398    -1.552743977850
    H            0.378309751336    -2.405198506837    -0.375767770255
    C           -2.031904732890     0.113246503117    -0.197873888310
    H           -1.973611776462    -2.020155609703    -0.374151814839
    H           -1.351678096631    -1.430175039053     1.139428272750
    C           -3.474440661319     0.178462347220     0.310031676899
    H           -2.015720765216     0.326647063777    -1.265716394242
    H           -1.462719271661     0.911885016901     0.272374455546
    C           -4.200286277897     1.454676637477    -0.114355439202
    H           -4.025992279000    -0.682878647234    -0.061225172417
    H           -3.479364670733     0.097898136305     1.394844260252
    H           -4.256673812278     1.529615921015    -1.196488176476
    H           -5.214438834573     1.477971462608     0.272389462859
    H           -3.687391028747     2.340268875072     0.250864256929

  Mulliken Charges: (a.u.)
   Center  Symbol    Alpha    Beta     Spin     Total
       1     H     0.27991  0.27991  0.00000  0.44019
       2     O     4.37092  4.37092  0.00000 -0.74184
       3     C     2.99739  2.99739  0.00000  0.00523
       4     C     3.16094  3.16094  0.00000 -0.32188
       5     H     0.41443  0.41443  0.00000  0.17115
       6     H     0.43205  0.43205  0.00000  0.13591
       7     C     3.16322  3.16322  0.00000 -0.32645
       8     H     0.41496  0.41496  0.00000  0.17009
       9     H     0.42432  0.42432  0.00000  0.15136
      10     C     3.15216  3.15216  0.00000 -0.30432
      11     H     0.42299  0.42299  0.00000  0.15401
      12     H     0.42540  0.42540  0.00000  0.14920
      13     C     3.15348  3.15348  0.00000 -0.30696
      14     H     0.42155  0.42155  0.00000  0.15691
      15     H     0.42145  0.42145  0.00000  0.15710
      16     C     3.15267  3.15267  0.00000 -0.30533
      17     H     0.42109  0.42109  0.00000  0.15783
      18     H     0.42429  0.42429  0.00000  0.15141
      19     C     3.15120  3.15120  0.00000 -0.30239
      20     H     0.42357  0.42357  0.00000  0.15286
      21     H     0.42381  0.42381  0.00000  0.15238
      22     C     3.23926  3.23926  0.00000 -0.47852
      23     H     0.42321  0.42321  0.00000  0.15358
      24     H     0.42294  0.42294  0.00000  0.15413
      25     H     0.42129  0.42129  0.00000  0.15742
      26     H     0.41925  0.41925  0.00000  0.16151
      27     H     0.42228  0.42228  0.00000  0.15544

   Total alpha = 37.00000, Total beta = 37.00000, Total charge =  0.00000
