  ==> Input File <==

--------------------------------------------------------------------------
set {
	reference rhf
	basis 6-31G*
}

set_num_threads( 4 )
memory 2 gb

molecule MOL {
0 1

H	 -2.688201	 2.422888	 0.030132
O	 -1.995924	 1.825376	 -0.214073
C	 -2.306886	 0.532354	 0.237577
C	 -1.177863	 -0.397191	 -0.171080
H	 -2.424473	 0.522720	 1.320346
H	 -3.246152	 0.190834	 -0.195415
C	 0.198102	 0.111031	 0.262842
H	 -1.208843	 -0.518759	 -1.250427
H	 -1.368741	 -1.376554	 0.258909
C	 1.331804	 -0.827780	 -0.158768
H	 0.361943	 1.100838	 -0.156218
H	 0.217265	 0.229072	 1.345532
C	 2.723619	 -0.410569	 0.329459
H	 1.342964	 -0.912588	 -1.244120
H	 1.116806	 -1.824343	 0.220779
C	 3.243875	 0.895854	 -0.272975
H	 3.424222	 -1.207124	 0.091250
H	 2.714788	 -0.329854	 1.414619
H	 3.251977	 0.848779	 -1.358681
H	 2.637085	 1.747371	 0.016682
H	 4.259473	 1.094070	 0.055697

	symmetry c1
}
set optking {
	frozen_dihedral = ("
		2 3 4 8
	")
}

ee = optimize('scf')
oeprop('DIPOLE', 'QUADRUPOLE', 'MULLIKEN_CHARGES')
f=open( 'psi4out.xyz', 'w' )
f.write( "21  " )
f.write( str(ee) + "\n" )
f.write( MOL.save_string_xyz() )
f.close()
--------------------------------------------------------------------------

    Molecular point group: c1
  Charge       = 0
  Multiplicity = 1
  Basis Set: 6-31G*
  Basis Set:
  @DF-RHF Final Energy:  -310.21226611974117
    Total Energy =                       -310.2122661197413436
    Molecular point group: c1
  Basis Set: 6-31G*
  Basis Set:
  Basis Set: 6-31G*
  Basis Set:
  @DF-RHF Final Energy:  -310.21245922093101
    Total Energy =                       -310.2124592209307821
  Basis Set: 6-31G*
  Basis Set:
  Basis Set: 6-31G*
  Basis Set:
  @DF-RHF Final Energy:  -310.21255004238589
    Total Energy =                       -310.2125500423859421
  Basis Set: 6-31G*
  Basis Set:
  Basis Set: 6-31G*
  Basis Set:
  @DF-RHF Final Energy:  -310.21254266962541
    Total Energy =                       -310.2125426696253498
  Basis Set: 6-31G*
  Basis Set:
  Basis Set: 6-31G*
  Basis Set:
  @DF-RHF Final Energy:  -310.21255110997276
    Total Energy =                       -310.2125511099728783
  Basis Set: 6-31G*
  Basis Set:
  Basis Set: 6-31G*
  Basis Set:
  @DF-RHF Final Energy:  -310.21255314467408
    Total Energy =                       -310.2125531446739046
  Basis Set: 6-31G*
  Basis Set:
  Charge       = 0
  Multiplicity = 1
  Basis Set: 6-31G*
  Basis Set:

    Orbital Energies (a.u.)
    -----------------------

    Doubly Occupied:

       1A    -20.553141     2A    -11.268197     3A    -11.212192
       4A    -11.210444     5A    -11.208250     6A    -11.204964
       7A    -11.202697     8A     -1.359931     9A     -1.080090
      10A     -1.029177    11A     -0.952551    12A     -0.874671
      13A     -0.800635    14A     -0.772406    15A     -0.703606
      16A     -0.644153    17A     -0.623872    18A     -0.600363
      19A     -0.586215    20A     -0.561685    21A     -0.538913
      22A     -0.517432    23A     -0.499807    24A     -0.494851
      25A     -0.475927    26A     -0.455682    27A     -0.450276
      28A     -0.439874    29A     -0.428401

  @DF-RHF Final Energy:  -310.21255317037520

   => Energetics <=

    Nuclear Repulsion Energy =            317.7597186645894567
    One-Electron Energy =               -1050.4437395619925155
    Two-Electron Energy =                 422.4714677270277434
    DFT Exchange-Correlation Energy =       0.0000000000000000
    Empirical Dispersion Energy =           0.0000000000000000
    PCM Polarization Energy =               0.0000000000000000
    EFP Energy =                            0.0000000000000000
    Total Energy =                       -310.2125531703753722
    Molecular point group: c1
  Basis Set: 6-31G*
  Basis Set:

  -Total Gradient:
     Atom            X                  Y                   Z
    ------   -----------------  -----------------  -----------------
       1        0.000002261687    -0.000029564318     0.000002521868
       2        0.001093265615     0.000466770822     0.001883744887
       3       -0.001822657036    -0.001086499938    -0.002406666373
       4        0.002384671468     0.002993317410     0.000193880596
       5        0.000021106353    -0.000015837422     0.000001390730
       6        0.000003383722    -0.000041757498     0.000010442358
       7        0.000031468662     0.000030597883     0.000013957127
       8       -0.001675380593    -0.002289370474     0.000308259331
       9       -0.000014354804     0.000011179499     0.000003736354
      10       -0.000001557624     0.000000658335    -0.000024653410
      11       -0.000012639878    -0.000042879373     0.000011784810
      12       -0.000012678509     0.000013308432     0.000002465806
      13       -0.000015367178     0.000000856922     0.000015578713
      14        0.000009410032    -0.000010395218    -0.000014763109
      15       -0.000000970949    -0.000001305249     0.000000825192
      16        0.000001420280     0.000006271206    -0.000001497583
      17       -0.000009138319    -0.000001149899    -0.000003782481
      18        0.000009644061    -0.000001896257     0.000006614710
      19        0.000005283883     0.000001334454    -0.000001915584
      20        0.000003330660    -0.000006406332    -0.000004777556
      21       -0.000000501531     0.000002767008     0.000002853613

  **** Optimization is complete! (in 7 steps) ****
    Final optimized geometry and variables:
    Molecular point group: c1

    Geometry (in Angstrom), charge = 0, multiplicity = 1:

    H           -3.013475792005     2.107543405639     0.070378994182
    O           -2.301671440125     1.543702385012    -0.196409516356
    C           -2.551437442831     0.231259344144     0.239170566834
    C           -1.401650787070    -0.665848623506    -0.190808461289
    H           -2.645790425932     0.208644981331     1.324351925755
    H           -3.484279036500    -0.142416674965    -0.178742049344
    C           -0.026004982030    -0.169497132995     0.254515497762
    H           -1.432715631895    -0.787410854895    -1.270757787660
    H           -1.586696730506    -1.654561260651     0.226854409534
    C            1.098609535522    -1.125948530108    -0.150878823815
    H            0.143519108792     0.814527974487    -0.164107532540
    H           -0.023113351644    -0.050593829200     1.337593145664
    C            2.491894641211    -0.715562922303     0.339629020995
    H            1.116153126669    -1.222243669320    -1.235573371196
    H            0.875002939842    -2.117945254379     0.237456309481
    C            3.026535527682     0.577831676929    -0.278048304934
    H            3.187104112478    -1.521586476039     0.117044809203
    H            2.477153935468    -0.619146237237     1.423517517498
    H            3.044869601344     0.513088914579    -1.362713760572
    H            2.421568964393     1.436868564924    -0.008686948986
    H            4.040318253325     0.774725348172     0.057491430528

  Mulliken Charges: (a.u.)
   Center  Symbol    Alpha    Beta     Spin     Total
       1     H     0.28051  0.28051  0.00000  0.43898
       2     O     4.36959  4.36959  0.00000 -0.73918
       3     C     2.99609  2.99609  0.00000  0.00782
       4     C     3.16151  3.16151  0.00000 -0.32301
       5     H     0.43272  0.43272  0.00000  0.13456
       6     H     0.42931  0.42931  0.00000  0.14138
       7     C     3.15476  3.15476  0.00000 -0.30953
       8     H     0.41700  0.41700  0.00000  0.16601
       9     H     0.42462  0.42462  0.00000  0.15075
      10     C     3.15299  3.15299  0.00000 -0.30597
      11     H     0.40390  0.40390  0.00000  0.19220
      12     H     0.42735  0.42735  0.00000  0.14529
      13     C     3.15173  3.15173  0.00000 -0.30345
      14     H     0.42424  0.42424  0.00000  0.15152
      15     H     0.42483  0.42483  0.00000  0.15034
      16     C     3.24123  3.24123  0.00000 -0.48245
      17     H     0.42231  0.42231  0.00000  0.15539
      18     H     0.42421  0.42421  0.00000  0.15159
      19     H     0.42238  0.42238  0.00000  0.15524
      20     H     0.41804  0.41804  0.00000  0.16391
      21     H     0.42069  0.42069  0.00000  0.15863

   Total alpha = 29.00000, Total beta = 29.00000, Total charge = -0.00000
