  ==> Input File <==

--------------------------------------------------------------------------
set {
	reference rhf
	basis 6-31G*
}

set_num_threads( 4 )
memory 2 gb

molecule MOL {
0 1

H	 2.591676	 2.013956	 0.335017
O	 3.341076	 1.666752	 -0.126416
C	 3.569581	 0.339145	 0.272707
C	 2.570040	 -0.156663	 1.311851
H	 3.487392	 -0.256963	 -0.627056
H	 4.586600	 0.222985	 0.645481
C	 2.636035	 0.591580	 2.645509
H	 1.569561	 -0.072837	 0.895461
H	 2.755171	 -1.215983	 1.481956
C	 1.658663	 0.035153	 3.684717
H	 2.424789	 1.643647	 2.475521
H	 3.649729	 0.535295	 3.042492
C	 1.744137	 0.693676	 5.066521
H	 0.642534	 0.125859	 3.305111
H	 1.844957	 -1.030627	 3.799209
C	 1.316435	 2.163323	 5.107604
H	 1.115416	 0.130376	 5.752974
H	 2.761003	 0.603161	 5.445503
C	 1.318014	 2.745285	 6.522791
H	 0.318474	 2.258818	 4.682087
H	 1.973321	 2.761953	 4.481148
C	 0.897637	 4.213989	 6.565874
H	 0.651190	 2.160795	 7.153033
H	 2.311971	 2.641946	 6.953203
H	 -0.106096	 4.346210	 6.171843
H	 0.906874	 4.596560	 7.581841
H	 1.567663	 4.831530	 5.974204

	symmetry c1
}
set optking {
	frozen_dihedral = ("
		4 3 2 1
	")
}

ee = optimize('scf')
oeprop('DIPOLE', 'QUADRUPOLE', 'MULLIKEN_CHARGES')
f=open( 'psi4out.xyz', 'w' )
f.write( "27  " )
f.write( str(ee) + "\n" )
f.write( MOL.save_string_xyz() )
f.close()
--------------------------------------------------------------------------

    Molecular point group: c1
  Charge       = 0
  Multiplicity = 1
  Basis Set: 6-31G*
  Basis Set:
  @DF-RHF Final Energy:  -388.27825688212636
    Total Energy =                       -388.2782568821265841
    Molecular point group: c1
  Basis Set: 6-31G*
  Basis Set:
  Basis Set: 6-31G*
  Basis Set:
  @DF-RHF Final Energy:  -388.27870786198287
    Total Energy =                       -388.2787078619820704
  Basis Set: 6-31G*
  Basis Set:
  Basis Set: 6-31G*
  Basis Set:
  @DF-RHF Final Energy:  -388.27887378890318
    Total Energy =                       -388.2788737889026152
  Basis Set: 6-31G*
  Basis Set:
  Basis Set: 6-31G*
  Basis Set:
  @DF-RHF Final Energy:  -388.27888341665380
    Total Energy =                       -388.2788834166540255
  Basis Set: 6-31G*
  Basis Set:
  Basis Set: 6-31G*
  Basis Set:
  @DF-RHF Final Energy:  -388.27888557214754
    Total Energy =                       -388.2788855721476011
  Basis Set: 6-31G*
  Basis Set:
  Charge       = 0
  Multiplicity = 1
  Basis Set: 6-31G*
  Basis Set:

    Orbital Energies (a.u.)
    -----------------------

    Doubly Occupied:

       1A    -20.548374     2A    -11.266144     3A    -11.224683
       4A    -11.223071     5A    -11.220218     6A    -11.217418
       7A    -11.216895     8A    -11.215670     9A    -11.209914
      10A     -1.355764    11A     -1.097871    12A     -1.064137
      13A     -1.013640    14A     -0.949607    15A     -0.889669
      16A     -0.825829    17A     -0.806041    18A     -0.781055
      19A     -0.662478    20A     -0.656894    21A     -0.649058
      22A     -0.626872    23A     -0.607145    24A     -0.585549
      25A     -0.575858    26A     -0.564137    27A     -0.540196
      28A     -0.527955    29A     -0.510205    30A     -0.491991
      31A     -0.488498    32A     -0.479592    33A     -0.467960
      34A     -0.462252    35A     -0.448703    36A     -0.442498
      37A     -0.426051

  @DF-RHF Final Energy:  -388.27888491345084

   => Energetics <=

    Nuclear Repulsion Energy =            459.7136242451282442
    One-Electron Energy =               -1437.3052399161542780
    Two-Electron Energy =                 589.3127307575750820
    DFT Exchange-Correlation Energy =       0.0000000000000000
    Empirical Dispersion Energy =           0.0000000000000000
    PCM Polarization Energy =               0.0000000000000000
    EFP Energy =                            0.0000000000000000
    Total Energy =                       -388.2788849134509519
    Molecular point group: c1
  Basis Set: 6-31G*
  Basis Set:

  -Total Gradient:
     Atom            X                  Y                   Z
    ------   -----------------  -----------------  -----------------
       1        0.000389296833     0.000250179367     0.000496354595
       2       -0.000611113937    -0.000371086778    -0.000749842662
       3        0.000480517868     0.000260637371     0.000572747443
       4       -0.000255057742    -0.000155677481    -0.000297890092
       5       -0.000002016269     0.000024768522    -0.000004872273
       6        0.000013846944    -0.000013255153    -0.000007830535
       7       -0.000031852737    -0.000009065445     0.000017205265
       8        0.000001055223    -0.000002080939    -0.000034108094
       9       -0.000014830812     0.000002503873     0.000016696818
      10       -0.000009299641     0.000038906183    -0.000001039777
      11        0.000003422899    -0.000055102287    -0.000030983228
      12        0.000028114582     0.000013894849     0.000003055358
      13        0.000021866477     0.000003181497    -0.000007222954
      14       -0.000001361107     0.000014012438    -0.000006129546
      15       -0.000016248978    -0.000001895501     0.000001990795
      16        0.000011178168     0.000009433176     0.000009491082
      17        0.000016206307    -0.000008494082     0.000007348247
      18        0.000012165623     0.000014256196    -0.000017651758
      19       -0.000019228576    -0.000009131694     0.000001441529
      20        0.000001128763     0.000001692095    -0.000014210953
      21       -0.000009953569    -0.000005545905     0.000043240296
      22       -0.000007829405    -0.000002454875     0.000000381351
      23        0.000001442295    -0.000001494450     0.000008091412
      24       -0.000000972193     0.000002174044    -0.000006418438
      25       -0.000000160954     0.000001953236     0.000000108742
      26       -0.000000920068    -0.000000272697     0.000000431038
      27        0.000000604003    -0.000002035558    -0.000000383673

  **** Optimization is complete! (in 6 steps) ****
    Final optimized geometry and variables:
    Molecular point group: c1

    Geometry (in Angstrom), charge = 0, multiplicity = 1:

    H            0.399923404150     0.612916570529    -3.122240354596
    O            1.162664159825     0.271019541198    -3.563130725831
    C            1.440071887709    -1.037372045372    -3.124661955400
    C            0.461879114943    -1.554517459363    -2.075932425831
    H            1.421007148850    -1.692275858782    -3.990128753544
    H            2.450489270338    -1.054979890352    -2.726384282826
    C            0.515448975362    -0.799466893691    -0.743834354448
    H           -0.546705073074    -1.515215405386    -2.486356598946
    H            0.678226833994    -2.605705056230    -1.900681560661
    C           -0.480236072875    -1.345387170126     0.283211575324
    H            0.328444568281     0.257929465267    -0.910478757979
    H            1.524231032148    -0.865901164412    -0.340477533945
    C           -0.395034936370    -0.694870375008     1.668816240311
    H           -1.492676126669    -1.237546318621    -0.102841503715
    H           -0.312103000040    -2.414625341585     0.394052616139
    C           -0.804490104120     0.779819491461     1.714359576032
    H           -1.034790715676    -1.253867586913     2.348442985736
    H            0.618356014116    -0.799826216879     2.052743541744
    C           -0.808879885509     1.353415521171     3.132955516657
    H           -1.797666915222     0.890211511752     1.280731153740
    H           -0.133910141829     1.373557979393     1.098002622612
    C           -1.213365226816     2.826391775373     3.180857460142
    H           -1.487451132698     0.772606865044     3.754018440940
    H            0.180218677628     1.236755479937     3.570848727081
    H           -2.212392841700     2.971963384236     2.779508604455
    H           -1.208387349836     3.202933329471     4.199058863641
    H           -0.531551076708     3.439661662778     2.598410671212

  Mulliken Charges: (a.u.)
   Center  Symbol    Alpha    Beta     Spin     Total
       1     H     0.27831  0.27831  0.00000  0.44338
       2     O     4.37911  4.37911  0.00000 -0.75821
       3     C     2.97442  2.97442  0.00000  0.05116
       4     C     3.18878  3.18878  0.00000 -0.37755
       5     H     0.42307  0.42307  0.00000  0.15386
       6     H     0.42600  0.42600  0.00000  0.14800
       7     C     3.15611  3.15611  0.00000 -0.31223
       8     H     0.42027  0.42027  0.00000  0.15947
       9     H     0.41682  0.41682  0.00000  0.16637
      10     C     3.15276  3.15276  0.00000 -0.30551
      11     H     0.42442  0.42442  0.00000  0.15115
      12     H     0.41918  0.41918  0.00000  0.16164
      13     C     3.15341  3.15341  0.00000 -0.30681
      14     H     0.42361  0.42361  0.00000  0.15278
      15     H     0.42099  0.42099  0.00000  0.15802
      16     C     3.15333  3.15333  0.00000 -0.30667
      17     H     0.42102  0.42102  0.00000  0.15796
      18     H     0.42295  0.42295  0.00000  0.15410
      19     C     3.15125  3.15125  0.00000 -0.30250
      20     H     0.42495  0.42495  0.00000  0.15010
      21     H     0.42193  0.42193  0.00000  0.15613
      22     C     3.23937  3.23937  0.00000 -0.47875
      23     H     0.42294  0.42294  0.00000  0.15411
      24     H     0.42258  0.42258  0.00000  0.15484
      25     H     0.42193  0.42193  0.00000  0.15615
      26     H     0.41896  0.41896  0.00000  0.16208
      27     H     0.42152  0.42152  0.00000  0.15695

   Total alpha = 37.00000, Total beta = 37.00000, Total charge =  0.00000
