  ==> Input File <==

--------------------------------------------------------------------------
set {
	reference rhf
	basis cc-pvtz
}

set_num_threads( 4 )
memory 2 gb

molecule MOL {
0 1

H	 -1.752232	 -2.214755	 -0.011938
C	 -1.343852	 -1.221619	 -0.018179
N	 -0.058800	 -1.097635	 -0.261688
C	 -2.148159	 -0.124236	 0.219734
C	 0.449026	 0.119242	 -0.273393
H	 -3.196988	 -0.237571	 0.417076
N	 -1.655094	 1.094230	 0.209506
C	 -0.370318	 1.215445	 -0.035100
C	 1.924033	 0.265863	 -0.538106
H	 0.033214	 2.210441	 -0.046812
C	 2.571501	 1.353795	 0.320171
H	 2.400172	 -0.685361	 -0.332615
H	 2.080826	 0.483736	 -1.587944
H	 3.636274	 1.405939	 0.126593
H	 2.426580	 1.145668	 1.372150
H	 2.143037	 2.326462	 0.105966

	symmetry c1
}
set optking {
	frozen_dihedral = ("
		12 9 5 3
	")
}

ee = optimize('scf')
oeprop('DIPOLE', 'QUADRUPOLE', 'MULLIKEN_CHARGES')
f=open( 'psi4out.xyz', 'w' )
f.write( "16  " )
f.write( str(ee) + "\n" )
f.write( MOL.save_string_xyz() )
f.close()
--------------------------------------------------------------------------

    Molecular point group: c1
  Charge       = 0
  Multiplicity = 1
  Basis Set: CC-PVTZ
  Basis Set:
  @DF-RHF Final Energy:  -340.86922824076629
    Total Energy =                       -340.8692282407660059
    Molecular point group: c1
  Basis Set: CC-PVTZ
  Basis Set:
  Basis Set: CC-PVTZ
  Basis Set:
  @DF-RHF Final Energy:  -340.86972233946699
    Total Energy =                       -340.8697223394672164
  Basis Set: CC-PVTZ
  Basis Set:
  Basis Set: CC-PVTZ
  Basis Set:
  @DF-RHF Final Energy:  -340.87006540278963
    Total Energy =                       -340.8700654027890664
  Basis Set: CC-PVTZ
  Basis Set:
  Basis Set: CC-PVTZ
  Basis Set:
  @DF-RHF Final Energy:  -340.87008468058883
    Total Energy =                       -340.8700846805890592
  Basis Set: CC-PVTZ
  Basis Set:
  Basis Set: CC-PVTZ
  Basis Set:
  @DF-RHF Final Energy:  -340.87009436019150
    Total Energy =                       -340.8700943601912741
  Basis Set: CC-PVTZ
  Basis Set:
  Charge       = 0
  Multiplicity = 1
  Basis Set: CC-PVTZ
  Basis Set:

    Orbital Energies (a.u.)
    -----------------------

    Doubly Occupied:

       1A    -15.580066     2A    -15.575092     3A    -11.279309
       4A    -11.271203     5A    -11.268113     6A    -11.266858
       7A    -11.231770     8A    -11.221653     9A     -1.315310
      10A     -1.223105    11A     -1.086539    12A     -1.016467
      13A     -0.908378    14A     -0.894829    15A     -0.831731
      16A     -0.716645    17A     -0.712990    18A     -0.655383
      19A     -0.624295    20A     -0.609611    21A     -0.576320
      22A     -0.566055    23A     -0.522377    24A     -0.512484
      25A     -0.506384    26A     -0.483755    27A     -0.432804
      28A     -0.397314    29A     -0.346388

  @DF-RHF Final Energy:  -340.87009516538052

   => Energetics <=

    Nuclear Repulsion Energy =            349.9258618857676879
    One-Electron Energy =               -1154.3254596979654707
    Two-Electron Energy =                 463.5295026468176047
    DFT Exchange-Correlation Energy =       0.0000000000000000
    Empirical Dispersion Energy =           0.0000000000000000
    PCM Polarization Energy =               0.0000000000000000
    EFP Energy =                            0.0000000000000000
    Total Energy =                       -340.8700951653801212
    Molecular point group: c1
  Basis Set: CC-PVTZ
  Basis Set:

  -Total Gradient:
     Atom            X                  Y                   Z
    ------   -----------------  -----------------  -----------------
       1       -0.000017195801     0.000000785310    -0.000020808419
       2        0.000215906561    -0.000076382377     0.000061338273
       3       -0.000260516038    -0.000115344300    -0.000390352470
       4       -0.000013450824     0.000225018360     0.000012935719
       5        0.000101506941     0.000199036746     0.000574276874
       6       -0.000003697704    -0.000008406018    -0.000012612893
       7       -0.000181221324    -0.000137465914     0.000034582438
       8        0.000194400744    -0.000067786146    -0.000106445927
       9       -0.000131183743    -0.000102671979    -0.000574240279
      10        0.000000685784    -0.000009639017     0.000039503992
      11        0.000023534991    -0.000020184276     0.000010201330
      12        0.000060822644     0.000111646536     0.000388476117
      13        0.000010861919    -0.000018337138    -0.000022108090
      14        0.000009105336     0.000021150751     0.000007013028
      15        0.000013481746     0.000010397007    -0.000000747549
      16       -0.000023041233    -0.000011817542    -0.000001012143

  **** Optimization is complete! (in 6 steps) ****
    Final optimized geometry and variables:
    Molecular point group: c1

    Geometry (in Angstrom), charge = 0, multiplicity = 1:

    H           -1.703519903537    -2.450602404228     0.000664835948
    C           -1.312022764106    -1.450864633940     0.007026141480
    N           -0.020864591162    -1.306681315777    -0.202576003484
    C           -2.136286309914    -0.368717990779     0.227702364446
    C            0.473371216708    -0.085769536654    -0.195049914690
    H           -3.188145934586    -0.495610125785     0.397997862742
    N           -1.657794814417     0.857538755532     0.236697285848
    C           -0.370432838304     0.998790164160     0.028718071862
    C            1.950972652969     0.063855876932    -0.470371091989
    H            0.011058799016     2.000778567431     0.037822162415
    C            2.666163464377     1.143262518387     0.340119549676
    H            2.403796262951    -0.898876333764    -0.278704701181
    H            2.083767592848     0.261493776887    -1.530389486529
    H            3.728065573105     1.119662381757     0.128494678871
    H            2.534242567936     0.986571723626     1.404444093601
    H            2.311923802218     2.138452924515     0.102072955433

  Mulliken Charges: (a.u.)
   Center  Symbol    Alpha    Beta     Spin     Total
       1     H     0.41390  0.41390  0.00000  0.17220
       2     C     3.04161  3.04161  0.00000 -0.08322
       3     N     3.59075  3.59075  0.00000 -0.18149
       4     C     3.04790  3.04790  0.00000 -0.09579
       5     C     2.95434  2.95434  0.00000  0.09131
       6     H     0.41379  0.41379  0.00000  0.17243
       7     N     3.58827  3.58827  0.00000 -0.17654
       8     C     3.07315  3.07315  0.00000 -0.14630
       9     C     3.07340  3.07340  0.00000 -0.14679
      10     H     0.41410  0.41410  0.00000  0.17180
      11     C     3.15326  3.15326  0.00000 -0.30653
      12     H     0.44111  0.44111  0.00000  0.11779
      13     H     0.44673  0.44673  0.00000  0.10655
      14     H     0.44530  0.44530  0.00000  0.10941
      15     H     0.44759  0.44759  0.00000  0.10482
      16     H     0.45481  0.45481  0.00000  0.09037

   Total alpha = 29.00000, Total beta = 29.00000, Total charge = -0.00000
