  ==> Input File <==

--------------------------------------------------------------------------
set {
	reference rhf
	basis 6-31G*
}

set_num_threads( 1 )
memory 2 gb

molecule MOL {
0 1

O	 -0.314731	 0.305757	 0.868785
C	 0.486307	 0.169203	 0.000779
C	 1.608116	 -0.841643	 0.000302
O	 0.500004	 0.904193	 -1.102494
C	 2.990107	 -0.200498	 -0.000684
H	 1.468623	 -1.481519	 -0.865924
H	 1.469683	 -1.481289	 0.866878
H	 3.129736	 0.423364	 -0.875135
H	 3.757882	 -0.966877	 -0.001197
H	 3.130964	 0.423383	 0.873533
C	 -0.504554	 1.903947	 -1.239440
C	 -0.275877	 2.598451	 -2.565216
H	 -0.431414	 2.593203	 -0.409282
H	 -1.477724	 1.434148	 -1.196779
H	 0.704998	 3.059111	 -2.594087
H	 -1.023018	 3.371908	 -2.710795
H	 -0.347078	 1.893801	 -3.385981

	symmetry c1
}
set optking {
	frozen_dihedral = ("
		2 4 11 13,
		11 4 2 3
	")
}

ee = energy('scf')
oeprop('DIPOLE', 'QUADRUPOLE', 'MULLIKEN_CHARGES')
f=open( 'psi4out.xyz', 'w' )
f.write( "17  " )
f.write( str(ee) + "\n" )
f.write( MOL.save_string_xyz() )
f.close()
--------------------------------------------------------------------------

    Molecular point group: c1

    Geometry (in Angstrom), charge = 0, multiplicity = 1:

       Center              X                  Y                   Z               Mass
    ------------   -----------------  -----------------  -----------------  -----------------
           O         -0.952310453653    -0.402087531816     1.454361028826    15.994914619560
           C         -0.151272453653    -0.538641531816     0.586355028826    12.000000000000
           C          0.970536546347    -1.549487531816     0.585878028826    12.000000000000
           O         -0.137575453653     0.196348468184    -0.516917971174    15.994914619560
           C          2.352527546347    -0.908342531816     0.584892028826    12.000000000000
           H          0.831043546347    -2.189363531816    -0.280347971174     1.007825032070
           H          0.832103546347    -2.189133531816     1.452454028826     1.007825032070
           H          2.492156546347    -0.284480531816    -0.289558971174     1.007825032070
           H          3.120302546347    -1.674721531816     0.584379028826     1.007825032070
           H          2.493384546347    -0.284461531816     1.459109028826     1.007825032070
           C         -1.142133453653     1.196102468184    -0.653863971174    12.000000000000
           C         -0.913456453653     1.890606468184    -1.979639971174    12.000000000000
           H         -1.068993453653     1.885358468184     0.176294028826     1.007825032070
           H         -2.115303453653     0.726303468184    -0.611202971174     1.007825032070
           H          0.067418546347     2.351266468184    -2.008510971174     1.007825032070
           H         -1.660597453653     2.664063468184    -2.125218971174     1.007825032070
           H         -0.984657453653     1.185956468184    -2.800404971174     1.007825032070

  Charge       = 0
  Multiplicity = 1
  Basis Set: 6-31G*
  Basis Set:

    Orbital Energies (a.u.)
    -----------------------

    Doubly Occupied:

       1A    -20.601567     2A    -20.543198     3A    -11.370422
       4A    -11.284973     5A    -11.236246     6A    -11.224934
       7A    -11.222674     8A     -1.467438     9A     -1.360984
      10A     -1.073988    11A     -1.030899    12A     -0.907779
      13A     -0.856743    14A     -0.777767    15A     -0.692694
      16A     -0.679399    17A     -0.671009    18A     -0.618359
      19A     -0.592823    20A     -0.574021    21A     -0.553344
      22A     -0.543390    23A     -0.527915    24A     -0.507572
      25A     -0.503675    26A     -0.496481    27A     -0.451864
      28A     -0.431155

  @DF-RHF Final Energy:  -344.91016158165615

   => Energetics <=

    Nuclear Repulsion Energy =            317.1805773762062586
    One-Electron Energy =               -1098.5749535329628088
    Two-Electron Energy =                 436.4842145751006797
    DFT Exchange-Correlation Energy =       0.0000000000000000
    Empirical Dispersion Energy =           0.0000000000000000
    PCM Polarization Energy =               0.0000000000000000
    EFP Energy =                            0.0000000000000000
    Total Energy =                       -344.9101615816559274

  Mulliken Charges: (a.u.)
   Center  Symbol    Alpha    Beta     Spin     Total
       1     O     4.28551  4.28551  0.00000 -0.57102
       2     C     2.61379  2.61379  0.00000  0.77242
       3     C     3.19601  3.19601  0.00000 -0.39203
       4     O     4.30899  4.30899  0.00000 -0.61797
       5     C     3.24917  3.24917  0.00000 -0.49835
       6     H     0.40429  0.40429  0.00000  0.19142
       7     H     0.39932  0.39932  0.00000  0.20136
       8     H     0.40699  0.40699  0.00000  0.18601
       9     H     0.41253  0.41253  0.00000  0.17494
      10     H     0.41216  0.41216  0.00000  0.17567
      11     C     3.00225  3.00225  0.00000 -0.00449
      12     C     3.24862  3.24862  0.00000 -0.49725
      13     H     0.41014  0.41014  0.00000  0.17972
      14     H     0.41003  0.41003  0.00000  0.17995
      15     H     0.41218  0.41218  0.00000  0.17564
      16     H     0.41615  0.41615  0.00000  0.16770
      17     H     0.41186  0.41186  0.00000  0.17628

   Total alpha = 28.00000, Total beta = 28.00000, Total charge =  0.00000
