  ==> Input File <==

--------------------------------------------------------------------------
set {
	reference rhf
	basis 6-31G*
}

set_num_threads( 4 )
memory 2 gb

molecule MOL {
0 1

H	 -2.333605	 1.154460	 3.784137
O	 -1.630977	 0.588395	 3.498149
C	 -1.338746	 0.843401	 2.148273
C	 -0.209899	 -0.079659	 1.724700
H	 -2.216089	 0.669120	 1.526820
H	 -1.042484	 1.882372	 2.010046
C	 0.198102	 0.111031	 0.262842
H	 -0.525127	 -1.105553	 1.894704
H	 0.640178	 0.097910	 2.377628
C	 1.331804	 -0.827780	 -0.158768
H	 -0.669147	 -0.046627	 -0.373707
H	 0.511761	 1.142070	 0.104428
C	 2.723619	 -0.410569	 0.329459
H	 1.342964	 -0.912588	 -1.244120
H	 1.116806	 -1.824343	 0.220779
C	 3.243875	 0.895854	 -0.272975
H	 3.424222	 -1.207124	 0.091250
H	 2.714788	 -0.329854	 1.414619
H	 3.251977	 0.848779	 -1.358681
H	 2.637085	 1.747371	 0.016682
H	 4.259473	 1.094070	 0.055697

	symmetry c1
}
set optking {
	frozen_dihedral = ("
		4 7 10 14
	")
}

ee = optimize('scf')
oeprop('DIPOLE', 'QUADRUPOLE', 'MULLIKEN_CHARGES')
f=open( 'psi4out.xyz', 'w' )
f.write( "21  " )
f.write( str(ee) + "\n" )
f.write( MOL.save_string_xyz() )
f.close()
--------------------------------------------------------------------------

    Molecular point group: c1
  Charge       = 0
  Multiplicity = 1
  Basis Set: 6-31G*
  Basis Set:
  @DF-RHF Final Energy:  -310.21035849159983
    Total Energy =                       -310.2103584916002319
    Molecular point group: c1
  Basis Set: 6-31G*
  Basis Set:
  Basis Set: 6-31G*
  Basis Set:
  @DF-RHF Final Energy:  -310.21052427853101
    Total Energy =                       -310.2105242785310111
  Basis Set: 6-31G*
  Basis Set:
  Basis Set: 6-31G*
  Basis Set:
  @DF-RHF Final Energy:  -310.21069194553894
    Total Energy =                       -310.2106919455387128
  Basis Set: 6-31G*
  Basis Set:
  Basis Set: 6-31G*
  Basis Set:
  @DF-RHF Final Energy:  -310.21076336572963
    Total Energy =                       -310.2107633657295764
  Basis Set: 6-31G*
  Basis Set:
  Charge       = 0
  Multiplicity = 1
  Basis Set: 6-31G*
  Basis Set:

    Orbital Energies (a.u.)
    -----------------------

    Doubly Occupied:

       1A    -20.551940     2A    -11.267153     3A    -11.215774
       4A    -11.214356     5A    -11.213682     6A    -11.210434
       7A    -11.207710     8A     -1.358714     9A     -1.085532
      10A     -1.031028    11A     -0.955152    12A     -0.874878
      13A     -0.816795    14A     -0.769317    15A     -0.690637
      16A     -0.659382    17A     -0.625564    18A     -0.613804
      19A     -0.573350    20A     -0.563555    21A     -0.552592
      22A     -0.525061    23A     -0.499156    24A     -0.491243
      25A     -0.480858    26A     -0.456887    27A     -0.449646
      28A     -0.446571    29A     -0.433912

  @DF-RHF Final Energy:  -310.21076400358425

   => Energetics <=

    Nuclear Repulsion Energy =            316.3388845590505980
    One-Electron Energy =               -1047.4299244966482547
    Two-Electron Energy =                 420.8802759340133548
    DFT Exchange-Correlation Energy =       0.0000000000000000
    Empirical Dispersion Energy =           0.0000000000000000
    PCM Polarization Energy =               0.0000000000000000
    EFP Energy =                            0.0000000000000000
    Total Energy =                       -310.2107640035843019
    Molecular point group: c1
  Basis Set: 6-31G*
  Basis Set:

  -Total Gradient:
     Atom            X                  Y                   Z
    ------   -----------------  -----------------  -----------------
       1       -0.000010664395    -0.000006312456     0.000035434640
       2       -0.000064226273     0.000027958511     0.000039963617
       3        0.000045993822    -0.000039618781     0.000027762899
       4       -0.001058326322    -0.001013195142    -0.000499016012
       5        0.000011587536     0.000000026622    -0.000004426141
       6        0.000003323643    -0.000006457501    -0.000011416350
       7        0.001135135475     0.001041050987     0.000607184926
       8        0.000011188177     0.000005371938    -0.000005900467
       9       -0.000019117330     0.000018501766    -0.000013231051
      10        0.001214372492     0.001593324925    -0.000278775889
      11       -0.000026036074     0.000045835651     0.000025495814
      12        0.000025390888     0.000022765317     0.000018596220
      13       -0.000032431909     0.000007313899    -0.000018298509
      14       -0.001262544394    -0.001669710072     0.000087020056
      15        0.000016395970    -0.000014549214     0.000011780360
      16        0.000028480415    -0.000031549347    -0.000022531588
      17        0.000011239997     0.000036916711    -0.000011366618
      18       -0.000022645421    -0.000022151930     0.000014025860
      19       -0.000002380887     0.000018357548    -0.000005334534
      20       -0.000011761633    -0.000022675434     0.000010833077
      21        0.000007026228     0.000008796000    -0.000007800314

  **** Optimization is complete! (in 5 steps) ****
    Final optimized geometry and variables:
    Molecular point group: c1

    Geometry (in Angstrom), charge = 0, multiplicity = 1:

    H           -2.958257433982     0.943940548439     2.651521499478
    O           -2.243218865000     0.388778944072     2.375012180809
    C           -1.935308695899     0.649643686657     1.029660121971
    C           -0.788382779018    -0.257769824603     0.620517085912
    H           -2.801407032339     0.464760923627     0.395599449996
    H           -1.651095212418     1.692714764348     0.897059821606
    C           -0.373670589734    -0.062975197917    -0.840102134956
    H           -1.092159027003    -1.287970141433     0.784083339010
    H            0.045564898791    -0.068243509022     1.289528527093
    C            0.768244824015    -0.988073830217    -1.287084917709
    H           -1.237909480394    -0.257092889532    -1.472312972284
    H           -0.105755114051     0.976265162154    -1.013563749190
    C            2.172178622110    -0.596462782291    -0.808813950325
    H            0.767635606120    -1.054190738191    -2.373051967204
    H            0.549659692688    -1.994142517943    -0.934776218479
    C            2.715740546047     0.690568221161    -1.432166477806
    H            2.851585038515    -1.410647208938    -1.048578662298
    H            2.183558025551    -0.507288532972     0.274421677589
    H            2.725336614632     0.624630587811    -2.516793164470
    H            2.123793326327     1.558083403605    -1.159562416414
    H            3.733745162439     0.877164611903    -1.104097434224

  Mulliken Charges: (a.u.)
   Center  Symbol    Alpha    Beta     Spin     Total
       1     H     0.28116  0.28116  0.00000  0.43768
       2     O     4.37185  4.37185  0.00000 -0.74370
       3     C     2.98956  2.98956  0.00000  0.02088
       4     C     3.16049  3.16049  0.00000 -0.32097
       5     H     0.43284  0.43284  0.00000  0.13433
       6     H     0.43301  0.43301  0.00000  0.13399
       7     C     3.16364  3.16364  0.00000 -0.32729
       8     H     0.41481  0.41481  0.00000  0.17039
       9     H     0.41372  0.41372  0.00000  0.17257
      10     C     3.15447  3.15447  0.00000 -0.30895
      11     H     0.42177  0.42177  0.00000  0.15647
      12     H     0.42156  0.42156  0.00000  0.15687
      13     C     3.15419  3.15419  0.00000 -0.30838
      14     H     0.42196  0.42196  0.00000  0.15609
      15     H     0.42088  0.42088  0.00000  0.15823
      16     C     3.24047  3.24047  0.00000 -0.48093
      17     H     0.42061  0.42061  0.00000  0.15877
      18     H     0.42040  0.42040  0.00000  0.15921
      19     H     0.42228  0.42228  0.00000  0.15544
      20     H     0.42130  0.42130  0.00000  0.15740
      21     H     0.41904  0.41904  0.00000  0.16192

   Total alpha = 29.00000, Total beta = 29.00000, Total charge = -0.00000
