                              Psi4 1.0.54 Driver

  ==> Input File <==

--------------------------------------------------------------------------
set {
	reference rhf
	basis cc-pvtz
}

set_num_threads( 4 )
memory 2 gb

molecule MOL {
0 1

O	 2.005112	 1.769530	 0.579174
C	 0.928929	 1.441127	 0.168444
C	 -0.150242	 2.482641	 -0.044793
N	 0.622280	 0.144970	 -0.099307
H	 -1.027046	 2.270578	 0.554031
H	 0.259074	 3.435252	 0.247587
H	 -0.454711	 2.528458	 -1.083144
C	 1.664396	 -0.854993	 0.000772
C	 -0.570364	 -0.274299	 -0.796135
H	 2.462727	 -0.615153	 -0.690869
H	 1.261798	 -1.821849	 -0.240651
H	 2.081615	 -0.891605	 1.003877
H	 -0.878987	 -1.242192	 -0.422545
H	 -1.385803	 0.410495	 -0.637984
H	 -0.403080	 -0.368676	 -1.866721

	symmetry c1
}
set optking {
	frozen_dihedral = ("
		2 4 8 10
	")
}

ee,wfn = optimize('scf', return_wfn=True)
oeprop( wfn, 'DIPOLE', 'QUADRUPOLE', 'MULLIKEN_CHARGES')
f=open( 'psi4out.xyz', 'w' )
f.write( "15  " )
f.write( str(ee) + "\n" )
f.write( MOL.save_string_xyz() )
f.close()
--------------------------------------------------------------------------

    Molecular point group: c1
  Charge       = 0
  Multiplicity = 1
  Basis Set: CC-PVTZ
  Basis Set:
  @DF-RHF Final Energy:  -286.13413857616968
    Total Energy =                       -286.1341385761701304
    Molecular point group: c1
  Basis Set: CC-PVTZ
  Basis Set:
  Basis Set: CC-PVTZ
  Basis Set:
  @DF-RHF Final Energy:  -286.13480692819007
    Total Energy =                       -286.1348069281900166
  Basis Set: CC-PVTZ
  Basis Set:
  Basis Set: CC-PVTZ
  Basis Set:
  @DF-RHF Final Energy:  -286.13481091470464
    Total Energy =                       -286.1348109147048717
  Basis Set: CC-PVTZ
  Basis Set:
  Basis Set: CC-PVTZ
  Basis Set:
  @DF-RHF Final Energy:  -286.13489501981292
    Total Energy =                       -286.1348950198131433
  Basis Set: CC-PVTZ
  Basis Set:
  Basis Set: CC-PVTZ
  Basis Set:
  @DF-RHF Final Energy:  -286.13491979094124
    Total Energy =                       -286.1349197909410691
  Basis Set: CC-PVTZ
  Basis Set:
  Basis Set: CC-PVTZ
  Basis Set:
  @DF-RHF Final Energy:  -286.13492141245285
    Total Energy =                       -286.1349214124525702
  Basis Set: CC-PVTZ
  Basis Set:
  Charge       = 0
  Multiplicity = 1
  Basis Set: CC-PVTZ
  Basis Set:

    Orbital Energies (a.u.)
    -----------------------

    Doubly Occupied:

       1A    -20.503601     2A    -15.577278     3A    -11.332573
       4A    -11.264639     5A    -11.247240     6A    -11.226420
       7A     -1.387403     8A     -1.244065     9A     -1.014450
      10A     -0.974147    11A     -0.919645    12A     -0.738324
      13A     -0.681583    14A     -0.660081    15A     -0.653551
      16A     -0.588134    17A     -0.576802    18A     -0.570706
      19A     -0.566234    20A     -0.547134    21A     -0.531570
      22A     -0.501807    23A     -0.413905    24A     -0.370197

  @DF-RHF Final Energy:  -286.13492221429954

   => Energetics <=

    Nuclear Repulsion Energy =            253.1012950638330210
    One-Electron Energy =                -890.2894579550568324
    Two-Electron Energy =                 351.0532406769243039
    DFT Exchange-Correlation Energy =       0.0000000000000000
    Empirical Dispersion Energy =           0.0000000000000000
    PCM Polarization Energy =               0.0000000000000000
    EFP Energy =                            0.0000000000000000
    Total Energy =                       -286.1349222142994790
    Molecular point group: c1
  Basis Set: CC-PVTZ
  Basis Set:

  -Total Gradient:
     Atom            X                  Y                   Z
    ------   -----------------  -----------------  -----------------
       1       -0.000021559782    -0.000032558226     0.000031584471
       2        0.000205966075     0.000122345629    -0.000903491638
       3        0.000010932786    -0.000018609465    -0.000022534235
       4       -0.000149402861    -0.000018096994     0.001424086254
       5       -0.000007703207    -0.000003971348     0.000008208270
       6        0.000002534653     0.000003998469     0.000005057515
       7       -0.000005993576    -0.000012078501     0.000014527923
       8       -0.000461658649    -0.000632923437    -0.001248574025
       9        0.000008440294     0.000019540303     0.000008732730
      10        0.000480603372     0.000542705382     0.000715531498
      11        0.000001598452     0.000025599707     0.000004154755
      12       -0.000015677197     0.000004540378    -0.000008939672
      13       -0.000005749399     0.000000144338    -0.000013730443
      14       -0.000020460263    -0.000002116059     0.000018772420
      15       -0.000021870697     0.000001479826    -0.000033385819

  **** Optimization is complete! (in 7 steps) ****
    Final optimized geometry and variables:
    Molecular point group: c1

    Geometry (in Angstrom), charge = 0, multiplicity = 1:

    O            1.259565358348     0.973931102564     0.586245943479
    C            0.167780322145     0.659005537582     0.205827084446
    C           -0.914678429704     1.703648224917     0.035520086206
    N           -0.133896773150    -0.635556235015    -0.061614931134
    H           -1.779682690764     1.479341251715     0.646958698754
    H           -0.500164692365     2.651098060890     0.337688243708
    H           -1.239176219907     1.769243099669    -0.995792120185
    C            0.960431053882    -1.586806832440     0.009820523175
    C           -1.335409730356    -1.065637833005    -0.738040837299
    H            1.748798104682    -1.341291967853    -0.691612620320
    H            0.581294929593    -2.573413609508    -0.212778318350
    H            1.393495272573    -1.591376419650     0.998996635015
    H           -1.653544801384    -2.020011231129    -0.339595363681
    H           -2.140549701437    -0.367159325590    -0.586472178317
    H           -1.182283144399    -1.182291640619    -1.808326982888

  Mulliken Charges: (a.u.)
   Center  Symbol    Alpha    Beta     Spin     Total
       1     O     4.22011  4.22011  0.00000 -0.44022
       2     C     2.84565  2.84565  0.00000  0.30871
       3     C     3.16001  3.16001  0.00000 -0.32002
       4     N     3.56234  3.56234  0.00000 -0.12468
       5     H     0.44888  0.44888  0.00000  0.10224
       6     H     0.42892  0.42892  0.00000  0.14216
       7     H     0.44928  0.44928  0.00000  0.10145
       8     C     3.09006  3.09006  0.00000 -0.18012
       9     C     3.09832  3.09832  0.00000 -0.19664
      10     H     0.44958  0.44958  0.00000  0.10084
      11     H     0.45778  0.45778  0.00000  0.08444
      12     H     0.44026  0.44026  0.00000  0.11948
      13     H     0.44850  0.44850  0.00000  0.10300
      14     H     0.44581  0.44581  0.00000  0.10838
      15     H     0.45452  0.45452  0.00000  0.09097

   Total alpha = 24.00000, Total beta = 24.00000, Total charge =  0.00000

*** Psi4 exiting successfully. Buy a developer a beer!
