                              Psi4 1.0.54 Driver

  ==> Input File <==

--------------------------------------------------------------------------
set {
	reference rhf
	basis cc-pvtz
}

set_num_threads( 4 )
memory 2 gb

molecule MOL {
0 1

O	 0.347807	 -0.244464	 -2.286717
C	 -0.001617	 0.325125	 -1.292641
C	 -1.158640	 1.301464	 -1.346430
N	 0.622280	 0.144970	 -0.099307
H	 -0.853355	 2.292544	 -1.035132
H	 -1.501863	 1.338420	 -2.366883
H	 -1.973083	 0.983711	 -0.707141
C	 1.664396	 -0.854993	 0.000772
C	 0.110408	 0.630934	 1.159891
H	 2.462727	 -0.615153	 -0.690869
H	 1.261798	 -1.821849	 -0.240651
H	 2.081615	 -0.891605	 1.003877
H	 0.940098	 0.877018	 1.810039
H	 -0.478951	 1.522804	 1.032921
H	 -0.498784	 -0.114897	 1.665524

	symmetry c1
}
set optking {
	frozen_dihedral = ("
		2 4 8 10
	")
}

ee,wfn = optimize('scf', return_wfn=True)
oeprop( wfn, 'DIPOLE', 'QUADRUPOLE', 'MULLIKEN_CHARGES')
f=open( 'psi4out.xyz', 'w' )
f.write( "15  " )
f.write( str(ee) + "\n" )
f.write( MOL.save_string_xyz() )
f.close()
--------------------------------------------------------------------------

    Molecular point group: c1
  Charge       = 0
  Multiplicity = 1
  Basis Set: CC-PVTZ
  Basis Set:
  @DF-RHF Final Energy:  -286.13383523342986
    Total Energy =                       -286.1338352334297497
    Molecular point group: c1
  Basis Set: CC-PVTZ
  Basis Set:
  Basis Set: CC-PVTZ
  Basis Set:
  @DF-RHF Final Energy:  -286.13478322396679
    Total Energy =                       -286.1347832239669060
  Basis Set: CC-PVTZ
  Basis Set:
  Basis Set: CC-PVTZ
  Basis Set:
  @DF-RHF Final Energy:  -286.13487119029816
    Total Energy =                       -286.1348711902983837
  Basis Set: CC-PVTZ
  Basis Set:
  Basis Set: CC-PVTZ
  Basis Set:
  @DF-RHF Final Energy:  -286.13491688475949
    Total Energy =                       -286.1349168847592637
  Basis Set: CC-PVTZ
  Basis Set:
  Basis Set: CC-PVTZ
  Basis Set:
  @DF-RHF Final Energy:  -286.13492355823917
    Total Energy =                       -286.1349235582388246
  Basis Set: CC-PVTZ
  Basis Set:
  Basis Set: CC-PVTZ
  Basis Set:
  @DF-RHF Final Energy:  -286.13492498010237
    Total Energy =                       -286.1349249801021415
  Basis Set: CC-PVTZ
  Basis Set:
  Basis Set: CC-PVTZ
  Basis Set:
  @DF-RHF Final Energy:  -286.13492637994159
    Total Energy =                       -286.1349263799415894
  Basis Set: CC-PVTZ
  Basis Set:
  Charge       = 0
  Multiplicity = 1
  Basis Set: CC-PVTZ
  Basis Set:

    Orbital Energies (a.u.)
    -----------------------

    Doubly Occupied:

       1A    -20.503619     2A    -15.577255     3A    -11.332610
       4A    -11.264600     5A    -11.247295     6A    -11.226442
       7A     -1.387418     8A     -1.244059     9A     -1.014424
      10A     -0.974043    11A     -0.919737    12A     -0.738230
      13A     -0.681497    14A     -0.660258    15A     -0.653540
      16A     -0.588291    17A     -0.576878    18A     -0.570426
      19A     -0.566528    20A     -0.547080    21A     -0.530919
      22A     -0.502066    23A     -0.413918    24A     -0.370362

  @DF-RHF Final Energy:  -286.13492674075678

   => Energetics <=

    Nuclear Repulsion Energy =            253.0853948041026626
    One-Electron Energy =                -890.2576572019428340
    Two-Electron Energy =                 351.0373356570834176
    DFT Exchange-Correlation Energy =       0.0000000000000000
    Empirical Dispersion Energy =           0.0000000000000000
    PCM Polarization Energy =               0.0000000000000000
    EFP Energy =                            0.0000000000000000
    Total Energy =                       -286.1349267407567822
    Molecular point group: c1
  Basis Set: CC-PVTZ
  Basis Set:

  -Total Gradient:
     Atom            X                  Y                   Z
    ------   -----------------  -----------------  -----------------
       1        0.000011022710    -0.000009692170     0.000041207407
       2       -0.000632892273    -0.000617037852     0.000169777468
       3        0.000016436346     0.000034615555    -0.000011174118
       4        0.001006483979     0.001023159237    -0.000101238421
       5       -0.000019541018     0.000001485207    -0.000005859739
       6        0.000001742101     0.000006667922     0.000001444658
       7       -0.000012032125    -0.000012522802     0.000010320019
       8       -0.000831293013    -0.000963537600    -0.000838685862
       9       -0.000018090504    -0.000018555399    -0.000031624176
      10        0.000465314711     0.000557279812     0.000755035879
      11       -0.000008044649     0.000006497494    -0.000001191737
      12        0.000015603400    -0.000008206488    -0.000004099224
      13        0.000015776191    -0.000004809548     0.000000899840
      14       -0.000001884723     0.000017384276     0.000008047771
      15       -0.000008601130    -0.000012727644     0.000007140234

  **** Optimization is complete! (in 8 steps) ****
    Final optimized geometry and variables:
    Molecular point group: c1

    Geometry (in Angstrom), charge = 0, multiplicity = 1:

    O            0.159290158687    -0.464635002102    -1.624027464402
    C           -0.246354214907     0.114822002915    -0.656851068523
    C           -1.415729862185     1.069700662626    -0.770896930158
    N            0.338890502552    -0.051236880600     0.555175350527
    H           -1.148569231149     2.064506686107    -0.437406965862
    H           -1.703230472540     1.106207820813    -1.808579647016
    H           -2.258006599711     0.731105927190    -0.179852196370
    C            1.384070925820    -1.055026670839     0.641119422535
    C           -0.225971385838     0.415066389377     1.799954216696
    H            2.194123934003    -0.818823683438    -0.032407147756
    H            1.013115457953    -2.041616649995     0.391174251398
    H            1.767214423801    -1.070660618809     1.651345678890
    H            0.569046658252     0.725707019414     2.465105765808
    H           -0.868313091347     1.264762741210     1.643798996851
    H           -0.801237294106    -0.359202430914     2.302020068410

  Mulliken Charges: (a.u.)
   Center  Symbol    Alpha    Beta     Spin     Total
       1     O     4.21995  4.21995  0.00000 -0.43990
       2     C     2.84567  2.84567  0.00000  0.30866
       3     C     3.15996  3.15996  0.00000 -0.31993
       4     N     3.56256  3.56256  0.00000 -0.12511
       5     H     0.44893  0.44893  0.00000  0.10214
       6     H     0.42890  0.42890  0.00000  0.14220
       7     H     0.44926  0.44926  0.00000  0.10148
       8     C     3.08978  3.08978  0.00000 -0.17957
       9     C     3.09814  3.09814  0.00000 -0.19628
      10     H     0.44020  0.44020  0.00000  0.11960
      11     H     0.44958  0.44958  0.00000  0.10084
      12     H     0.45811  0.45811  0.00000  0.08377
      13     H     0.44858  0.44858  0.00000  0.10285
      14     H     0.44580  0.44580  0.00000  0.10840
      15     H     0.45458  0.45458  0.00000  0.09084

   Total alpha = 24.00000, Total beta = 24.00000, Total charge = -0.00000

*** Psi4 exiting successfully. Buy a developer a beer!
