  ==> Input File <==

--------------------------------------------------------------------------
set {
	reference rhf
	basis cc-pvtz
}

set_num_threads( 4 )
memory 2 gb

molecule MOL {
0 1

H	 -0.000342	 -0.223902	 -3.352295
C	 -0.027146	 0.371068	 -2.446756
C	 0.024493	 -0.518541	 -1.216015
H	 -0.932586	 0.964979	 -2.449855
H	 0.819708	 1.049865	 -2.473332
N	 -0.042516	 0.263377	 -0.000000
H	 -0.822211	 -1.197105	 -1.225584
H	 0.921114	 -1.142847	 -1.255206
C	 0.024493	 -0.518541	 1.216015
H	 0.682568	 0.950412	 -0.000000
C	 0.439641	 0.338466	 2.400070
H	 -0.959682	 -0.936562	 1.400693
H	 0.707877	 -1.366802	 1.122949
H	 -0.252826	 1.159541	 2.537503
H	 0.464240	 -0.249621	 3.310156
H	 1.430494	 0.756313	 2.250915

	symmetry c1
}
set optking {
	frozen_dihedral = ("
		12 9 6 3
	")
}

ee = optimize('scf')
oeprop('DIPOLE', 'QUADRUPOLE', 'MULLIKEN_CHARGES')
f=open( 'psi4out.xyz', 'w' )
f.write( "16  " )
f.write( str(ee) + "\n" )
f.write( MOL.save_string_xyz() )
f.close()
--------------------------------------------------------------------------

    Molecular point group: c1
  Charge       = 0
  Multiplicity = 1
  Basis Set: CC-PVTZ
  Basis Set:
  @DF-RHF Final Energy:  -212.39347955924677
    Total Energy =                       -212.3934795592466571
    Molecular point group: c1
  Basis Set: CC-PVTZ
  Basis Set:
  Basis Set: CC-PVTZ
  Basis Set:
  @DF-RHF Final Energy:  -212.39359318500266
    Total Energy =                       -212.3935931850026009
  Basis Set: CC-PVTZ
  Basis Set:
  Basis Set: CC-PVTZ
  Basis Set:
  @DF-RHF Final Energy:  -212.39360392829033
    Total Energy =                       -212.3936039282903607
  Basis Set: CC-PVTZ
  Basis Set:
  Charge       = 0
  Multiplicity = 1
  Basis Set: CC-PVTZ
  Basis Set:

    Orbital Energies (a.u.)
    -----------------------

    Doubly Occupied:

       1A    -15.528749     2A    -11.238886     3A    -11.238857
       4A    -11.208990     5A    -11.206275     6A     -1.207171
       7A     -1.029777     8A     -0.964038     9A     -0.833117
      10A     -0.822692    11A     -0.658632    12A     -0.629637
      13A     -0.606177    14A     -0.590265    15A     -0.552933
      16A     -0.521644    17A     -0.508378    18A     -0.489092
      19A     -0.484699    20A     -0.473130    21A     -0.363296

  @DF-RHF Final Energy:  -212.39360460320742

   => Energetics <=

    Nuclear Repulsion Energy =            189.5224091393793913
    One-Electron Energy =                -661.5191588997440704
    Two-Electron Energy =                 259.6031451571573143
    DFT Exchange-Correlation Energy =       0.0000000000000000
    Empirical Dispersion Energy =           0.0000000000000000
    PCM Polarization Energy =               0.0000000000000000
    EFP Energy =                            0.0000000000000000
    Total Energy =                       -212.3936046032073364
    Molecular point group: c1
  Basis Set: CC-PVTZ
  Basis Set:

  -Total Gradient:
     Atom            X                  Y                   Z
    ------   -----------------  -----------------  -----------------
       1       -0.000002599753     0.000002358845    -0.000003435282
       2       -0.000003413997     0.000000285308    -0.000015297709
       3        0.002477461799     0.000268367278     0.000058034607
       4        0.000002121707     0.000001587421    -0.000004365280
       5       -0.000000453298     0.000001399458    -0.000001979385
       6       -0.003666095134     0.000259893187     0.000403491253
       7       -0.000004715520    -0.000007538111    -0.000005864464
       8        0.000005347303    -0.000025963781    -0.000007969768
       9        0.001924518263    -0.003102495353    -0.002194364853
      10       -0.000005534256     0.000005176361    -0.000012456869
      11        0.000036256196    -0.000018058835     0.000012113709
      12       -0.000738576040     0.002588242276     0.001713132640
      13       -0.000005249379     0.000007943829     0.000025229318
      14       -0.000013815142    -0.000000232344     0.000004530398
      15       -0.000004972863     0.000007624819     0.000019186896
      16       -0.000000279887     0.000011409642     0.000010014786

  **** Optimization is complete! (in 4 steps) ****
    Final optimized geometry and variables:
    Molecular point group: c1

    Geometry (in Angstrom), charge = 0, multiplicity = 1:

    H           -0.109290348930    -0.214072503181    -3.345173749813
    C           -0.135040034923     0.379816729364    -2.438825148003
    C           -0.070560074438    -0.510307182670    -1.209205419040
    H           -1.043973859923     0.968235302923    -2.436408983239
    H            0.707326140520     1.064107727201    -2.468932121890
    N           -0.126191056490     0.270562770807     0.008841853969
    H           -0.915988524370    -1.191159720597    -1.212769124105
    H            0.826415849489    -1.133012372863    -1.254511852164
    C           -0.064545508840    -0.515982870598     1.225298739010
    H            0.620006051118     0.934432432234     0.004758647397
    C            0.335508886684     0.344767670950     2.413439534983
    H           -1.049785673112    -0.928231326956     1.419646980408
    H            0.628066738827    -1.354778442965     1.135964049139
    H           -0.348380596533     1.177325314465     2.528209158084
    H            0.323770654277    -0.234955061462     3.328699948267
    H            1.336907068216     0.745172266660     2.288306973267

  Mulliken Charges: (a.u.)
   Center  Symbol    Alpha    Beta     Spin     Total
       1     H     0.45381  0.45381  0.00000  0.09239
       2     C     3.14217  3.14217  0.00000 -0.28434
       3     C     3.02299  3.02299  0.00000 -0.04598
       4     H     0.44939  0.44939  0.00000  0.10122
       5     H     0.45962  0.45962  0.00000  0.08075
       6     N     3.63479  3.63479  0.00000 -0.26957
       7     H     0.45850  0.45850  0.00000  0.08300
       8     H     0.47283  0.47283  0.00000  0.05433
       9     C     3.01790  3.01790  0.00000 -0.03579
      10     H     0.44724  0.44724  0.00000  0.10553
      11     C     3.14618  3.14618  0.00000 -0.29236
      12     H     0.45862  0.45862  0.00000  0.08277
      13     H     0.47542  0.47542  0.00000  0.04915
      14     H     0.44889  0.44889  0.00000  0.10222
      15     H     0.45170  0.45170  0.00000  0.09661
      16     H     0.45996  0.45996  0.00000  0.08008

   Total alpha = 21.00000, Total beta = 21.00000, Total charge = -0.00000
