  ==> Input File <==

--------------------------------------------------------------------------
set {
	reference rhf
	basis 6-31G*
}

set_num_threads( 4 )
memory 2 gb

molecule MOL {
0 1

H	 -3.269016	 -0.876744	 0.468090
C	 -2.809304	 0.000122	 0.025886
N	 -1.391456	 0.000019	 0.300661
H	 -3.037557	 -0.000063	 -1.044252
H	 -3.269223	 0.876956	 0.468000
C	 -0.764139	 -1.260511	 -0.044773
C	 -1.096800	 0.361900	 1.673260
H	 -1.169299	 -2.086791	 0.547355
H	 -0.964168	 -1.475131	 -1.089516
C	 0.738860	 -1.183323	 0.173413
H	 -1.539472	 1.330526	 1.881494
H	 -1.523979	 -0.356982	 2.379118
C	 0.406200	 0.439089	 1.891445
H	 1.181532	 -2.151948	 -0.034822
H	 1.166039	 -0.464441	 -0.532445
N	 1.033516	 -0.821442	 1.546012
H	 0.606229	 0.653708	 2.936189
H	 0.811359	 1.265368	 1.299318
C	 2.451364	 -0.821546	 1.820788
H	 2.866583	 -1.800250	 1.607473
H	 2.622338	 -0.607895	 2.870048
H	 3.001600	 -0.083152	 1.229761

	symmetry c1
}
set optking {
	frozen_dihedral = ("
		6 3 2 4
	")
}

ee = optimize('scf')
oeprop('DIPOLE', 'QUADRUPOLE', 'MULLIKEN_CHARGES')
f=open( 'psi4out.xyz', 'w' )
f.write( "22  " )
f.write( str(ee) + "\n" )
f.write( MOL.save_string_xyz() )
f.close()
--------------------------------------------------------------------------

    Molecular point group: c1
  Charge       = 0
  Multiplicity = 1
  Basis Set: 6-31G*
  Basis Set:
  @DF-RHF Final Energy:  -344.22915012127709
    Total Energy =                       -344.2291501212771436
    Molecular point group: c1
  Basis Set: 6-31G*
  Basis Set:
  Basis Set: 6-31G*
  Basis Set:
  @DF-RHF Final Energy:  -344.22998022286492
    Total Energy =                       -344.2299802228649241
  Basis Set: 6-31G*
  Basis Set:
  Basis Set: 6-31G*
  Basis Set:
  @DF-RHF Final Energy:  -344.23008653602835
    Total Energy =                       -344.2300865360282387
  Basis Set: 6-31G*
  Basis Set:
  Charge       = 0
  Multiplicity = 1
  Basis Set: 6-31G*
  Basis Set:

    Orbital Energies (a.u.)
    -----------------------

    Doubly Occupied:

       1A    -15.542349     2A    -15.541874     3A    -11.238792
       4A    -11.238709     5A    -11.238161     6A    -11.238080
       7A    -11.235919     8A    -11.235813     9A     -1.255231
      10A     -1.204205    11A     -1.024456    12A     -0.991735
      13A     -0.911418    14A     -0.866570    15A     -0.835395
      16A     -0.755420    17A     -0.665462    18A     -0.636433
      19A     -0.629581    20A     -0.626315    21A     -0.621761
      22A     -0.581361    23A     -0.549065    24A     -0.546322
      25A     -0.541721    26A     -0.518572    27A     -0.495893
      28A     -0.490211    29A     -0.464111    30A     -0.455512
      31A     -0.350998    32A     -0.345550

  @DF-RHF Final Energy:  -344.23008733851981

   => Energetics <=

    Nuclear Repulsion Energy =            421.4219840350507980
    One-Electron Energy =               -1301.5581495320843715
    Two-Electron Energy =                 535.9060781585133100
    DFT Exchange-Correlation Energy =       0.0000000000000000
    Empirical Dispersion Energy =           0.0000000000000000
    PCM Polarization Energy =               0.0000000000000000
    EFP Energy =                            0.0000000000000000
    Total Energy =                       -344.2300873385202067
    Molecular point group: c1
  Basis Set: 6-31G*
  Basis Set:

  -Total Gradient:
     Atom            X                  Y                   Z
    ------   -----------------  -----------------  -----------------
       1       -0.000009434757    -0.000015333251     0.000010020609
       2       -0.000050053531    -0.003814609460     0.000776970831
       3        0.000483451221     0.001608142815    -0.002621149201
       4        0.000001205008     0.002823948023    -0.000022080661
       5        0.000026291154     0.000008201180     0.000011864120
       6       -0.000416801601    -0.000623613473     0.001893547314
       7       -0.000068832232     0.000078735103    -0.000047955421
       8       -0.000006639952     0.000012836361     0.000011761289
       9        0.000012200378    -0.000048413317    -0.000017432084
      10        0.000020866558     0.000004104706     0.000006810906
      11       -0.000008052023     0.000014667104     0.000037887390
      12        0.000009237252    -0.000007443753    -0.000012183726
      13        0.000008557593    -0.000008621244    -0.000045756247
      14        0.000003539520     0.000002865855     0.000013450368
      15        0.000000391977    -0.000001491032    -0.000006836321
      16        0.000019584173    -0.000034239701     0.000022296865
      17       -0.000015654545    -0.000008247910    -0.000007847530
      18       -0.000003133990     0.000013571813     0.000002857676
      19       -0.000001691330    -0.000007770726    -0.000005137085
      20        0.000000782002    -0.000000745488    -0.000000019589
      21       -0.000004346880     0.000001060948    -0.000000263739
      22       -0.000001465998     0.000002395447    -0.000000805764

  **** Optimization is complete! (in 4 steps) ****
    Final optimized geometry and variables:
    Molecular point group: c1

    Geometry (in Angstrom), charge = 0, multiplicity = 1:

    H           -3.148634019756    -0.451488413405    -0.446505898976
    C           -2.633336878535     0.402154518684    -0.894585820016
    N           -1.213472848759     0.417059419057    -0.622753319938
    H           -2.804445987494     0.393052602903    -1.965847771527
    H           -3.086767517683     1.307614996394    -0.507081646471
    C           -0.586487802452    -0.845510831815    -0.965110762573
    C           -0.918419782195     0.767021851922     0.754676203365
    H           -0.992043946872    -1.666872580029    -0.366953466022
    H           -0.791432780766    -1.066096308252    -2.008035459404
    C            0.917218390587    -0.770498407713    -0.752660438183
    H           -1.361702823491     1.732997557743     0.972446706284
    H           -1.341651566761     0.040997995232     1.455436221746
    C            0.584869279438     0.846636414208     0.970401138480
    H            1.358096829030    -1.739525222531    -0.963049577896
    H            1.343100986854    -0.051614330455    -1.459240366909
    N            1.215825670531    -0.410670831327     0.619633606749
    H            0.786046438181     1.058223527753     2.015575615293
    H            0.986214038645     1.676414170267     0.380541192801
    C            2.634442510700    -0.406507114570     0.889494586677
    H            3.052650198586    -1.383063302712     0.672013051752
    H            2.808194864346    -0.195225285233     1.938792450464
    H            3.180096024874     0.335637567724     0.298882809511

  Mulliken Charges: (a.u.)
   Center  Symbol    Alpha    Beta     Spin     Total
       1     H     0.43236  0.43236  0.00000  0.13528
       2     C     3.14094  3.14094  0.00000 -0.28187
       3     N     3.78618  3.78618  0.00000 -0.57236
       4     H     0.41573  0.41573  0.00000  0.16854
       5     H     0.41793  0.41793  0.00000  0.16414
       6     C     3.05782  3.05782  0.00000 -0.11564
       7     C     3.05757  3.05757  0.00000 -0.11513
       8     H     0.42801  0.42801  0.00000  0.14397
       9     H     0.41772  0.41772  0.00000  0.16455
      10     C     3.05609  3.05609  0.00000 -0.11219
      11     H     0.41773  0.41773  0.00000  0.16455
      12     H     0.42848  0.42848  0.00000  0.14303
      13     C     3.05642  3.05642  0.00000 -0.11285
      14     H     0.41796  0.41796  0.00000  0.16409
      15     H     0.42840  0.42840  0.00000  0.14321
      16     N     3.78702  3.78702  0.00000 -0.57405
      17     H     0.41797  0.41797  0.00000  0.16405
      18     H     0.42839  0.42839  0.00000  0.14322
      19     C     3.14030  3.14030  0.00000 -0.28059
      20     H     0.41678  0.41678  0.00000  0.16643
      21     H     0.41679  0.41679  0.00000  0.16643
      22     H     0.43340  0.43340  0.00000  0.13319

   Total alpha = 32.00000, Total beta = 32.00000, Total charge = -0.00000
