  ==> Input File <==

--------------------------------------------------------------------------
set {
	reference rhf
	basis 6-31G*
}

set_num_threads( 4 )
memory 2 gb

molecule MOL {
0 1

O	 3.225979	 0.970355	 -0.599647
C	 2.701189	 0.057885	 -0.047330
C	 1.245376	 -0.013843	 0.345420
O	 3.347903	 -1.046386	 0.304773
C	 0.455112	 1.231400	 -0.050772
H	 0.838542	 -0.913825	 -0.103701
H	 1.208210	 -0.175333	 1.419774
C	 -0.998893	 1.219485	 0.433193
H	 0.482531	 1.345121	 -1.130325
H	 0.957290	 2.103070	 0.354729
C	 -1.883438	 0.145884	 -0.207175
H	 -1.431207	 2.195402	 0.224832
H	 -1.019646	 1.105716	 1.516076
C	 -1.844671	 -1.184668	 0.547231
H	 -2.910264	 0.506122	 -0.248122
H	 -1.578523	 -0.025492	 -1.237044
C	 -2.720847	 -2.266611	 -0.086683
H	 -2.161573	 -1.024104	 1.576322
H	 -0.816661	 -1.540100	 0.597849
C	 -2.679517	 -3.591000	 0.674885
H	 -3.748292	 -1.912681	 -0.138956
H	 -2.402790	 -2.431608	 -1.114008
H	 -3.310007	 -4.337303	 0.201470
H	 -3.025368	 -3.466319	 1.697156
H	 -1.669377	 -3.988840	 0.715065
C	 4.728119	 -1.109107	 -0.004993
H	 4.882018	 -1.033965	 -1.071845
H	 5.068212	 -2.067527	 0.355250
H	 5.265056	 -0.311663	 0.488280

	symmetry c1
}
set optking {
	frozen_dihedral = ("
		15 11 8 5
	")
}

ee = optimize('scf')
oeprop('DIPOLE', 'QUADRUPOLE', 'MULLIKEN_CHARGES')
f=open( 'psi4out.xyz', 'w' )
f.write( "29  " )
f.write( str(ee) + "\n" )
f.write( MOL.save_string_xyz() )
f.close()
--------------------------------------------------------------------------

    Molecular point group: c1
  Charge       = 0
  Multiplicity = 1
  Basis Set: 6-31G*
  Basis Set:
  @DF-RHF Final Energy:  -501.03733147332082
    Total Energy =                       -501.0373314733205916
    Molecular point group: c1
  Basis Set: 6-31G*
  Basis Set:
  Basis Set: 6-31G*
  Basis Set:
  @DF-RHF Final Energy:  -501.03914259270186
    Total Energy =                       -501.0391425927018645
  Basis Set: 6-31G*
  Basis Set:
  Basis Set: 6-31G*
  Basis Set:
  @DF-RHF Final Energy:  -501.03937689820816
    Total Energy =                       -501.0393768982081610
  Basis Set: 6-31G*
  Basis Set:
  Basis Set: 6-31G*
  Basis Set:
  @DF-RHF Final Energy:  -501.03915252706599
    Total Energy =                       -501.0391525270664488
  Basis Set: 6-31G*
  Basis Set:
  Basis Set: 6-31G*
  Basis Set:
  @DF-RHF Final Energy:  -501.03942006110458
    Total Energy =                       -501.0394200611043516
  Basis Set: 6-31G*
  Basis Set:
  Basis Set: 6-31G*
  Basis Set:
  @DF-RHF Final Energy:  -501.03942295700017
    Total Energy =                       -501.0394229570003972
  Basis Set: 6-31G*
  Basis Set:
  Charge       = 0
  Multiplicity = 1
  Basis Set: 6-31G*
  Basis Set:

    Orbital Energies (a.u.)
    -----------------------

    Doubly Occupied:

       1A    -20.603516     2A    -20.545428     3A    -11.372080
       4A    -11.280779     5A    -11.234755     6A    -11.219093
       7A    -11.217958     8A    -11.216502     9A    -11.216370
      10A    -11.215027    11A    -11.209798    12A     -1.469253
      13A     -1.362703    14A     -1.096845    15A     -1.065741
      16A     -1.019232    17A     -0.976620    18A     -0.932095
      19A     -0.862784    20A     -0.803409    21A     -0.785141
      22A     -0.763773    23A     -0.700868    24A     -0.682679
      25A     -0.671758    26A     -0.649411    27A     -0.627313
      28A     -0.605745    29A     -0.595398    30A     -0.575421
      31A     -0.566369    32A     -0.562277    33A     -0.536353
      34A     -0.526193    35A     -0.518064    36A     -0.502871
      37A     -0.499970    38A     -0.479411    39A     -0.471687
      40A     -0.462832    41A     -0.457782    42A     -0.455005
      43A     -0.438597    44A     -0.434469

  @DF-RHF Final Energy:  -501.03942287091013

   => Energetics <=

    Nuclear Repulsion Energy =            624.8394891219504643
    One-Electron Energy =               -1920.7790707265294259
    Two-Electron Energy =                 794.9001587336686043
    DFT Exchange-Correlation Energy =       0.0000000000000000
    Empirical Dispersion Energy =           0.0000000000000000
    PCM Polarization Energy =               0.0000000000000000
    EFP Energy =                            0.0000000000000000
    Total Energy =                       -501.0394228709103572
    Molecular point group: c1
  Basis Set: 6-31G*
  Basis Set:

  -Total Gradient:
     Atom            X                  Y                   Z
    ------   -----------------  -----------------  -----------------
       1        0.000014980735    -0.000033965608     0.000000241999
       2       -0.000016068341     0.000003090477    -0.000001021173
       3       -0.000011432764     0.000011224658     0.000018058898
       4        0.000007137869     0.000024227249    -0.000000826389
       5        0.000146287282    -0.000373518972     0.000474913002
       6       -0.000008849201    -0.000007724403    -0.000001267438
       7       -0.000007240050    -0.000008456528    -0.000007016861
       8       -0.000260831541     0.000486298026    -0.000491584481
       9       -0.000004930381    -0.000002741742     0.000010645263
      10        0.000002622953     0.000005384307    -0.000002701510
      11        0.000169282964     0.000214228512    -0.000682934221
      12        0.000016367407     0.000007864320     0.000008854473
      13        0.000020990341     0.000003607210    -0.000001780340
      14        0.000061467409    -0.000014030709    -0.000048550009
      15       -0.000154196738    -0.000304603950     0.000720228940
      16       -0.000001956450    -0.000037749812     0.000023546053
      17        0.000007568001    -0.000004606953    -0.000003938638
      18        0.000017016067    -0.000002547411    -0.000007755889
      19        0.000022975956     0.000013843110    -0.000007069015
      20       -0.000022958949     0.000020563891     0.000012756802
      21       -0.000003132331     0.000001423231    -0.000017736836
      22        0.000007933143    -0.000016588363     0.000007035493
      23       -0.000006258674     0.000011619979     0.000004040216
      24        0.000002722808    -0.000002930901     0.000008870775
      25       -0.000001404949     0.000005769988    -0.000009830334
      26       -0.000002459756    -0.000001505023    -0.000004914567
      27        0.000001420860    -0.000000565774    -0.000001061197
      28        0.000002456645     0.000001137046    -0.000000733626
      29        0.000000489669     0.000001254142     0.000001530612

  **** Optimization is complete! (in 7 steps) ****
    Final optimized geometry and variables:
    Molecular point group: c1

    Geometry (in Angstrom), charge = 0, multiplicity = 1:

    O            2.723714668421     1.604220366457    -0.647083583770
    C            2.228236266553     0.636240141410    -0.167014790883
    C            0.766349721593     0.469962185189     0.174157159953
    O            2.917994288711    -0.455533717731     0.139536031825
    C           -0.071922478427     1.692484107863    -0.191345116178
    H            0.424733383757    -0.424568363518    -0.334369588155
    H            0.706105492555     0.251516186501     1.237055015678
    C           -1.526563923391     1.667155661105     0.297135049711
    H           -0.056237225763     1.822323745164    -1.269602890917
    H            0.411344706616     2.572184738536     0.219598749142
    C           -2.443767242669     0.587697604637    -0.307316151935
    H           -1.948182659902     2.640736120306     0.063078766926
    H           -1.544612453983     1.590535720997     1.383238474013
    C           -2.479058995900    -0.748228674297     0.443915684214
    H           -3.459825158409     0.974970993117    -0.322929576396
    H           -2.171561816914     0.418213905953    -1.347877555303
    C           -3.442934717799    -1.756771749046    -0.184891659240
    H           -2.778211509435    -0.563884249800     1.474481507190
    H           -1.489021638296    -1.191529463664     0.492845659048
    C           -3.507112226650    -3.078750969527     0.579305739824
    H           -4.438337517039    -1.320576781849    -0.234888982645
    H           -3.143083065693    -1.948889588403    -1.213003311220
    H           -4.198956939168    -3.771344402970     0.110039589387
    H           -3.837110077446    -2.924326418993     1.602775133771
    H           -2.533139708320    -3.558713057517     0.616089492347
    C            4.308321710517    -0.433397165120    -0.127779144426
    H            4.490245494571    -0.286087802809    -1.182633442419
    H            4.684519140724    -1.394689524314     0.185879945614
    H            4.790016167445     0.357163134346     0.429461666514

  Mulliken Charges: (a.u.)
   Center  Symbol    Alpha    Beta     Spin     Total
       1     O     4.28587  4.28587  0.00000 -0.57175
       2     C     2.60421  2.60421  0.00000  0.79157
       3     C     3.21069  3.21069  0.00000 -0.42138
       4     O     4.30758  4.30758  0.00000 -0.61516
       5     C     3.15315  3.15315  0.00000 -0.30629
       6     H     0.39911  0.39911  0.00000  0.20179
       7     H     0.40077  0.40077  0.00000  0.19847
       8     C     3.15877  3.15877  0.00000 -0.31754
       9     H     0.41440  0.41440  0.00000  0.17120
      10     H     0.40816  0.40816  0.00000  0.18368
      11     C     3.15641  3.15641  0.00000 -0.31281
      12     H     0.41653  0.41653  0.00000  0.16693
      13     H     0.42296  0.42296  0.00000  0.15407
      14     C     3.15393  3.15393  0.00000 -0.30787
      15     H     0.42016  0.42016  0.00000  0.15968
      16     H     0.42250  0.42250  0.00000  0.15501
      17     C     3.15175  3.15175  0.00000 -0.30349
      18     H     0.42361  0.42361  0.00000  0.15278
      19     H     0.42271  0.42271  0.00000  0.15459
      20     C     3.23937  3.23937  0.00000 -0.47874
      21     H     0.42264  0.42264  0.00000  0.15471
      22     H     0.42313  0.42313  0.00000  0.15374
      23     H     0.41900  0.41900  0.00000  0.16200
      24     H     0.42163  0.42163  0.00000  0.15673
      25     H     0.42188  0.42188  0.00000  0.15624
      26     C     3.09241  3.09241  0.00000 -0.18482
      27     H     0.40908  0.40908  0.00000  0.18184
      28     H     0.40850  0.40850  0.00000  0.18299
      29     H     0.40910  0.40910  0.00000  0.18181

   Total alpha = 44.00000, Total beta = 44.00000, Total charge =  0.00000
