  ==> Input File <==

--------------------------------------------------------------------------
set {
	reference rhf
	basis 6-31G*
}

set_num_threads( 4 )
memory 2 gb

molecule MOL {
0 1

H	 -2.698709	 -0.000305	 0.034435
C	 -1.693833	 0.000034	 0.434417
O	 -0.828952	 -0.000968	 -0.659236
H	 -1.574200	 0.882896	 1.055746
H	 -1.574147	 -0.881698	 1.057355
C	 -0.895823	 1.069409	 -1.572650
C	 -2.237817	 1.135994	 -2.298966
C	 -0.511955	 2.404946	 -0.938657
H	 -0.135613	 0.818057	 -2.302673
H	 -2.501545	 0.160110	 -2.692215
H	 -2.176202	 1.832438	 -3.129270
H	 -3.040130	 1.472597	 -1.650000
H	 0.418441	 2.307201	 -0.389780
H	 -0.374773	 3.156168	 -1.710221
H	 -1.274430	 2.771432	 -0.258833

	symmetry c1
}
set optking {
	frozen_dihedral = ("
		6 3 2 1
	")
}

ee = optimize('scf')
oeprop('DIPOLE', 'QUADRUPOLE', 'MULLIKEN_CHARGES')
f=open( 'psi4out.xyz', 'w' )
f.write( "15  " )
f.write( str(ee) + "\n" )
f.write( MOL.save_string_xyz() )
f.close()
--------------------------------------------------------------------------

    Molecular point group: c1
  Charge       = 0
  Multiplicity = 1
  Basis Set: 6-31G*
  Basis Set:
  @DF-RHF Final Energy:  -232.13524742907043
    Total Energy =                       -232.1352474290703753
    Molecular point group: c1
  Basis Set: 6-31G*
  Basis Set:
  Basis Set: 6-31G*
  Basis Set:
  @DF-RHF Final Energy:  -232.13725389847582
    Total Energy =                       -232.1372538984757057
  Basis Set: 6-31G*
  Basis Set:
  Basis Set: 6-31G*
  Basis Set:
  @DF-RHF Final Energy:  -232.13776362006857
    Total Energy =                       -232.1377636200687107
  Basis Set: 6-31G*
  Basis Set:
  Basis Set: 6-31G*
  Basis Set:
  @DF-RHF Final Energy:  -232.13776397947279
    Total Energy =                       -232.1377639794727656
  Basis Set: 6-31G*
  Basis Set:
  Basis Set: 6-31G*
  Basis Set:
  @DF-RHF Final Energy:  -232.13777158155770
    Total Energy =                       -232.1377715815576721
  Basis Set: 6-31G*
  Basis Set:
  Charge       = 0
  Multiplicity = 1
  Basis Set: 6-31G*
  Basis Set:

    Orbital Energies (a.u.)
    -----------------------

    Doubly Occupied:

       1A    -20.548426     2A    -11.274304     3A    -11.260992
       4A    -11.210654     5A    -11.210406     6A     -1.370498
       7A     -1.050507     8A     -0.939567     9A     -0.931315
      10A     -0.781260    11A     -0.674150    12A     -0.640317
      13A     -0.633543    14A     -0.572933    15A     -0.565541
      16A     -0.552690    17A     -0.533925    18A     -0.497242
      19A     -0.496801    20A     -0.443107    21A     -0.406716

  @DF-RHF Final Energy:  -232.13777224848337

   => Energetics <=

    Nuclear Repulsion Energy =            198.7712835388185226
    One-Electron Energy =                -708.6283245870733936
    Two-Electron Energy =                 277.7192687997714984
    DFT Exchange-Correlation Energy =       0.0000000000000000
    Empirical Dispersion Energy =           0.0000000000000000
    PCM Polarization Energy =               0.0000000000000000
    EFP Energy =                            0.0000000000000000
    Total Energy =                       -232.1377722484833726
    Molecular point group: c1
  Basis Set: 6-31G*
  Basis Set:

  -Total Gradient:
     Atom            X                  Y                   Z
    ------   -----------------  -----------------  -----------------
       1        0.000014991132     0.000086090600    -0.000025423099
       2       -0.000008488621    -0.000159979665     0.000025980957
       3        0.000014148694     0.000139487064     0.000069973144
       4        0.000013135615    -0.000011580479    -0.000039291788
       5        0.000001624932     0.000006240476     0.000004201289
       6       -0.000018918273    -0.000028937994    -0.000089320137
       7        0.000002557915     0.000001741361     0.000029171174
       8       -0.000011889414    -0.000012125313     0.000012319248
       9        0.000004678990    -0.000003954086    -0.000006408079
      10       -0.000009239117    -0.000002132722     0.000011575854
      11        0.000010284917    -0.000009367169     0.000004243814
      12       -0.000001857749     0.000005182899    -0.000009729282
      13       -0.000009233950    -0.000006915388     0.000009865787
      14        0.000002403454    -0.000010952212     0.000004501389
      15       -0.000004198527     0.000007202630    -0.000001660274

  **** Optimization is complete! (in 6 steps) ****
    Final optimized geometry and variables:
    Molecular point group: c1

    Geometry (in Angstrom), charge = 0, multiplicity = 1:

    H           -1.501986811699    -0.890008511700     1.127521942979
    C           -0.457592403514    -0.903522249800     1.425517972203
    O            0.407241557598    -0.919628542485     0.331947324660
    H           -0.273862954776    -0.059829331821     2.084480916898
    H           -0.273568064349    -1.814055075057     1.979473289831
    C            0.355367111598     0.149007385092    -0.584397237412
    C           -0.976894334306     0.216567815564    -1.328513912652
    C            0.733695316614     1.485376334836     0.051164950101
    H            1.124372666533    -0.105944463015    -1.303840329660
    H           -1.237167935627    -0.759825931758    -1.722574311433
    H           -0.902842098174     0.910777592534    -2.159829161021
    H           -1.787133247469     0.556485641360    -0.691413502459
    H            1.656990323450     1.387596423467     0.611929787906
    H            0.881701905696     2.234475249447    -0.720423209959
    H           -0.036814752886     1.854622539122     0.720524421258

  Mulliken Charges: (a.u.)
   Center  Symbol    Alpha    Beta     Spin     Total
       1     H     0.42948  0.42948  0.00000  0.14104
       2     C     3.08198  3.08198  0.00000 -0.16397
       3     O     4.31181  4.31181  0.00000 -0.62362
       4     H     0.42912  0.42912  0.00000  0.14176
       5     H     0.41258  0.41258  0.00000  0.17484
       6     C     2.90863  2.90863  0.00000  0.18273
       7     C     3.25319  3.25319  0.00000 -0.50638
       8     C     3.25382  3.25382  0.00000 -0.50764
       9     H     0.41512  0.41512  0.00000  0.16975
      10     H     0.41140  0.41140  0.00000  0.17721
      11     H     0.41945  0.41945  0.00000  0.16110
      12     H     0.42145  0.42145  0.00000  0.15710
      13     H     0.41145  0.41145  0.00000  0.17709
      14     H     0.41919  0.41919  0.00000  0.16163
      15     H     0.42133  0.42133  0.00000  0.15734

   Total alpha = 21.00000, Total beta = 21.00000, Total charge =  0.00000
