                              Psi4 1.0.54 Driver

  ==> Input File <==

--------------------------------------------------------------------------
set {
	reference rhf
	basis cc-pvtz
}

set_num_threads( 4 )
memory 2 gb

molecule MOL {
0 1

H	 1.813698	 -1.192747	 0.807205
C	 1.948180	 -0.217873	 0.320185
C	 0.692262	 0.592428	 0.156232
O	 3.023195	 0.122323	 -0.035123
C	 -0.554654	 -0.292621	 0.086567
H	 0.791858	 1.203694	 -0.731051
H	 0.617379	 1.254358	 1.016534
C	 -1.846385	 0.513195	 -0.016346
H	 -0.473986	 -0.956115	 -0.769708
H	 -0.597929	 -0.929215	 0.966651
C	 -3.089953	 -0.365049	 -0.098564
H	 -1.798267	 1.154820	 -0.891143
H	 -1.925398	 1.173265	 0.842889
H	 -3.055079	 -1.012299	 -0.968245
H	 -3.988403	 0.236438	 -0.170014
H	 -3.183055	 -0.995885	 0.779079

	symmetry c1
}
set optking {
	frozen_dihedral = ("
		4 2 3 6
	")
}

ee,wfn = optimize('scf', return_wfn=True)
oeprop( wfn, 'DIPOLE', 'QUADRUPOLE', 'MULLIKEN_CHARGES')
f=open( 'psi4out.xyz', 'w' )
f.write( "16  " )
f.write( str(ee) + "\n" )
f.write( MOL.save_string_xyz() )
f.close()
--------------------------------------------------------------------------

    Molecular point group: c1
  Charge       = 0
  Multiplicity = 1
  Basis Set: CC-PVTZ
  Basis Set:
  @DF-RHF Final Energy:  -270.11825130887303
    Total Energy =                       -270.1182513088728570
    Molecular point group: c1
  Basis Set: CC-PVTZ
  Basis Set:
  Basis Set: CC-PVTZ
  Basis Set:
  @DF-RHF Final Energy:  -270.11732886789639
    Total Energy =                       -270.1173288678961626
  Basis Set: CC-PVTZ
  Basis Set:
  Basis Set: CC-PVTZ
  Basis Set:
  @DF-RHF Final Energy:  -270.11837235578332
    Total Energy =                       -270.1183723557833218
  Basis Set: CC-PVTZ
  Basis Set:
  Basis Set: CC-PVTZ
  Basis Set:
  @DF-RHF Final Energy:  -270.11844980721639
    Total Energy =                       -270.1184498072162796
  Basis Set: CC-PVTZ
  Basis Set:
  Basis Set: CC-PVTZ
  Basis Set:
  @DF-RHF Final Energy:  -270.11844904217236
    Total Energy =                       -270.1184490421724718
  Basis Set: CC-PVTZ
  Basis Set:
  Charge       = 0
  Multiplicity = 1
  Basis Set: CC-PVTZ
  Basis Set:

    Orbital Energies (a.u.)
    -----------------------

    Doubly Occupied:

       1A    -20.551583     2A    -11.322151     3A    -11.234484
       4A    -11.232873     5A    -11.227492     6A    -11.216917
       7A     -1.407035     8A     -1.098069     9A     -1.019904
      10A     -0.905935    11A     -0.812415    12A     -0.796756
      13A     -0.673222    14A     -0.655325    15A     -0.634840
      16A     -0.604065    17A     -0.589112    18A     -0.546793
      19A     -0.535615    20A     -0.502013    21A     -0.489995
      22A     -0.485816    23A     -0.479167    24A     -0.411858

  @DF-RHF Final Energy:  -270.11845249654698

   => Energetics <=

    Nuclear Repulsion Energy =            228.6739505605645491
    One-Electron Energy =                -818.7179380300030971
    Two-Electron Energy =                 319.9255349728914553
    DFT Exchange-Correlation Energy =       0.0000000000000000
    Empirical Dispersion Energy =           0.0000000000000000
    PCM Polarization Energy =               0.0000000000000000
    EFP Energy =                            0.0000000000000000
    Total Energy =                       -270.1184524965470928
    Molecular point group: c1
  Basis Set: CC-PVTZ
  Basis Set:

  -Total Gradient:
     Atom            X                  Y                   Z
    ------   -----------------  -----------------  -----------------
       1       -0.000015032697    -0.000005632767    -0.000003032377
       2       -0.000280736135    -0.000905681130    -0.001692401903
       3        0.000558011057     0.001266561687     0.001239781881
       4        0.000174250953     0.000503163192     0.001075108587
       5        0.000008380573     0.000036182970     0.000001028109
       6       -0.000418321599    -0.000873865596    -0.000622452365
       7       -0.000001239885     0.000004578192     0.000007825148
       8        0.000008446932    -0.000018331497    -0.000007647696
       9        0.000000976011     0.000000507013    -0.000004747921
      10       -0.000003344614    -0.000004068016     0.000002284091
      11       -0.000021726362     0.000007493914     0.000008103103
      12        0.000005282587    -0.000002226914     0.000000819870
      13        0.000002414653    -0.000005661698    -0.000003358251
      14        0.000002318993     0.000003054312    -0.000003981521
      15       -0.000019561386    -0.000003260349     0.000000872259
      16       -0.000000119083    -0.000002813315     0.000001798985

  **** Optimization is complete! (in 6 steps) ****
    Final optimized geometry and variables:
    Molecular point group: c1

    Geometry (in Angstrom), charge = 0, multiplicity = 1:

    H            1.863461956369    -1.200833203303     0.766000664709
    C            1.942283943317    -0.230542590291     0.258541163637
    C            0.650278565719     0.530559210048     0.097064698124
    O            2.997375905304     0.166319366340    -0.096811728627
    C           -0.580243310454    -0.370137935380     0.031569284347
    H            0.735291123499     1.148092978965    -0.788422767145
    H            0.576101226873     1.201326347966     0.950213710314
    C           -1.883270206612     0.411896427539    -0.103401021092
    H           -0.483344678591    -1.053426351648    -0.808505772416
    H           -0.624325858129    -0.988737888801     0.924404783892
    C           -3.113372194616    -0.486223060258    -0.172802537124
    H           -1.837749472916     1.031921882778    -0.993958498646
    H           -1.979666168361     1.093126205807     0.737421033672
    H           -3.061676979486    -1.155609606375    -1.024828228716
    H           -4.019968380090     0.099619813200    -0.267506008756
    H           -3.204828417761    -1.095172242769     0.720333785165

  Mulliken Charges: (a.u.)
   Center  Symbol    Alpha    Beta     Spin     Total
       1     H     0.46418  0.46418  0.00000  0.07165
       2     C     2.91221  2.91221  0.00000  0.17557
       3     C     3.07952  3.07952  0.00000 -0.15904
       4     O     4.16390  4.16390  0.00000 -0.32781
       5     C     3.10251  3.10251  0.00000 -0.20502
       6     H     0.43982  0.43982  0.00000  0.12037
       7     H     0.44427  0.44427  0.00000  0.11146
       8     C     3.08473  3.08473  0.00000 -0.16946
       9     H     0.44876  0.44876  0.00000  0.10247
      10     H     0.45244  0.45244  0.00000  0.09512
      11     C     3.14899  3.14899  0.00000 -0.29799
      12     H     0.45112  0.45112  0.00000  0.09776
      13     H     0.45281  0.45281  0.00000  0.09438
      14     H     0.45379  0.45379  0.00000  0.09241
      15     H     0.44648  0.44648  0.00000  0.10704
      16     H     0.45446  0.45446  0.00000  0.09108

   Total alpha = 24.00000, Total beta = 24.00000, Total charge = -0.00000

*** Psi4 exiting successfully. Buy a developer a beer!
