  ==> Input File <==

--------------------------------------------------------------------------
set {
	reference rhf
	basis 6-31G*
}

set_num_threads( 1 )
memory 2 gb

molecule MOL {
0 1

H	 -3.261111	 -0.295142	 1.469456
C	 -3.306842	 -0.277400	 0.373456
C	 -2.660244	 0.921717	 -0.272021
O	 -3.838538	 -1.161155	 -0.216482
C	 -1.220012	 1.144545	 0.209990
H	 -2.705793	 0.797307	 -1.347733
H	 -3.263782	 1.790044	 -0.010477
C	 -0.252658	 0.041456	 -0.226725
H	 -0.873521	 2.100229	 -0.171974
H	 -1.211708	 1.231594	 1.295398
C	 1.180775	 0.282413	 0.250794
H	 -0.266029	 -0.034465	 -1.312038
H	 -0.597733	 -0.921000	 0.146291
C	 2.148627	 -0.814315	 -0.201312
H	 1.516199	 1.249228	 -0.115937
H	 1.192670	 0.346017	 1.338083
C	 3.580890	 -0.659131	 0.322722
H	 2.166869	 -0.852443	 -1.289387
H	 1.762857	 -1.776509	 0.128956
C	 4.669146	 -1.070476	 -0.670311
H	 3.684384	 -1.261845	 1.221595
H	 3.742431	 0.372227	 0.629524
H	 4.523440	 -2.093472	 -1.007234
H	 4.681697	 -0.431887	 -1.547249
H	 5.651400	 -1.011276	 -0.211326

	symmetry c1
}
set optking {
	frozen_dihedral = ("
		6 3 5 8,
		6 3 2 4,
		3 5 8 12,
		12 8 11 14,
		8 11 14 18
	")
}

ee = energy('scf')
oeprop('DIPOLE', 'QUADRUPOLE', 'MULLIKEN_CHARGES')
f=open( 'psi4out.xyz', 'w' )
f.write( "25  " )
f.write( str(ee) + "\n" )
f.write( MOL.save_string_xyz() )
f.close()
--------------------------------------------------------------------------

    Molecular point group: c1

    Geometry (in Angstrom), charge = 0, multiplicity = 1:

       Center              X                  Y                   Z               Mass
    ------------   -----------------  -----------------  -----------------  -----------------
           H         -3.301326193535    -0.103568235527     1.522637987322     1.007825032070
           C         -3.347057193535    -0.085826235527     0.426637987322    12.000000000000
           C         -2.700459193535     1.113290764473    -0.218839012678    12.000000000000
           O         -3.878753193535    -0.969581235527    -0.163300012678    15.994914619560
           C         -1.260227193535     1.336118764473     0.263171987322    12.000000000000
           H         -2.746008193535     0.988880764473    -1.294551012678     1.007825032070
           H         -3.303997193535     1.981617764473     0.042704987322     1.007825032070
           C         -0.292873193535     0.233029764473    -0.173543012678    12.000000000000
           H         -0.913736193535     2.291802764473    -0.118792012678     1.007825032070
           H         -1.251923193535     1.423167764473     1.348579987322     1.007825032070
           C          1.140559806465     0.473986764473     0.303975987322    12.000000000000
           H         -0.306244193535     0.157108764473    -1.258856012678     1.007825032070
           H         -0.637948193535    -0.729426235527     0.199472987322     1.007825032070
           C          2.108411806465    -0.622741235527    -0.148130012678    12.000000000000
           H          1.475983806465     1.440801764473    -0.062755012678     1.007825032070
           H          1.152454806465     0.537590764473     1.391264987322     1.007825032070
           C          3.540674806465    -0.467557235527     0.375903987322    12.000000000000
           H          2.126653806465    -0.660869235527    -1.236205012678     1.007825032070
           H          1.722641806465    -1.584935235527     0.182137987322     1.007825032070
           C          4.628930806465    -0.878902235527    -0.617129012678    12.000000000000
           H          3.644168806465    -1.070271235527     1.274776987322     1.007825032070
           H          3.702215806465     0.563800764473     0.682705987322     1.007825032070
           H          4.483224806465    -1.901898235527    -0.954052012678     1.007825032070
           H          4.641481806465    -0.240313235527    -1.494067012678     1.007825032070
           H          5.611184806465    -0.819702235527    -0.158144012678     1.007825032070

  Charge       = 0
  Multiplicity = 1
  Basis Set: 6-31G*
  Basis Set:

    Orbital Energies (a.u.)
    -----------------------

    Doubly Occupied:

       1A    -20.562026     2A    -11.326168     3A    -11.235411
       4A    -11.234692     5A    -11.223844     6A    -11.220901
       7A    -11.216887     8A    -11.215944     9A    -11.210815
      10A     -1.402010    11A     -1.103745    12A     -1.068971
      13A     -1.015127    14A     -0.943577    15A     -0.869453
      16A     -0.815683    17A     -0.792800    18A     -0.786806
      19A     -0.664611    20A     -0.662977    21A     -0.637200
      22A     -0.614680    23A     -0.609422    24A     -0.590772
      25A     -0.568776    26A     -0.556319    27A     -0.534280
      28A     -0.519930    29A     -0.512318    30A     -0.499578
      31A     -0.484873    32A     -0.480121    33A     -0.464532
      34A     -0.459586    35A     -0.440792    36A     -0.409577

  @DF-RHF Final Energy:  -387.11939305001539

   => Energetics <=

    Nuclear Repulsion Energy =            435.3641880285701404
    One-Electron Energy =               -1387.0565134960249907
    Two-Electron Energy =                 564.5729324174392332
    DFT Exchange-Correlation Energy =       0.0000000000000000
    Empirical Dispersion Energy =           0.0000000000000000
    PCM Polarization Energy =               0.0000000000000000
    EFP Energy =                            0.0000000000000000
    Total Energy =                       -387.1193930500155602

  Mulliken Charges: (a.u.)
   Center  Symbol    Alpha    Beta     Spin     Total
       1     H     0.43260  0.43260  0.00000  0.13481
       2     C     2.83085  2.83085  0.00000  0.33830
       3     C     3.20807  3.20807  0.00000 -0.41613
       4     O     4.23775  4.23775  0.00000 -0.47549
       5     C     3.16662  3.16662  0.00000 -0.33325
       6     H     0.39968  0.39968  0.00000  0.20065
       7     H     0.40668  0.40668  0.00000  0.18665
       8     C     3.15571  3.15571  0.00000 -0.31142
       9     H     0.41286  0.41286  0.00000  0.17429
      10     H     0.41958  0.41958  0.00000  0.16084
      11     C     3.15410  3.15410  0.00000 -0.30821
      12     H     0.41782  0.41782  0.00000  0.16435
      13     H     0.41829  0.41829  0.00000  0.16342
      14     C     3.15383  3.15383  0.00000 -0.30766
      15     H     0.42225  0.42225  0.00000  0.15551
      16     H     0.42302  0.42302  0.00000  0.15395
      17     C     3.15360  3.15360  0.00000 -0.30720
      18     H     0.42120  0.42120  0.00000  0.15759
      19     H     0.42059  0.42059  0.00000  0.15882
      20     C     3.24019  3.24019  0.00000 -0.48038
      21     H     0.42098  0.42098  0.00000  0.15805
      22     H     0.42181  0.42181  0.00000  0.15638
      23     H     0.42097  0.42097  0.00000  0.15807
      24     H     0.42117  0.42117  0.00000  0.15766
      25     H     0.41979  0.41979  0.00000  0.16042

   Total alpha = 36.00000, Total beta = 36.00000, Total charge =  0.00000
