  ==> Input File <==

--------------------------------------------------------------------------
set {
	reference rhf
	basis 6-31G*
}

set_num_threads( 4 )
memory 2 gb

molecule MOL {
0 1

H	 -4.127496	 0.784045	 -0.593929
O	 -3.451986	 0.121101	 -0.584133
C	 -2.235649	 0.692220	 -0.175553
C	 -1.177863	 -0.397191	 -0.171080
H	 -1.942477	 1.493911	 -0.852051
H	 -2.330353	 1.123946	 0.819928
C	 0.198102	 0.111031	 0.262842
H	 -1.121958	 -0.823510	 -1.169005
H	 -1.509467	 -1.192985	 0.490151
C	 1.331804	 -0.827780	 -0.158768
H	 0.361943	 1.100838	 -0.156218
H	 0.217265	 0.229072	 1.345532
C	 2.723619	 -0.410569	 0.329459
H	 1.342964	 -0.912588	 -1.244120
H	 1.116806	 -1.824343	 0.220779
C	 3.243875	 0.895854	 -0.272975
H	 3.424222	 -1.207124	 0.091250
H	 2.714788	 -0.329854	 1.414619
H	 3.251977	 0.848779	 -1.358681
H	 2.637085	 1.747371	 0.016682
H	 4.259473	 1.094070	 0.055697

	symmetry c1
}
set optking {
	frozen_dihedral = ("
		8 4 7 10
	")
}

ee = optimize('scf')
oeprop('DIPOLE', 'QUADRUPOLE', 'MULLIKEN_CHARGES')
f=open( 'psi4out.xyz', 'w' )
f.write( "21  " )
f.write( str(ee) + "\n" )
f.write( MOL.save_string_xyz() )
f.close()
--------------------------------------------------------------------------

    Molecular point group: c1
  Charge       = 0
  Multiplicity = 1
  Basis Set: 6-31G*
  Basis Set:
  @DF-RHF Final Energy:  -310.21173414426937
    Total Energy =                       -310.2117341442694283
    Molecular point group: c1
  Basis Set: 6-31G*
  Basis Set:
  Basis Set: 6-31G*
  Basis Set:
  @DF-RHF Final Energy:  -310.21183052165190
    Total Energy =                       -310.2118305216517911
  Basis Set: 6-31G*
  Basis Set:
  Basis Set: 6-31G*
  Basis Set:
  @DF-RHF Final Energy:  -310.21180345187702
    Total Energy =                       -310.2118034518773015
  Basis Set: 6-31G*
  Basis Set:
  Basis Set: 6-31G*
  Basis Set:
  @DF-RHF Final Energy:  -310.21187559188286
    Total Energy =                       -310.2118755918827446
  Basis Set: 6-31G*
  Basis Set:
  Basis Set: 6-31G*
  Basis Set:
  @DF-RHF Final Energy:  -310.21187352549413
    Total Energy =                       -310.2118735254944113
  Basis Set: 6-31G*
  Basis Set:
  Basis Set: 6-31G*
  Basis Set:
  @DF-RHF Final Energy:  -310.21187868215986
    Total Energy =                       -310.2118786821597496
  Basis Set: 6-31G*
  Basis Set:
  Charge       = 0
  Multiplicity = 1
  Basis Set: 6-31G*
  Basis Set:

    Orbital Energies (a.u.)
    -----------------------

    Doubly Occupied:

       1A    -20.551963     2A    -11.267338     3A    -11.215671
       4A    -11.215117     5A    -11.213726     6A    -11.210511
       7A    -11.208329     8A     -1.358872     9A     -1.086038
      10A     -1.032963    11A     -0.954453    12A     -0.875822
      13A     -0.807987    14A     -0.778976    15A     -0.692997
      16A     -0.658272    17A     -0.624974    18A     -0.606356
      19A     -0.583766    20A     -0.574334    21A     -0.531723
      22A     -0.522737    23A     -0.511563    24A     -0.483148
      25A     -0.482305    26A     -0.460945    27A     -0.455030
      28A     -0.443254    29A     -0.433729

  @DF-RHF Final Energy:  -310.21187868200946

   => Energetics <=

    Nuclear Repulsion Energy =            312.5994813406568937
    One-Electron Energy =               -1039.9369218499596172
    Two-Electron Energy =                 417.1255618272933816
    DFT Exchange-Correlation Energy =       0.0000000000000000
    Empirical Dispersion Energy =           0.0000000000000000
    PCM Polarization Energy =               0.0000000000000000
    EFP Energy =                            0.0000000000000000
    Total Energy =                       -310.2118786820093419
    Molecular point group: c1
  Basis Set: 6-31G*
  Basis Set:

  -Total Gradient:
     Atom            X                  Y                   Z
    ------   -----------------  -----------------  -----------------
       1        0.000003675003     0.000000978622     0.000001808102
       2        0.000002039210    -0.000005113178    -0.000001979286
       3        0.000000992657     0.000007170154    -0.000000522390
       4       -0.000691877118     0.003620154779    -0.002231713985
       5       -0.000001247362     0.000000512019    -0.000000595888
       6       -0.000000419336    -0.000000272991    -0.000000066543
       7       -0.000101380315    -0.002019034730     0.002858577150
       8        0.000610112754    -0.002593649572     0.001223642024
       9        0.000000539320    -0.000002519384     0.000001338257
      10        0.000179482418     0.000990769383    -0.001857573590
      11       -0.000004534767     0.000001051262     0.000001166329
      12       -0.000000700212    -0.000002367349    -0.000002043636
      13       -0.000001032795     0.000004525970     0.000006853897
      14       -0.000001670426    -0.000003539534    -0.000000562040
      15       -0.000002225821     0.000001536357     0.000000011324
      16        0.000001731517    -0.000002873716    -0.000001200020
      17        0.000003745531     0.000006653010    -0.000000582359
      18        0.000000691337    -0.000002907341     0.000001981485
      19       -0.000003717972     0.000000501977     0.000001423551
      20        0.000003972463    -0.000001108979     0.000002446320
      21        0.000001823915    -0.000000466758    -0.000002408703

  **** Optimization is complete! (in 7 steps) ****
    Final optimized geometry and variables:
    Molecular point group: c1

    Geometry (in Angstrom), charge = 0, multiplicity = 1:

    H           -4.173957844412     0.707017354343    -0.399628028393
    O           -3.493493609183     0.049115220415    -0.392365387913
    C           -2.264213769609     0.644676116889    -0.066951625763
    C           -1.196652952826    -0.433646270299    -0.071927548373
    H           -2.011474918776     1.421074246748    -0.787681566035
    H           -2.313208277736     1.114834542887     0.914601812472
    C            0.184816873037     0.085102851941     0.340987588332
    H           -1.152128711067    -0.887886261498    -1.057975492406
    H           -1.509977035886    -1.224885315429     0.603920811937
    C            1.314755224491    -0.866584234842    -0.061732375247
    H            0.355483104237     1.056649097200    -0.118023037578
    H            0.207073890757     0.248852460023     1.416663262633
    C            2.702893660068    -0.467091751964     0.450507247425
    H            1.340828634412    -0.946684026430    -1.146927672478
    H            1.083028341150    -1.862803487879     0.310010889578
    C            3.238642910765     0.845834460874    -0.123620552470
    H            3.401301270245    -1.264311796141     0.208094776572
    H            2.680768281940    -0.403912601969     1.536588479995
    H            3.257007079110     0.818122017690    -1.209910810064
    H            2.635095135600     1.696425051977     0.175492909123
    H            4.252380824217     1.030658693482     0.218279780505

  Mulliken Charges: (a.u.)
   Center  Symbol    Alpha    Beta     Spin     Total
       1     H     0.28115  0.28115  0.00000  0.43770
       2     O     4.37162  4.37162  0.00000 -0.74323
       3     C     2.99044  2.99044  0.00000  0.01912
       4     C     3.15977  3.15977  0.00000 -0.31953
       5     H     0.43259  0.43259  0.00000  0.13483
       6     H     0.43285  0.43285  0.00000  0.13430
       7     C     3.16199  3.16199  0.00000 -0.32398
       8     H     0.41478  0.41478  0.00000  0.17043
       9     H     0.41391  0.41391  0.00000  0.17218
      10     C     3.15271  3.15271  0.00000 -0.30542
      11     H     0.42287  0.42287  0.00000  0.15427
      12     H     0.42186  0.42186  0.00000  0.15628
      13     C     3.15259  3.15259  0.00000 -0.30518
      14     H     0.42291  0.42291  0.00000  0.15418
      15     H     0.42079  0.42079  0.00000  0.15842
      16     C     3.24135  3.24135  0.00000 -0.48270
      17     H     0.42066  0.42066  0.00000  0.15869
      18     H     0.42332  0.42332  0.00000  0.15335
      19     H     0.42217  0.42217  0.00000  0.15566
      20     H     0.42052  0.42052  0.00000  0.15897
      21     H     0.41917  0.41917  0.00000  0.16167

   Total alpha = 29.00000, Total beta = 29.00000, Total charge =  0.00000
