  ==> Input File <==

--------------------------------------------------------------------------
set {
	reference rhf
	basis cc-pvtz
}

set_num_threads( 4 )
memory 2 gb

molecule MOL {
0 1

H	 -3.822262	 -2.256663	 0.327743
C	 -2.752273	 -2.172261	 0.340986
C	 -1.981284	 -3.237948	 0.769389
C	 -2.148819	 -0.998887	 -0.070137
H	 -2.450371	 -4.148398	 1.088353
C	 -0.606407	 -3.128738	 0.786121
H	 -2.747616	 -0.173019	 -0.402187
C	 -0.772252	 -0.887993	 -0.053959
H	 0.005619	 -3.943900	 1.114744
C	 0.003190	 -1.953609	 0.374602
H	 -0.301760	 0.019317	 -0.371697
C	 1.492134	 -1.885755	 0.411473
O	 1.968286	 -0.725612	 -0.000027
O	 2.184173	 -2.778043	 0.772144
C	 3.373556	 -0.568203	 0.000011
H	 3.695416	 -0.031588	 -0.879663
H	 3.782700	 -1.565294	 -0.000152
H	 3.695405	 -0.031851	 0.879862

	symmetry c1
}
set optking {
	frozen_dihedral = ("
		12 13 15 16
	")
}

ee = optimize('scf')
oeprop('DIPOLE', 'QUADRUPOLE', 'MULLIKEN_CHARGES')
f=open( 'psi4out.xyz', 'w' )
f.write( "18  " )
f.write( str(ee) + "\n" )
f.write( MOL.save_string_xyz() )
f.close()
--------------------------------------------------------------------------

    Molecular point group: c1
  Charge       = 0
  Multiplicity = 1
  Basis Set: CC-PVTZ
  Basis Set:
  @DF-RHF Final Energy:  -457.50669092938705
    Total Energy =                       -457.5066909293866502
    Molecular point group: c1
  Basis Set: CC-PVTZ
  Basis Set:
  Basis Set: CC-PVTZ
  Basis Set:
  @DF-RHF Final Energy:  -457.50784572047968
    Total Energy =                       -457.5078457204795086
  Basis Set: CC-PVTZ
  Basis Set:
  Basis Set: CC-PVTZ
  Basis Set:
  @DF-RHF Final Energy:  -457.50837596738711
    Total Energy =                       -457.5083759673866552
  Basis Set: CC-PVTZ
  Basis Set:
  Basis Set: CC-PVTZ
  Basis Set:
  @DF-RHF Final Energy:  -457.50830276454900
    Total Energy =                       -457.5083027645492848
  Basis Set: CC-PVTZ
  Basis Set:
  Basis Set: CC-PVTZ
  Basis Set:
  @DF-RHF Final Energy:  -457.50854523328275
    Total Energy =                       -457.5085452332826890
  Basis Set: CC-PVTZ
  Basis Set:
  Charge       = 0
  Multiplicity = 1
  Basis Set: CC-PVTZ
  Basis Set:

    Orbital Energies (a.u.)
    -----------------------

    Doubly Occupied:

       1A    -20.600140     2A    -20.533813     3A    -11.372925
       4A    -11.280174     5A    -11.244651     6A    -11.243236
       7A    -11.242335     8A    -11.239703     9A    -11.235759
      10A    -11.234995    11A     -1.474976    12A     -1.368998
      13A     -1.170418    14A     -1.051597    15A     -1.028727
      16A     -0.981421    17A     -0.862829    18A     -0.838119
      19A     -0.780626    20A     -0.745007    21A     -0.688287
      22A     -0.680047    23A     -0.676081    24A     -0.634184
      25A     -0.629789    26A     -0.600952    27A     -0.587423
      28A     -0.570284    29A     -0.527061    30A     -0.520011
      31A     -0.509989    32A     -0.501624    33A     -0.461465
      34A     -0.449617    35A     -0.350037    36A     -0.345930

  @DF-RHF Final Energy:  -457.50855115374696

   => Energetics <=

    Nuclear Repulsion Energy =            493.6811961041010477
    One-Electron Energy =               -1601.8530323357363159
    Two-Electron Energy =                 650.6632850778879629
    DFT Exchange-Correlation Energy =       0.0000000000000000
    Empirical Dispersion Energy =           0.0000000000000000
    PCM Polarization Energy =               0.0000000000000000
    EFP Energy =                            0.0000000000000000
    Total Energy =                       -457.5085511537473622
    Molecular point group: c1
  Basis Set: CC-PVTZ
  Basis Set:

  -Total Gradient:
     Atom            X                  Y                   Z
    ------   -----------------  -----------------  -----------------
       1        0.000000317233     0.000000350713    -0.000000999425
       2       -0.000002943207    -0.000010016582     0.000004140773
       3       -0.000015824127     0.000004359166    -0.000001404670
       4        0.000006249710    -0.000000916165     0.000002967378
       5       -0.000000952467    -0.000000085990    -0.000000092109
       6        0.000012429798     0.000005468525    -0.000006706551
       7       -0.000001232018     0.000000223667     0.000000988748
       8       -0.000007996975     0.000004243389    -0.000004663667
       9       -0.000000956423     0.000000751431     0.000001315608
      10       -0.000027691981     0.000004272288     0.000014104695
      11       -0.000003688194    -0.000006014138     0.000002105189
      12        0.000072091731    -0.000407625610    -0.001160252967
      13        0.000038361672     0.000413200078     0.001459780826
      14        0.000025482033     0.000038223951     0.000003023185
      15       -0.000234373213     0.001128814569     0.000358144722
      16        0.000093532951    -0.001139230022    -0.000644331771
      17        0.000062523981    -0.000046372903    -0.000003187755
      18       -0.000015330500     0.000010353636    -0.000024932213

  **** Optimization is complete! (in 6 steps) ****
    Final optimized geometry and variables:
    Molecular point group: c1

    Geometry (in Angstrom), charge = 0, multiplicity = 1:

    H           -4.026620631513    -0.417137114276    -0.025016793460
    C           -2.956020450668    -0.341954256320    -0.004391507181
    C           -2.197014102031    -1.415064519172     0.427025241386
    C           -2.339519451032     0.826896262103    -0.408795562982
    H           -2.675959854606    -2.322174467925     0.741020833873
    C           -0.821399927615    -1.317617928008     0.453392328478
    H           -2.928697087411     1.658802510480    -0.743103777579
    C           -0.962039682437     0.925920983173    -0.383115333406
    H           -0.218939336225    -2.138767415435     0.784769651850
    C           -0.198557955412    -0.147064658488     0.048292761886
    H           -0.482035046485     1.830019467686    -0.695540711138
    C            1.291933969896    -0.094017756220     0.095821683438
    O            1.774073777777     1.067233710957    -0.307434571221
    O            1.967354007539    -0.997576975443     0.458588334918
    C            3.176018569257     1.255538910723    -0.344228729214
    H            3.393297280919     1.812148004770    -1.242543211772
    H            3.690248441600     0.310024310343    -0.361461565235
    H            3.482249132163     1.821299897813     0.524137274673

  Mulliken Charges: (a.u.)
   Center  Symbol    Alpha    Beta     Spin     Total
       1     H     0.42034  0.42034  0.00000  0.15933
       2     C     3.06974  3.06974  0.00000 -0.13948
       3     C     3.07555  3.07555  0.00000 -0.15110
       4     C     3.07487  3.07487  0.00000 -0.14974
       5     H     0.42047  0.42047  0.00000  0.15907
       6     C     3.07591  3.07591  0.00000 -0.15183
       7     H     0.42197  0.42197  0.00000  0.15607
       8     C     3.08197  3.08197  0.00000 -0.16394
       9     H     0.40641  0.40641  0.00000  0.18718
      10     C     3.01795  3.01795  0.00000 -0.03591
      11     H     0.41118  0.41118  0.00000  0.17763
      12     C     2.77553  2.77553  0.00000  0.44893
      13     O     4.14992  4.14992  0.00000 -0.29983
      14     O     4.21142  4.21142  0.00000 -0.42284
      15     C     3.04062  3.04062  0.00000 -0.08124
      16     H     0.44937  0.44937  0.00000  0.10126
      17     H     0.44214  0.44214  0.00000  0.11573
      18     H     0.45465  0.45465  0.00000  0.09071

   Total alpha = 36.00000, Total beta = 36.00000, Total charge = -0.00000
