  ==> Input File <==

--------------------------------------------------------------------------
set {
	reference rhf
	basis cc-pvtz
}

set_num_threads( 4 )
memory 2 gb

molecule MOL {
0 1

H	 1.091845	 0.277429	 0.773942
C	 0.788096	 -0.429819	 0.000000
N	 -0.537714	 -0.645117	 0.000000
O	 1.577527	 -0.928881	 -0.737871
C	 -1.522613	 0.412524	 0.000000
H	 -0.845894	 -1.585866	 0.000000
H	 -2.150256	 0.356137	 -0.880771
H	 -1.005621	 1.357208	 0.000000
H	 -2.150256	 0.356137	 0.880771

	symmetry c1
}
set optking {
	frozen_dihedral = ("
		1 2 3 6
	")
}

ee = optimize('scf')
oeprop('DIPOLE', 'QUADRUPOLE', 'MULLIKEN_CHARGES')
f=open( 'psi4out.xyz', 'w' )
f.write( "9  " )
f.write( str(ee) + "\n" )
f.write( MOL.save_string_xyz() )
f.close()
--------------------------------------------------------------------------

    Molecular point group: c1
  Charge       = 0
  Multiplicity = 1
  Basis Set: CC-PVTZ
  Basis Set:
  @DF-RHF Final Energy:  -208.01905672921640
    Total Energy =                       -208.0190567292162314
    Molecular point group: c1
  Basis Set: CC-PVTZ
  Basis Set:
  Basis Set: CC-PVTZ
  Basis Set:
  @DF-RHF Final Energy:  -208.02345893256444
    Total Energy =                       -208.0234589325643810
  Basis Set: CC-PVTZ
  Basis Set:
  Basis Set: CC-PVTZ
  Basis Set:
  @DF-RHF Final Energy:  -208.02776723434488
    Total Energy =                       -208.0277672343448501
  Basis Set: CC-PVTZ
  Basis Set:
  Basis Set: CC-PVTZ
  Basis Set:
  @DF-RHF Final Energy:  -208.03072230470869
    Total Energy =                       -208.0307223047086325
  Basis Set: CC-PVTZ
  Basis Set:
  @DF-RHF Final Energy:  -208.03129468509428
    Total Energy =                       -208.0312946850942808
  @DF-RHF Final Energy:  -208.03149675369338
    Total Energy =                       -208.0314967536933750
  @DF-RHF Final Energy:  -208.03162821021664
    Total Energy =                       -208.0316282102165530
  @DF-RHF Final Energy:  -208.03188807096916
    Total Energy =                       -208.0318880709691030
  @DF-RHF Final Energy:  -208.03167906739066
    Total Energy =                       -208.0316790673906837
  @DF-RHF Final Energy:  -208.03191097256641
    Total Energy =                       -208.0319109725663225
  @DF-RHF Final Energy:  -208.03198194221952
    Total Energy =                       -208.0319819422196019
  @DF-RHF Final Energy:  -208.03199265545047
    Total Energy =                       -208.0319926554504946
  @DF-RHF Final Energy:  -208.03202378717015
    Total Energy =                       -208.0320237871700897
  @DF-RHF Final Energy:  -208.03208266361264
    Total Energy =                       -208.0320826636126412
  @DF-RHF Final Energy:  -208.03210746462378
    Total Energy =                       -208.0321074646237207
  @DF-RHF Final Energy:  -208.03211082320161
    Total Energy =                       -208.0321108232015490
  @DF-RHF Final Energy:  -208.03210563025618
    Total Energy =                       -208.0321056302560692
  @DF-RHF Final Energy:  -208.03194585705870
    Total Energy =                       -208.0319458570587585
  @DF-RHF Final Energy:  -208.03211165567984
    Total Energy =                       -208.0321116556798415
  @DF-RHF Final Energy:  -208.03199398985015
    Total Energy =                       -208.0319939898502639
  @DF-RHF Final Energy:  -208.03211976764379
    Total Energy =                       -208.0321197676438771
  @DF-RHF Final Energy:  -208.03212020718797
    Total Energy =                       -208.0321202071880009
  @DF-RHF Final Energy:  -208.03212022524340
    Total Energy =                       -208.0321202252434034
  @DF-RHF Final Energy:  -208.03211999234424
    Total Energy =                       -208.0321199923442350
  @DF-RHF Final Energy:  -208.03212021265114
    Total Energy =                       -208.0321202126511366
  @DF-RHF Final Energy:  -208.03212023078717
    Total Energy =                       -208.0321202307871999
  @DF-RHF Final Energy:  -208.03212023299375
    Total Energy =                       -208.0321202329936625
  @DF-RHF Final Energy:  -208.03212022127443
    Total Energy =                       -208.0321202212745959
  @DF-RHF Final Energy:  -208.03212022386003
    Total Energy =                       -208.0321202238600335
  @DF-RHF Final Energy:  -208.03212021930341
    Total Energy =                       -208.0321202193034935
  @DF-RHF Final Energy:  -208.03212016447998
    Total Energy =                       -208.0321201644800340
  @DF-RHF Final Energy:  -208.03211953701143
    Total Energy =                       -208.0321195370115106
  @DF-RHF Final Energy:  -208.03212022175592
    Total Energy =                       -208.0321202217560597
  @DF-RHF Final Energy:  -208.03212021590298
    Total Energy =                       -208.0321202159029781
  @DF-RHF Final Energy:  -208.03212021189836
    Total Energy =                       -208.0321202118983024
  @DF-RHF Final Energy:  -208.03212020774959
    Total Energy =                       -208.0321202077494718
  Basis Set: CC-PVTZ
  Basis Set:
  @DF-RHF Final Energy:  -208.03212020533130
    Total Energy =                       -208.0321202053315233
  Basis Set: CC-PVTZ
  Basis Set:
  Basis Set: CC-PVTZ
  Basis Set:
  @DF-RHF Final Energy:  -208.03212020265062
    Total Energy =                       -208.0321202026507024
  Basis Set: CC-PVTZ
  Basis Set:
  Basis Set: CC-PVTZ
  Basis Set:
  @DF-RHF Final Energy:  -208.03212018554325
    Total Energy =                       -208.0321201855433628
  Basis Set: CC-PVTZ
  Basis Set:
  Charge       = 0
  Multiplicity = 1
  Basis Set: CC-PVTZ
  Basis Set:

    Orbital Energies (a.u.)
    -----------------------

    Doubly Occupied:

       1A    -20.533361     2A    -15.578603     3A    -11.343555
       4A    -11.268409     5A     -1.406841     6A     -1.239445
       7A     -0.956091     8A     -0.839938     9A     -0.698619
      10A     -0.680178    11A     -0.641974    12A     -0.587642
      13A     -0.566774    14A     -0.544091    15A     -0.439261
      16A     -0.403317

  @DF-RHF Final Energy:  -208.03211995569799

   => Energetics <=

    Nuclear Repulsion Energy =            120.5735441781257862
    One-Electron Energy =                -521.7551318862492735
    Two-Electron Energy =                 193.1494677524255508
    DFT Exchange-Correlation Energy =       0.0000000000000000
    Empirical Dispersion Energy =           0.0000000000000000
    PCM Polarization Energy =               0.0000000000000000
    EFP Energy =                            0.0000000000000000
    Total Energy =                       -208.0321199556979650
    Molecular point group: c1
  Basis Set: CC-PVTZ
  Basis Set:

  -Total Gradient:
     Atom            X                  Y                   Z
    ------   -----------------  -----------------  -----------------
       1       -0.002512827358    -0.007146434157     0.008396921681
       2        0.002204693508     0.010367424406    -0.008268680941
       3        0.004157369394    -0.005901452682    -0.010591210617
       4       -0.000124862824     0.000034019182    -0.000048624955
       5        0.000315938167     0.000302380728    -0.000168855422
       6       -0.004028262008     0.002237366442     0.010689280641
       7        0.000047847150     0.000011842307     0.000027543923
       8       -0.000030960283     0.000029333974     0.000031059153
       9       -0.000028935745     0.000065519799    -0.000067433461

    Molecular point group: c1

    Geometry (in Angstrom), charge = 0, multiplicity = 1:

    H            0.826817571684     0.815245807544     0.892461968511
    C            0.682390778942     0.003496080083     0.173802885674
    N           -0.605872610477    -0.118714883222    -0.282823159966
    O            1.559200379956    -0.745881355360    -0.089459435852
    C           -1.580222250270     0.864538427088     0.155390106180
    H           -0.942245381703    -1.053716730349    -0.216587131348
    H           -2.486438319939     0.742692102313    -0.420009973782
    H           -1.205272467824     1.860188040016    -0.036458851628
    H           -1.829971132071     0.787197163927     1.210379645030

  Mulliken Charges: (a.u.)
   Center  Symbol    Alpha    Beta     Spin     Total
       1     H     0.47239  0.47239  0.00000  0.05522
       2     C     2.87497  2.87497  0.00000  0.25005
       3     N     3.60102  3.60102  0.00000 -0.20204
       4     O     4.18831  4.18831  0.00000 -0.37662
       5     C     3.08736  3.08736  0.00000 -0.17471
       6     H     0.42137  0.42137  0.00000  0.15726
       7     H     0.44483  0.44483  0.00000  0.11034
       8     H     0.45031  0.45031  0.00000  0.09938
       9     H     0.45943  0.45943  0.00000  0.08113

   Total alpha = 16.00000, Total beta = 16.00000, Total charge =  0.00000
