  ==> Input File <==

--------------------------------------------------------------------------
set {
	reference rhf
	basis 6-31G*
}

set_num_threads( 1 )
memory 2 gb

molecule MOL {
0 1

H	 -2.399413	 -0.626140	 2.219532
C	 -2.326230	 -1.530380	 1.618586
O	 -1.123787	 -1.581817	 0.920858
H	 -2.360060	 -2.389821	 2.273840
H	 -3.181916	 -1.567574	 0.945648
C	 -0.939545	 -0.532492	 0.024075
C	 0.437584	 -0.635026	 -0.588467
H	 -1.688271	 -0.576089	 -0.767888
H	 -1.037987	 0.427743	 0.526332
O	 1.392611	 -0.295398	 0.366430
H	 0.594834	 -1.649408	 -0.949450
H	 0.500878	 0.039676	 -1.443140
C	 2.706965	 -0.449871	 -0.062409
H	 2.756559	 -0.644779	 -1.131878
H	 3.305899	 0.433456	 0.155466
H	 3.125548	 -1.294566	 0.467107

	symmetry c1
}
set optking {
	frozen_dihedral = ("
		3 6 7 11,
		2 3 6 7
	")
}

ee = energy('scf')
oeprop('DIPOLE', 'QUADRUPOLE', 'MULLIKEN_CHARGES')
f=open( 'psi4out.xyz', 'w' )
f.write( "16  " )
f.write( str(ee) + "\n" )
f.write( MOL.save_string_xyz() )
f.close()
--------------------------------------------------------------------------

    Molecular point group: c1

    Geometry (in Angstrom), charge = 0, multiplicity = 1:

       Center              X                  Y                   Z               Mass
    ------------   -----------------  -----------------  -----------------  -----------------
           H         -2.426705373535     0.214424503788     1.833101938185     1.007825032070
           C         -2.353522373535    -0.689815496212     1.232155938185    12.000000000000
           O         -1.151079373535    -0.741252496212     0.534427938185    15.994914619560
           H         -2.387352373535    -1.549256496212     1.887409938185     1.007825032070
           H         -3.209208373535    -0.727009496212     0.559217938185     1.007825032070
           C         -0.966837373535     0.308072503788    -0.362355061815    12.000000000000
           C          0.410291626465     0.205538503788    -0.974897061815    12.000000000000
           H         -1.715563373535     0.264475503788    -1.154318061815     1.007825032070
           H         -1.065279373535     1.268307503788     0.139901938185     1.007825032070
           O          1.365318626465     0.545166503788    -0.020000061815    15.994914619560
           H          0.567541626465    -0.808843496212    -1.335880061815     1.007825032070
           H          0.473585626465     0.880240503788    -1.829570061815     1.007825032070
           C          2.679672626465     0.390693503788    -0.448839061815    12.000000000000
           H          2.729266626465     0.195785503788    -1.518308061815     1.007825032070
           H          3.278606626465     1.274020503788    -0.230964061815     1.007825032070
           H          3.098255626465    -0.454001496212     0.080676938185     1.007825032070

  Charge       = 0
  Multiplicity = 1
  Basis Set: 6-31G*
  Basis Set:

    Orbital Energies (a.u.)
    -----------------------

    Doubly Occupied:

       1A    -20.553413     2A    -20.550149     3A    -11.269471
       4A    -11.268248     5A    -11.263396     6A    -11.262510
       7A     -1.387558     8A     -1.369881     9A     -1.030325
      10A     -0.935363    11A     -0.892106    12A     -0.824828
      13A     -0.683373    14A     -0.679065    15A     -0.657392
      16A     -0.635395    17A     -0.627355    18A     -0.596146
      19A     -0.554576    20A     -0.537082    21A     -0.506606
      22A     -0.477909    23A     -0.463504    24A     -0.417560
      25A     -0.406758

  @DF-RHF Final Energy:  -306.97332561171180

   => Energetics <=

    Nuclear Repulsion Energy =            258.8833223056220163
    One-Electron Energy =                -932.0132674132576085
    Two-Electron Energy =                 366.1566194959233371
    DFT Exchange-Correlation Energy =       0.0000000000000000
    Empirical Dispersion Energy =           0.0000000000000000
    PCM Polarization Energy =               0.0000000000000000
    EFP Energy =                            0.0000000000000000
    Total Energy =                       -306.9733256117123119

  Mulliken Charges: (a.u.)
   Center  Symbol    Alpha    Beta     Spin     Total
       1     H     0.42805  0.42805  0.00000  0.14390
       2     C     3.07947  3.07947  0.00000 -0.15895
       3     O     4.30091  4.30091  0.00000 -0.60182
       4     H     0.41135  0.41135  0.00000  0.17731
       5     H     0.43193  0.43193  0.00000  0.13614
       6     C     2.99341  2.99341  0.00000  0.01317
       7     C     2.99539  2.99539  0.00000  0.00922
       8     H     0.43243  0.43243  0.00000  0.13514
       9     H     0.42272  0.42272  0.00000  0.15457
      10     O     4.30287  4.30287  0.00000 -0.60574
      11     H     0.42235  0.42235  0.00000  0.15529
      12     H     0.43173  0.43173  0.00000  0.13655
      13     C     3.07742  3.07742  0.00000 -0.15484
      14     H     0.43092  0.43092  0.00000  0.13817
      15     H     0.41965  0.41965  0.00000  0.16070
      16     H     0.41940  0.41940  0.00000  0.16119

   Total alpha = 25.00000, Total beta = 25.00000, Total charge =  0.00000
