                              Psi4 1.0.54 Driver

  ==> Input File <==

--------------------------------------------------------------------------
set {
	reference rhf
	basis cc-pvtz
}

set_num_threads( 4 )
memory 2 gb

molecule MOL {
0 1

H	 2.614283	 2.028610	 0.296620
O	 3.358864	 1.662087	 -0.142800
C	 3.565468	 0.338079	 0.273842
C	 2.533667	 -0.637565	 -0.272227
H	 4.548038	 0.064914	 -0.086598
H	 3.593945	 0.282242	 1.360360
C	 1.114816	 -0.402372	 0.240993
H	 2.544552	 -0.580764	 -1.356576
H	 2.850574	 -1.642962	 -0.005497
C	 0.660570	 -1.471368	 1.233840
H	 0.429353	 -0.375260	 -0.599488
H	 1.062156	 0.574129	 0.719489
C	 -0.726876	 -1.245206	 1.837245
H	 0.686363	 -2.443736	 0.747977
H	 1.383302	 -1.519452	 2.043665
C	 -1.887656	 -1.361088	 0.850886
H	 -0.875350	 -1.971021	 2.632025
H	 -0.755755	 -0.267589	 2.313255
C	 -3.254105	 -1.226345	 1.518023
H	 -1.831141	 -2.321468	 0.343005
H	 -1.798985	 -0.602892	 0.078694
C	 -4.415195	 -1.337815	 0.535507
H	 -3.356275	 -1.990319	 2.283844
H	 -3.309076	 -0.270927	 2.033016
H	 -4.406944	 -2.296263	 0.027032
H	 -5.368971	 -1.240623	 1.041444
H	 -4.362904	 -0.563043	 -0.222349

	symmetry c1
}
set optking {
	frozen_dihedral = ("
		10 7 4 8
	")
}

ee,wfn = optimize('scf', return_wfn=True)
oeprop( wfn, 'DIPOLE', 'QUADRUPOLE', 'MULLIKEN_CHARGES')
f=open( 'psi4out.xyz', 'w' )
f.write( "27  " )
f.write( str(ee) + "\n" )
f.write( MOL.save_string_xyz() )
f.close()
--------------------------------------------------------------------------

    Molecular point group: c1
  Charge       = 0
  Multiplicity = 1
  Basis Set: CC-PVTZ
  Basis Set:
  @DF-RHF Final Energy:  -388.42248813106971
    Total Energy =                       -388.4224881310703950
    Molecular point group: c1
  Basis Set: CC-PVTZ
  Basis Set:
  Basis Set: CC-PVTZ
  Basis Set:
  @DF-RHF Final Energy:  -388.42277958288616
    Total Energy =                       -388.4227795828861645
  Basis Set: CC-PVTZ
  Basis Set:
  Basis Set: CC-PVTZ
  Basis Set:
  @DF-RHF Final Energy:  -388.42289998189784
    Total Energy =                       -388.4228999818978991
  Basis Set: CC-PVTZ
  Basis Set:
  Basis Set: CC-PVTZ
  Basis Set:
  @DF-RHF Final Energy:  -388.42290517602595
    Total Energy =                       -388.4229051760261200
  Basis Set: CC-PVTZ
  Basis Set:
  Basis Set: CC-PVTZ
  Basis Set:
  @DF-RHF Final Energy:  -388.42290828225771
    Total Energy =                       -388.4229082822580494
  Basis Set: CC-PVTZ
  Basis Set:
  Basis Set: CC-PVTZ
  Basis Set:
  @DF-RHF Final Energy:  -388.42291274600780
    Total Energy =                       -388.4229127460074551
  Basis Set: CC-PVTZ
  Basis Set:
  Charge       = 0
  Multiplicity = 1
  Basis Set: CC-PVTZ
  Basis Set:

    Orbital Energies (a.u.)
    -----------------------

    Doubly Occupied:

       1A    -20.544603     2A    -11.265051     3A    -11.218498
       4A    -11.216605     5A    -11.214454     6A    -11.214291
       7A    -11.213621     8A    -11.212530     9A    -11.207646
      10A     -1.362824    11A     -1.096673    12A     -1.061954
      13A     -1.012125    14A     -0.949182    15A     -0.890540
      16A     -0.824144    17A     -0.801920    18A     -0.778493
      19A     -0.698483    20A     -0.648364    21A     -0.632925
      22A     -0.617971    23A     -0.608383    24A     -0.586023
      25A     -0.575812    26A     -0.559317    27A     -0.542451
      28A     -0.525728    29A     -0.513627    30A     -0.497720
      31A     -0.485501    32A     -0.475043    33A     -0.469094
      34A     -0.462024    35A     -0.447925    36A     -0.440263
      37A     -0.429014

  @DF-RHF Final Energy:  -388.42291293889429

   => Energetics <=

    Nuclear Repulsion Energy =            459.5617374588794632
    One-Electron Energy =               -1437.3676542899092965
    Two-Electron Energy =                 589.3830038921352070
    DFT Exchange-Correlation Energy =       0.0000000000000000
    Empirical Dispersion Energy =           0.0000000000000000
    PCM Polarization Energy =               0.0000000000000000
    EFP Energy =                            0.0000000000000000
    Total Energy =                       -388.4229129388946831
    Molecular point group: c1
  Basis Set: CC-PVTZ
  Basis Set:

  -Total Gradient:
     Atom            X                  Y                   Z
    ------   -----------------  -----------------  -----------------
       1        0.000000938543     0.000005619137     0.000000147168
       2       -0.000011465960     0.000020479353    -0.000002019522
       3       -0.000005272215    -0.000036810472    -0.000009400588
       4        0.000211156053     0.001944495555    -0.000248301835
       5        0.000004198527     0.000000816586     0.000005866083
       6        0.000000437672     0.000005149839    -0.000002444181
       7        0.000540920663     0.000566616114     0.001369482176
       8       -0.000291131234    -0.001787555054    -0.000108286963
       9       -0.000002339176    -0.000003845444    -0.000003271890
      10       -0.000459361590    -0.000716645823    -0.000993301675
      11       -0.000000394375     0.000004559130    -0.000004075047
      12       -0.000002244611     0.000006594507    -0.000002859843
      13        0.000008302528    -0.000009690376    -0.000006050868
      14       -0.000002582119    -0.000005293133     0.000002920709
      15       -0.000003321864    -0.000003205513     0.000007577940
      16        0.000005131662     0.000009089993    -0.000003038050
      17        0.000005680444    -0.000001897935    -0.000000954537
      18        0.000001827498     0.000001527822    -0.000002070671
      19        0.000001307863    -0.000001460275     0.000000562367
      20        0.000000117256     0.000002836001     0.000000798577
      21        0.000003315797     0.000002104078    -0.000003907889
      22       -0.000002139795    -0.000002207221     0.000002157467
      23       -0.000001510785     0.000000891135     0.000002096286
      24       -0.000000708221    -0.000000319786    -0.000002091328
      25       -0.000000292826    -0.000000278977    -0.000000668420
      26       -0.000001888289    -0.000000579671    -0.000000591336
      27        0.000001318551    -0.000000989569     0.000001725873

  **** Optimization is complete! (in 7 steps) ****
    Final optimized geometry and variables:
    Molecular point group: c1

    Geometry (in Angstrom), charge = 0, multiplicity = 1:

    H            2.434533823969     2.617929048053    -0.514904111419
    O            3.240537172292     2.262617020030    -0.840783752871
    C            3.416761094246     0.949785611103    -0.378975977162
    C            2.399999665507    -0.029440074268    -0.945091962210
    H            4.412038838560     0.661612241358    -0.689070577547
    H            3.397133870931     0.924134780386     0.709173601023
    C            0.960431012863     0.174996507362    -0.432392725593
    H            2.429804800413     0.032508740476    -2.026743283879
    H            2.730365034343    -1.033197208613    -0.692658554915
    C            0.516045440316    -0.907297914512     0.552372195047
    H            0.278445821087     0.199771856319    -1.272946176067
    H            0.865322654115     1.144807264449     0.051620150897
    C           -0.862641123791    -0.688940401231     1.177151909041
    H            0.534731325328    -1.870669071449     0.048751343875
    H            1.249330061245    -0.971952939951     1.352220063675
    C           -2.034567785726    -0.768406434611     0.200361221556
    H           -1.007798768206    -1.435647105109     1.952933459962
    H           -0.879467820217     0.275107349464     1.680759414651
    C           -3.392885277621    -0.645870957406     0.886056207729
    H           -1.989392539461    -1.713749942370    -0.336109644450
    H           -1.949141856484     0.011723956578    -0.549819843303
    C           -4.565025475366    -0.721272135402    -0.086622387577
    H           -3.491549258093    -1.431601047783     1.630002176740
    H           -3.436532313383     0.294132620635     1.429605325543
    H           -4.568598651329    -1.664571542704    -0.622703387579
    H           -5.512649884681    -0.632830345292     0.432209428437
    H           -4.515527543786     0.074825759088    -0.822130350577

  Mulliken Charges: (a.u.)
   Center  Symbol    Alpha    Beta     Spin     Total
       1     H     0.39234  0.39234  0.00000  0.21533
       2     O     4.20623  4.20623  0.00000 -0.41247
       3     C     2.97527  2.97527  0.00000  0.04947
       4     C     3.09676  3.09676  0.00000 -0.19353
       5     H     0.44861  0.44861  0.00000  0.10277
       6     H     0.47115  0.47115  0.00000  0.05771
       7     C     3.10670  3.10670  0.00000 -0.21341
       8     H     0.44523  0.44523  0.00000  0.10954
       9     H     0.45601  0.45601  0.00000  0.08798
      10     C     3.09899  3.09899  0.00000 -0.19797
      11     H     0.44113  0.44113  0.00000  0.11775
      12     H     0.46487  0.46487  0.00000  0.07025
      13     C     3.09863  3.09863  0.00000 -0.19727
      14     H     0.45119  0.45119  0.00000  0.09761
      15     H     0.44754  0.44754  0.00000  0.10493
      16     C     3.08838  3.08838  0.00000 -0.17675
      17     H     0.44783  0.44783  0.00000  0.10434
      18     H     0.45395  0.45395  0.00000  0.09210
      19     C     3.08418  3.08418  0.00000 -0.16836
      20     H     0.45459  0.45459  0.00000  0.09082
      21     H     0.45347  0.45347  0.00000  0.09305
      22     C     3.14967  3.14967  0.00000 -0.29933
      23     H     0.45390  0.45390  0.00000  0.09220
      24     H     0.45467  0.45467  0.00000  0.09066
      25     H     0.45507  0.45507  0.00000  0.08986
      26     H     0.44827  0.44827  0.00000  0.10346
      27     H     0.45536  0.45536  0.00000  0.08927

   Total alpha = 37.00000, Total beta = 37.00000, Total charge = -0.00000

*** Psi4 exiting successfully. Buy a developer a beer!
