  ==> Input File <==

--------------------------------------------------------------------------
set {
	reference rhf
	basis 6-31G*
}

set_num_threads( 1 )
memory 2 gb

molecule MOL {
0 1

H	 2.794912	 -3.477131	 2.346744
O	 3.557123	 -3.370370	 1.796554
C	 3.229763	 -3.686745	 0.467345
C	 2.363113	 -2.628625	 -0.206470
H	 4.173553	 -3.773391	 -0.055557
H	 2.741595	 -4.659300	 0.416268
C	 0.981021	 -2.459096	 0.429101
H	 2.894702	 -1.680895	 -0.182220
H	 2.248348	 -2.901309	 -1.254249
C	 0.115918	 -1.429151	 -0.302766
H	 1.099477	 -2.161359	 1.467217
H	 0.464977	 -3.419306	 0.435055
C	 -1.309753	 -1.282496	 0.241564
H	 0.612580	 -0.460919	 -0.276276
H	 0.056500	 -1.710205	 -1.352136
C	 -2.037799	 -0.007733	 -0.193645
H	 -1.890610	 -2.142323	 -0.085726
H	 -1.285946	 -1.330893	 1.329189
C	 -3.489788	 0.042957	 0.286558
H	 -2.017067	 0.064384	 -1.280144
H	 -1.513726	 0.868678	 0.179924
C	 -4.216917	 1.317354	 -0.141063
H	 -4.025645	 -0.823308	 -0.095450
H	 -3.513059	 -0.038752	 1.371301
H	 -4.239342	 1.411634	 -1.223113
H	 -5.243387	 1.322503	 0.212445
H	 -3.726170	 2.201406	 0.256408

	symmetry c1
}
set optking {
	frozen_dihedral = ("
		14 10 7 4,
		10 7 4 8,
		8 4 3 2,
		10 13 16 20,
		20 16 19 22,
		4 3 2 1
	")
}

ee = energy('scf')
oeprop('DIPOLE', 'QUADRUPOLE', 'MULLIKEN_CHARGES')
f=open( 'psi4out.xyz', 'w' )
f.write( "27  " )
f.write( str(ee) + "\n" )
f.write( MOL.save_string_xyz() )
f.close()
--------------------------------------------------------------------------

    Molecular point group: c1

    Geometry (in Angstrom), charge = 0, multiplicity = 1:

       Center              X                  Y                   Z               Mass
    ------------   -----------------  -----------------  -----------------  -----------------
           H          2.840455710888    -1.952573962451     2.055277725537     1.007825032070
           O          3.602666710888    -1.845812962451     1.505087725537    15.994914619560
           C          3.275306710888    -2.162187962451     0.175878725537    12.000000000000
           C          2.408656710888    -1.104067962451    -0.497936274463    12.000000000000
           H          4.219096710888    -2.248833962451    -0.347023274463     1.007825032070
           H          2.787138710888    -3.134742962451     0.124801725537     1.007825032070
           C          1.026564710888    -0.934538962451     0.137634725537    12.000000000000
           H          2.940245710888    -0.156337962451    -0.473686274463     1.007825032070
           H          2.293891710888    -1.376751962451    -1.545715274463     1.007825032070
           C          0.161461710888     0.095406037549    -0.594232274463    12.000000000000
           H          1.145020710888    -0.636801962451     1.175750725537     1.007825032070
           H          0.510520710888    -1.894748962451     0.143588725537     1.007825032070
           C         -1.264209289112     0.242061037549    -0.049902274463    12.000000000000
           H          0.658123710888     1.063638037549    -0.567742274463     1.007825032070
           H          0.102043710888    -0.185647962451    -1.643602274463     1.007825032070
           C         -1.992255289112     1.516824037549    -0.485111274463    12.000000000000
           H         -1.845066289112    -0.617765962451    -0.377192274463     1.007825032070
           H         -1.240402289112     0.193664037549     1.037722725537     1.007825032070
           C         -3.444244289112     1.567514037549    -0.004908274463    12.000000000000
           H         -1.971523289112     1.588941037549    -1.571610274463     1.007825032070
           H         -1.468182289112     2.393235037549    -0.111542274463     1.007825032070
           C         -4.171373289112     2.841911037549    -0.432529274463    12.000000000000
           H         -3.980101289112     0.701249037549    -0.386916274463     1.007825032070
           H         -3.467515289112     1.485805037549     1.079834725537     1.007825032070
           H         -4.193798289112     2.936191037549    -1.514579274463     1.007825032070
           H         -5.197843289112     2.847060037549    -0.079021274463     1.007825032070
           H         -3.680626289112     3.725963037549    -0.035058274463     1.007825032070

  Charge       = 0
  Multiplicity = 1
  Basis Set: 6-31G*
  Basis Set:

    Orbital Energies (a.u.)
    -----------------------

    Doubly Occupied:

       1A    -20.552383     2A    -11.267245     3A    -11.220937
       4A    -11.217003     5A    -11.215909     6A    -11.215475
       7A    -11.215460     8A    -11.214580     9A    -11.209150
      10A     -1.359151    11A     -1.094011    12A     -1.062939
      13A     -1.011565    14A     -0.950657    15A     -0.883499
      16A     -0.819895    17A     -0.791773    18A     -0.789977
      19A     -0.694383    20A     -0.657504    21A     -0.636161
      22A     -0.613217    23A     -0.599236    24A     -0.587350
      25A     -0.575610    26A     -0.553996    27A     -0.539792
      28A     -0.519870    29A     -0.512644    30A     -0.489330
      31A     -0.484020    32A     -0.474218    33A     -0.469018
      34A     -0.460609    35A     -0.459978    36A     -0.443747
      37A     -0.420982

  @DF-RHF Final Energy:  -388.28201894677437

   => Energetics <=

    Nuclear Repulsion Energy =            450.6962999879792164
    One-Electron Energy =               -1419.3901958444446336
    Two-Electron Energy =                 580.4118769096905908
    DFT Exchange-Correlation Energy =       0.0000000000000000
    Empirical Dispersion Energy =           0.0000000000000000
    PCM Polarization Energy =               0.0000000000000000
    EFP Energy =                            0.0000000000000000
    Total Energy =                       -388.2820189467747696

  Mulliken Charges: (a.u.)
   Center  Symbol    Alpha    Beta     Spin     Total
       1     H     0.27988  0.27988  0.00000  0.44024
       2     O     4.37097  4.37097  0.00000 -0.74194
       3     C     2.99739  2.99739  0.00000  0.00522
       4     C     3.16157  3.16157  0.00000 -0.32314
       5     H     0.41434  0.41434  0.00000  0.17131
       6     H     0.43196  0.43196  0.00000  0.13608
       7     C     3.16201  3.16201  0.00000 -0.32402
       8     H     0.41477  0.41477  0.00000  0.17046
       9     H     0.42409  0.42409  0.00000  0.15182
      10     C     3.15089  3.15089  0.00000 -0.30178
      11     H     0.42450  0.42450  0.00000  0.15101
      12     H     0.42494  0.42494  0.00000  0.15012
      13     C     3.15223  3.15223  0.00000 -0.30445
      14     H     0.42144  0.42144  0.00000  0.15711
      15     H     0.42288  0.42288  0.00000  0.15424
      16     C     3.15130  3.15130  0.00000 -0.30260
      17     H     0.42366  0.42366  0.00000  0.15269
      18     H     0.42434  0.42434  0.00000  0.15131
      19     C     3.15185  3.15185  0.00000 -0.30371
      20     H     0.42394  0.42394  0.00000  0.15212
      21     H     0.42297  0.42297  0.00000  0.15406
      22     C     3.23932  3.23932  0.00000 -0.47864
      23     H     0.42314  0.42314  0.00000  0.15372
      24     H     0.42300  0.42300  0.00000  0.15399
      25     H     0.42170  0.42170  0.00000  0.15660
      26     H     0.41925  0.41925  0.00000  0.16150
      27     H     0.42167  0.42167  0.00000  0.15667

   Total alpha = 37.00000, Total beta = 37.00000, Total charge = -0.00000
