  ==> Input File <==

--------------------------------------------------------------------------
set {
	reference rhf
	basis cc-pvtz
}

set_num_threads( 4 )
memory 2 gb

molecule MOL {
0 1

H	 0.978375	 2.303130	 -0.954584
O	 1.243501	 1.918385	 -0.138416
C	 0.706474	 0.636793	 -0.025501
C	 -0.793473	 0.591216	 0.050087
H	 1.122272	 0.208623	 0.878980
H	 1.036284	 0.004291	 -0.847611
C	 -1.534243	 -0.493009	 -0.013340
H	 -1.266611	 1.552628	 0.164437
H	 -1.101195	 -1.466332	 -0.144046
H	 -2.604242	 -0.437780	 0.050785

	symmetry c1
}
set optking {
	frozen_dihedral = ("
		5 3 4 7
	")
}

ee = optimize('scf')
oeprop('DIPOLE', 'QUADRUPOLE', 'MULLIKEN_CHARGES')
f=open( 'psi4out.xyz', 'w' )
f.write( "10  " )
f.write( str(ee) + "\n" )
f.write( MOL.save_string_xyz() )
f.close()
--------------------------------------------------------------------------

    Molecular point group: c1
  Charge       = 0
  Multiplicity = 1
  Basis Set: CC-PVTZ
  Basis Set:
  @DF-RHF Final Energy:  -191.99499988808230
    Total Energy =                       -191.9949998880822193
    Molecular point group: c1
  Basis Set: CC-PVTZ
  Basis Set:
  Basis Set: CC-PVTZ
  Basis Set:
  @DF-RHF Final Energy:  -191.99536727553470
    Total Energy =                       -191.9953672755345622
  Basis Set: CC-PVTZ
  Basis Set:
  Basis Set: CC-PVTZ
  Basis Set:
  @DF-RHF Final Energy:  -191.99542122035717
    Total Energy =                       -191.9954212203571728
  Basis Set: CC-PVTZ
  Basis Set:
  Basis Set: CC-PVTZ
  Basis Set:
  @DF-RHF Final Energy:  -191.99542554163475
    Total Energy =                       -191.9954255416348587
  Basis Set: CC-PVTZ
  Basis Set:
  Charge       = 0
  Multiplicity = 1
  Basis Set: CC-PVTZ
  Basis Set:

    Orbital Energies (a.u.)
    -----------------------

    Doubly Occupied:

       1A    -20.554321     2A    -11.276925     3A    -11.230199
       4A    -11.219153     5A     -1.373597     6A     -1.065324
       7A     -0.923403     8A     -0.778346     9A     -0.706331
      10A     -0.633019    11A     -0.626495    12A     -0.594607
      13A     -0.527554    14A     -0.504311    15A     -0.450701
      16A     -0.368464

  @DF-RHF Final Energy:  -191.99542593995619

   => Energetics <=

    Nuclear Repulsion Energy =            117.1214398777106709
    One-Electron Energy =                -492.5682274621524357
    Two-Electron Energy =                 183.4513616444855302
    DFT Exchange-Correlation Energy =       0.0000000000000000
    Empirical Dispersion Energy =           0.0000000000000000
    PCM Polarization Energy =               0.0000000000000000
    EFP Energy =                            0.0000000000000000
    Total Energy =                       -191.9954259399562488
    Molecular point group: c1
  Basis Set: CC-PVTZ
  Basis Set:

  -Total Gradient:
     Atom            X                  Y                   Z
    ------   -----------------  -----------------  -----------------
       1       -0.000017088801    -0.000008787923    -0.000009801963
       2        0.000018987045     0.000000088173     0.000012385490
       3        0.000030143438     0.002837663027     0.002594432426
       4       -0.000165812512    -0.000285820786    -0.003955450363
       5       -0.000009927822    -0.002378213072    -0.001092677192
       6       -0.000005469193     0.000014137688    -0.000006271397
       7        0.000160267810    -0.000170630015     0.002467694430
       8        0.000006630415    -0.000001147494    -0.000007908066
       9       -0.000012160006     0.000003362156    -0.000003798656
      10       -0.000005570376    -0.000010651754     0.000001395291

  **** Optimization is complete! (in 5 steps) ****
    Final optimized geometry and variables:
    Molecular point group: c1

    Geometry (in Angstrom), charge = 0, multiplicity = 1:

    H            1.036616983142     1.563854097821    -0.924261881163
    O            1.252003926121     1.204728443042    -0.082571381037
    C            0.738782858591    -0.091326255164     0.029918152085
    C           -0.769681857332    -0.121128124487     0.091299123377
    H            1.151051637755    -0.509880987465     0.938082179552
    H            1.088541210516    -0.717148729902    -0.786499656929
    C           -1.503331398874    -1.210087728009     0.031978734800
    H           -1.239647601033     0.834759706077     0.247915482253
    H           -1.066962237592    -2.183398554497    -0.110515742680
    H           -2.571992351488    -1.170135001750     0.121668707385

  Mulliken Charges: (a.u.)
   Center  Symbol    Alpha    Beta     Spin     Total
       1     H     0.39245  0.39245  0.00000  0.21511
       2     O     4.20251  4.20251  0.00000 -0.40502
       3     C     2.94972  2.94972  0.00000  0.10056
       4     C     3.08755  3.08755  0.00000 -0.17511
       5     H     0.44962  0.44962  0.00000  0.10076
       6     H     0.46625  0.46625  0.00000  0.06749
       7     C     3.17493  3.17493  0.00000 -0.34986
       8     H     0.41698  0.41698  0.00000  0.16603
       9     H     0.43277  0.43277  0.00000  0.13446
      10     H     0.42721  0.42721  0.00000  0.14557

   Total alpha = 16.00000, Total beta = 16.00000, Total charge =  0.00000
