  ==> Input File <==

--------------------------------------------------------------------------
set {
	reference rhf
	basis cc-pvtz
}

set_num_threads( 4 )
memory 2 gb

molecule MOL {
0 1

H	 3.889604	 0.356866	 -0.089510
N	 3.091268	 -0.241216	 -0.065538
C	 1.860978	 0.530248	 0.016256
H	 3.192566	 -0.835836	 0.730398
C	 0.644130	 -0.381765	 -0.031064
H	 1.835721	 1.204666	 -0.833114
H	 1.808789	 1.151975	 0.911067
C	 -0.678115	 0.376691	 0.025731
H	 0.693998	 -0.977147	 -0.936845
H	 0.693309	 -1.082142	 0.800523
C	 -0.626092	 1.734914	 -0.668335
H	 -0.966862	 0.518528	 1.064703
H	 -1.462351	 -0.225271	 -0.427576
C	 -1.947933	 2.492704	 -0.603790
H	 0.157139	 2.337696	 -0.217232
H	 -0.341472	 1.595646	 -1.707742
H	 -2.242816	 2.678451	 0.423722
H	 -1.876499	 3.451159	 -1.105054
H	 -2.745402	 1.930280	 -1.078194

	symmetry c1
}
set optking {
	frozen_dihedral = ("
		12 8 5 9
	")
}

ee = optimize('scf')
oeprop('DIPOLE', 'QUADRUPOLE', 'MULLIKEN_CHARGES')
f=open( 'psi4out.xyz', 'w' )
f.write( "19  " )
f.write( str(ee) + "\n" )
f.write( MOL.save_string_xyz() )
f.close()
--------------------------------------------------------------------------

    Molecular point group: c1
  Charge       = 0
  Multiplicity = 1
  Basis Set: CC-PVTZ
  Basis Set:
  @DF-RHF Final Energy:  -251.44074011944161
    Total Energy =                       -251.4407401194415570
    Molecular point group: c1
  Basis Set: CC-PVTZ
  Basis Set:
  Basis Set: CC-PVTZ
  Basis Set:
  @DF-RHF Final Energy:  -251.44221109026560
    Total Energy =                       -251.4422110902656868
  Basis Set: CC-PVTZ
  Basis Set:
  Basis Set: CC-PVTZ
  Basis Set:
  @DF-RHF Final Energy:  -251.44346862504321
    Total Energy =                       -251.4434686250430104
  Basis Set: CC-PVTZ
  Basis Set:
  Basis Set: CC-PVTZ
  Basis Set:
  @DF-RHF Final Energy:  -251.44358081054128
    Total Energy =                       -251.4435808105411638
  Basis Set: CC-PVTZ
  Basis Set:
  Basis Set: CC-PVTZ
  Basis Set:
  @DF-RHF Final Energy:  -251.44359186840836
    Total Energy =                       -251.4435918684083617
  Basis Set: CC-PVTZ
  Basis Set:
  Basis Set: CC-PVTZ
  Basis Set:
  @DF-RHF Final Energy:  -251.44359376984562
    Total Energy =                       -251.4435937698455064
  Basis Set: CC-PVTZ
  Basis Set:
  Charge       = 0
  Multiplicity = 1
  Basis Set: CC-PVTZ
  Basis Set:

    Orbital Energies (a.u.)
    -----------------------

    Doubly Occupied:

       1A    -15.526310     2A    -11.237744     3A    -11.212418
       4A    -11.210832     5A    -11.208127     6A    -11.205843
       7A     -1.178256     8A     -1.072801     9A     -0.997078
      10A     -0.900426    11A     -0.834809    12A     -0.770688
      13A     -0.665740    14A     -0.639368    15A     -0.614279
      16A     -0.593481    17A     -0.571907    18A     -0.551038
      19A     -0.525933    20A     -0.501990    21A     -0.490423
      22A     -0.459244    23A     -0.455337    24A     -0.448671
      25A     -0.383641

  @DF-RHF Final Energy:  -251.44359399484128

   => Energetics <=

    Nuclear Repulsion Energy =            249.7226860065482299
    One-Electron Energy =                -833.8197957647646490
    Two-Electron Energy =                 332.6535157633751396
    DFT Exchange-Correlation Energy =       0.0000000000000000
    Empirical Dispersion Energy =           0.0000000000000000
    PCM Polarization Energy =               0.0000000000000000
    EFP Energy =                            0.0000000000000000
    Total Energy =                       -251.4435939948413079
    Molecular point group: c1
  Basis Set: CC-PVTZ
  Basis Set:

  -Total Gradient:
     Atom            X                  Y                   Z
    ------   -----------------  -----------------  -----------------
       1        0.000002356287     0.000000865162     0.000000599909
       2        0.000003336211    -0.000004575519    -0.000011112958
       3       -0.000003554285     0.000007720480     0.000023039012
       4       -0.000002141839     0.000001905272    -0.000000362995
       5        0.002168222235     0.004160671185    -0.003344747077
       6        0.000000881743    -0.000008514940     0.000000846828
       7        0.000002630433     0.000012104282     0.000002132878
       8        0.002924320128     0.004767387915     0.000772219749
       9       -0.002296490517    -0.004245967811     0.002662013076
      10        0.000000669220     0.000006541331    -0.000001390032
      11       -0.000001483217    -0.000005204130    -0.000024346255
      12       -0.002808283566    -0.004705081850    -0.000082009988
      13        0.000006553386     0.000004887296    -0.000000739039
      14        0.000001739110     0.000002376116     0.000009002762
      15       -0.000004315586    -0.000002007482     0.000002388323
      16        0.000005868612     0.000005971006    -0.000008141218
      17       -0.000003778230     0.000000860664     0.000000144272
      18        0.000001560916    -0.000000552745     0.000000775928
      19        0.000001908956     0.000000613768    -0.000000313177

  **** Optimization is complete! (in 7 steps) ****
    Final optimized geometry and variables:
    Molecular point group: c1

    Geometry (in Angstrom), charge = 0, multiplicity = 1:

    H            3.542803994985    -0.602738734026     0.212260754130
    N            2.695240130608    -1.128941134144     0.195665602803
    C            1.533998762189    -0.254310412377     0.236750318593
    H            2.710997361936    -1.739825548597     0.985431062113
    C            0.254936309950    -1.071133824656     0.131626705465
    H            1.609638514695     0.428426729792    -0.600505136799
    H            1.496003954723     0.358227436100     1.139332255680
    C           -1.058804635921    -0.286093215949     0.255043386920
    H            0.262271931248    -1.651071151460    -0.785032325781
    H            0.267810480506    -1.815722300938     0.925280796615
    C           -1.118798284984     1.052275624358    -0.476369593772
    H           -1.310153713799    -0.155547931115     1.304606568471
    H           -1.851895753996    -0.919655360882    -0.134308959571
    C           -2.498926207558     1.697555831769    -0.402222105565
    H           -0.386186092886     1.737398544359    -0.062954129689
    H           -0.846654553528     0.905420490688    -1.518344534313
    H           -2.790562962594     1.878699667734     0.627132633655
    H           -2.516697731370     2.648325303211    -0.922613194755
    H           -3.253898125147     1.060494718145    -0.850651395074

  Mulliken Charges: (a.u.)
   Center  Symbol    Alpha    Beta     Spin     Total
       1     H     0.43011  0.43011  0.00000  0.13979
       2     N     3.69020  3.69020  0.00000 -0.38040
       3     C     3.02815  3.02815  0.00000 -0.05630
       4     H     0.43098  0.43098  0.00000  0.13804
       5     C     3.08882  3.08882  0.00000 -0.17763
       6     H     0.45345  0.45345  0.00000  0.09310
       7     H     0.46708  0.46708  0.00000  0.06583
       8     C     3.09937  3.09937  0.00000 -0.19873
       9     H     0.44700  0.44700  0.00000  0.10599
      10     H     0.45750  0.45750  0.00000  0.08500
      11     C     3.08959  3.08959  0.00000 -0.17919
      12     H     0.45341  0.45341  0.00000  0.09318
      13     H     0.45145  0.45145  0.00000  0.09709
      14     C     3.15000  3.15000  0.00000 -0.30001
      15     H     0.45260  0.45260  0.00000  0.09480
      16     H     0.45189  0.45189  0.00000  0.09623
      17     H     0.45545  0.45545  0.00000  0.08910
      18     H     0.44848  0.44848  0.00000  0.10304
      19     H     0.45447  0.45447  0.00000  0.09107

   Total alpha = 25.00000, Total beta = 25.00000, Total charge = -0.00000
