  ==> Input File <==

--------------------------------------------------------------------------
set {
	reference rhf
	basis cc-pvtz
}

set_num_threads( 4 )
memory 2 gb

molecule MOL {
0 1

H	 -3.436473	 1.252944	 -1.023892
O	 -3.458596	 0.315260	 -0.960865
C	 -3.176635	 -0.080824	 0.355601
C	 -1.763371	 0.265266	 0.799691
H	 -3.321825	 -1.153438	 0.379502
H	 -3.895468	 0.357385	 1.043382
C	 -0.673390	 -0.426948	 -0.013392
H	 -1.631049	 1.344913	 0.747560
H	 -1.664587	 -0.001624	 1.849167
C	 0.737842	 -0.043159	 0.423759
H	 -0.806103	 -0.190518	 -1.063345
H	 -0.797221	 -1.503753	 0.074146
C	 1.824000	 -0.743224	 -0.390623
H	 0.850588	 1.033777	 0.343840
H	 0.868587	 -0.286314	 1.476203
C	 3.255957	 -0.453067	 0.062319
H	 1.718250	 -0.470599	 -1.438164
H	 1.658105	 -1.815850	 -0.339904
C	 4.002014	 0.567248	 -0.794127
H	 3.813007	 -1.384963	 0.055948
H	 3.243675	 -0.115615	 1.095467
H	 4.025253	 0.259072	 -1.834590
H	 5.027623	 0.673522	 -0.459353
H	 3.542909	 1.547491	 -0.749955

	symmetry c1
}
set optking {
	frozen_dihedral = ("
		20 16 13 17
	")
}

ee = optimize('scf')
oeprop('DIPOLE', 'QUADRUPOLE', 'MULLIKEN_CHARGES')
f=open( 'psi4out.xyz', 'w' )
f.write( "24  " )
f.write( str(ee) + "\n" )
f.write( MOL.save_string_xyz() )
f.close()
--------------------------------------------------------------------------

    Molecular point group: c1
  Charge       = 0
  Multiplicity = 1
  Basis Set: CC-PVTZ
  Basis Set:
  @DF-RHF Final Energy:  -349.37711904416409
    Total Energy =                       -349.3771190441644876
    Molecular point group: c1
  Basis Set: CC-PVTZ
  Basis Set:
  Basis Set: CC-PVTZ
  Basis Set:
  @DF-RHF Final Energy:  -349.37781322746923
    Total Energy =                       -349.3778132274697441
  Basis Set: CC-PVTZ
  Basis Set:
  Basis Set: CC-PVTZ
  Basis Set:
  @DF-RHF Final Energy:  -349.37786775677688
    Total Energy =                       -349.3778677567767090
  Basis Set: CC-PVTZ
  Basis Set:
  Basis Set: CC-PVTZ
  Basis Set:
  @DF-RHF Final Energy:  -349.37787155463388
    Total Energy =                       -349.3778715546337708
  Basis Set: CC-PVTZ
  Basis Set:
  Charge       = 0
  Multiplicity = 1
  Basis Set: CC-PVTZ
  Basis Set:

    Orbital Energies (a.u.)
    -----------------------

    Doubly Occupied:

       1A    -20.546327     2A    -11.265553     3A    -11.215254
       4A    -11.211496     5A    -11.210726     6A    -11.209128
       7A    -11.208855     8A    -11.206074     9A     -1.364176
      10A     -1.089323    11A     -1.049059    12A     -0.987838
      13A     -0.914938    14A     -0.846386    15A     -0.800032
      16A     -0.784494    17A     -0.681829    18A     -0.654912
      19A     -0.625520    20A     -0.619656    21A     -0.599043
      22A     -0.584364    23A     -0.558626    24A     -0.537705
      25A     -0.522692    26A     -0.510427    27A     -0.494646
      28A     -0.473770    29A     -0.468133    30A     -0.460185
      31A     -0.457032    32A     -0.451854    33A     -0.420433

  @DF-RHF Final Energy:  -349.37787251861857

   => Energetics <=

    Nuclear Repulsion Energy =            383.5077284142989811
    One-Electron Energy =               -1233.7102336032785388
    Two-Electron Energy =                 500.8246326703605291
    DFT Exchange-Correlation Energy =       0.0000000000000000
    Empirical Dispersion Energy =           0.0000000000000000
    PCM Polarization Energy =               0.0000000000000000
    EFP Energy =                            0.0000000000000000
    Total Energy =                       -349.3778725186190286
    Molecular point group: c1
  Basis Set: CC-PVTZ
  Basis Set:

  -Total Gradient:
     Atom            X                  Y                   Z
    ------   -----------------  -----------------  -----------------
       1       -0.000000126331     0.000000098961     0.000001273107
       2       -0.000002180949     0.000000333445     0.000002093994
       3       -0.000002732716    -0.000000130356     0.000005799502
       4       -0.000009405629    -0.000010939115    -0.000009683256
       5        0.000000127770    -0.000000364609    -0.000002322558
       6       -0.000002496857    -0.000001093902    -0.000000359784
       7       -0.000041358283     0.000021520561     0.000021085079
       8        0.000002495579     0.000001447239    -0.000002047095
       9       -0.000003325372     0.000001572293    -0.000000144917
      10       -0.000015961992     0.000002359957    -0.000028214445
      11        0.000002459375     0.000001270812     0.000008156141
      12        0.000003067644    -0.000003421582     0.000000808148
      13        0.001122422055    -0.003756847724    -0.000263648547
      14       -0.000005496747    -0.000009372216    -0.000008634159
      15        0.000023216246     0.000007366087    -0.000000547897
      16        0.000685088641     0.001293552217    -0.003685065842
      17       -0.001035157720     0.002939026038     0.000825751716
      18       -0.000004769306     0.000013884823    -0.000006892851
      19        0.000035656834     0.000007069933     0.000026852085
      20       -0.000748521246    -0.000508870494     0.003106318282
      21        0.000006422305     0.000003499775     0.000001783461
      22       -0.000011671367    -0.000007869857     0.000023154912
      23        0.000008150174     0.000019632680    -0.000017042638
      24       -0.000005902110    -0.000013724964     0.000001527559

  **** Optimization is complete! (in 5 steps) ****
    Final optimized geometry and variables:
    Molecular point group: c1

    Geometry (in Angstrom), charge = 0, multiplicity = 1:

    H           -3.397265607664     1.400672424474    -0.931745643833
    O           -3.449991717403     0.462882857800    -0.893684921829
    C           -3.199653856593     0.024303750111     0.415595489734
    C           -1.782226863516     0.312292619905     0.887114987285
    H           -3.379932541706    -1.043229493161     0.409326791715
    H           -3.913590850519     0.467973334665     1.104981730592
    C           -0.703835533681    -0.393029148089     0.069740832052
    H           -1.614396551056     1.388074784820     0.865803492286
    H           -1.706603528384     0.014658321557     1.930184025740
    C            0.712441920711    -0.067664423528     0.534605899604
    H           -0.815118622646    -0.125655885074    -0.975220475170
    H           -0.862900098411    -1.467426735236     0.127441043267
    C            1.794475015958    -0.793321167381    -0.265374103691
    H            0.874173002945     1.005942227319     0.467106372097
    H            0.816103536103    -0.323541412516     1.586452183815
    C            3.223318996853    -0.403635636849     0.150774164652
    H            1.648719402164    -0.558263755305    -1.316098002738
    H            1.651663228116    -1.863535672364    -0.159861463276
    C            3.849173693246     0.670404083708    -0.733003999594
    H            3.857517827685    -1.283730357042     0.165511361877
    H            3.207933004035    -0.050278795803     1.178201274235
    H            3.954800452636     0.320955707797    -1.754402249064
    H            4.833161892558     0.951406946617    -0.374937363270
    H            3.238067667762     1.566868655942    -0.754043422458

  Mulliken Charges: (a.u.)
   Center  Symbol    Alpha    Beta     Spin     Total
       1     H     0.39531  0.39531  0.00000  0.20939
       2     O     4.20364  4.20364  0.00000 -0.40729
       3     C     2.97774  2.97774  0.00000  0.04451
       4     C     3.10183  3.10183  0.00000 -0.20366
       5     H     0.45889  0.45889  0.00000  0.08221
       6     H     0.46021  0.46021  0.00000  0.07958
       7     C     3.08901  3.08901  0.00000 -0.17802
       8     H     0.45920  0.45920  0.00000  0.08161
       9     H     0.45332  0.45332  0.00000  0.09336
      10     C     3.08914  3.08914  0.00000 -0.17829
      11     H     0.44596  0.44596  0.00000  0.10807
      12     H     0.45538  0.45538  0.00000  0.08925
      13     C     3.09466  3.09466  0.00000 -0.18933
      14     H     0.45494  0.45494  0.00000  0.09013
      15     H     0.45561  0.45561  0.00000  0.08878
      16     C     3.09078  3.09078  0.00000 -0.18156
      17     H     0.45541  0.45541  0.00000  0.08918
      18     H     0.44767  0.44767  0.00000  0.10466
      19     C     3.14740  3.14740  0.00000 -0.29479
      20     H     0.44818  0.44818  0.00000  0.10364
      21     H     0.45634  0.45634  0.00000  0.08732
      22     H     0.45453  0.45453  0.00000  0.09093
      23     H     0.44916  0.44916  0.00000  0.10168
      24     H     0.45568  0.45568  0.00000  0.08863

   Total alpha = 33.00000, Total beta = 33.00000, Total charge = -0.00000
