                              Psi4 1.0.54 Driver

  ==> Input File <==

--------------------------------------------------------------------------
set {
	reference rhf
	basis cc-pvtz
}

set_num_threads( 4 )
memory 2 gb

molecule MOL {
0 1

O	 1.692644	 -0.452331	 0.426612
C	 0.860843	 0.273204	 -0.013120
C	 -0.623368	 -0.117453	 -0.005652
C	 1.265012	 1.610564	 -0.601456
C	 -0.892588	 -1.253841	 -1.002900
C	 -1.473463	 1.100646	 -0.372896
C	 -0.981836	 -0.579025	 1.418506
H	 -0.609333	 -0.970024	 -2.010649
H	 -1.950451	 -1.487353	 -1.013175
H	 -0.360848	 -2.161259	 -0.746463
H	 -1.232203	 1.461623	 -1.364827
H	 -2.524364	 0.834451	 -0.354500
H	 -1.312381	 1.914833	 0.318657
H	 -2.035706	 -0.826342	 1.468082
H	 -0.425078	 -1.458934	 1.716857
H	 -0.788494	 0.205047	 2.140903
H	 1.058712	 2.393705	 0.119581
H	 2.325139	 1.595080	 -0.802353
H	 0.720899	 1.847984	 -1.505229

	symmetry c1
}
set optking {
	frozen_dihedral = ("
		1 2 3 5
	")
}

ee,wfn = optimize('scf', return_wfn=True)
oeprop( wfn, 'DIPOLE', 'QUADRUPOLE', 'MULLIKEN_CHARGES')
f=open( 'psi4out.xyz', 'w' )
f.write( "19  " )
f.write( str(ee) + "\n" )
f.write( MOL.save_string_xyz() )
f.close()
--------------------------------------------------------------------------

    Molecular point group: c1
  Charge       = 0
  Multiplicity = 1
  Basis Set: CC-PVTZ
  Basis Set:
  @DF-RHF Final Energy:  -309.16961507056317
    Total Energy =                       -309.1696150705633954
    Molecular point group: c1
  Basis Set: CC-PVTZ
  Basis Set:
  Basis Set: CC-PVTZ
  Basis Set:
  @DF-RHF Final Energy:  -309.17060877244541
    Total Energy =                       -309.1706087724454051
  Basis Set: CC-PVTZ
  Basis Set:
  Basis Set: CC-PVTZ
  Basis Set:
  @DF-RHF Final Energy:  -309.17266200656530
    Total Energy =                       -309.1726620065651900
  Basis Set: CC-PVTZ
  Basis Set:
  Basis Set: CC-PVTZ
  Basis Set:
  @DF-RHF Final Energy:  -309.17291175901937
    Total Energy =                       -309.1729117590195415
  Basis Set: CC-PVTZ
  Basis Set:
  @DF-RHF Final Energy:  -309.17304929380481
    Total Energy =                       -309.1730492938045245
  @DF-RHF Final Energy:  -309.17306309754281
    Total Energy =                       -309.1730630975431495
  @DF-RHF Final Energy:  -309.17313520873245
    Total Energy =                       -309.1731352087326741
  Basis Set: CC-PVTZ
  Basis Set:
  @DF-RHF Final Energy:  -309.17315137303575
    Total Energy =                       -309.1731513730360348
  Basis Set: CC-PVTZ
  Basis Set:
  Basis Set: CC-PVTZ
  Basis Set:
  @DF-RHF Final Energy:  -309.17315506570139
    Total Energy =                       -309.1731550657017920
  Basis Set: CC-PVTZ
  Basis Set:
  Basis Set: CC-PVTZ
  Basis Set:
  @DF-RHF Final Energy:  -309.17315686110658
    Total Energy =                       -309.1731568611065768
  Basis Set: CC-PVTZ
  Basis Set:
  Charge       = 0
  Multiplicity = 1
  Basis Set: CC-PVTZ
  Basis Set:

    Orbital Energies (a.u.)
    -----------------------

    Doubly Occupied:

       1A    -20.536391     2A    -11.318516     3A    -11.245501
       4A    -11.226118     5A    -11.220045     6A    -11.217393
       7A    -11.211093     8A     -1.398332     9A     -1.109101
      10A     -1.004697    11A     -0.943677    12A     -0.938760
      13A     -0.834084    14A     -0.705669    15A     -0.666887
      16A     -0.633700    17A     -0.623888    18A     -0.589541
      19A     -0.586938    20A     -0.572949    21A     -0.552051
      22A     -0.546840    23A     -0.523715    24A     -0.514794
      25A     -0.502965    26A     -0.472992    27A     -0.462812
      28A     -0.393796

  @DF-RHF Final Energy:  -309.17315625798403

   => Energetics <=

    Nuclear Repulsion Energy =            326.8159139402745268
    One-Electron Energy =               -1066.8716459156275960
    Two-Electron Energy =                 430.8825757173691500
    DFT Exchange-Correlation Energy =       0.0000000000000000
    Empirical Dispersion Energy =           0.0000000000000000
    PCM Polarization Energy =               0.0000000000000000
    EFP Energy =                            0.0000000000000000
    Total Energy =                       -309.1731562579839192
    Molecular point group: c1
  Basis Set: CC-PVTZ
  Basis Set:

  -Total Gradient:
     Atom            X                  Y                   Z
    ------   -----------------  -----------------  -----------------
       1        0.000037694050    -0.000469844511    -0.000983622760
       2       -0.000060711813     0.000439280286     0.001482230411
       3       -0.000121108164     0.000458461944    -0.001073434980
       4        0.000002772219    -0.000019458434     0.000048496941
       5        0.000143403695    -0.000472484907     0.000561581686
       6       -0.000027801685    -0.000001801315     0.000010981477
       7        0.000015335025    -0.000002434906     0.000018338195
       8        0.000002306353     0.000002355429    -0.000034883168
       9       -0.000023930040    -0.000002872239     0.000014228828
      10        0.000036176202    -0.000007017203     0.000008417196
      11        0.000023092047     0.000027994239    -0.000026240793
      12        0.000011692417    -0.000004582322    -0.000021937324
      13       -0.000047285000     0.000003189647     0.000030034660
      14       -0.000006419904    -0.000001413824     0.000000657251
      15        0.000009342757     0.000017657215    -0.000004081015
      16       -0.000002050077     0.000000498777     0.000020401296
      17       -0.000004782296     0.000058139006     0.000013649907
      18        0.000040964963    -0.000016324511    -0.000002166322
      19       -0.000028690744    -0.000009342370    -0.000062651486

  **** Optimization is complete! (in 11 steps) ****
    Final optimized geometry and variables:
    Molecular point group: c1

    Geometry (in Angstrom), charge = 0, multiplicity = 1:

    O            1.670874729255    -0.610220413309     0.433161265006
    C            0.888527189904     0.177084292267     0.007903803042
    C           -0.616005292380    -0.149135631440     0.036219677482
    C            1.375241502446     1.470536486542    -0.606687132022
    C           -0.839447221993    -1.264934975378    -0.998551024202
    C           -1.508921222212     1.050535250783    -0.298055523101
    C           -0.967380632402    -0.671351143187     1.435833275444
    H           -0.581842253517    -0.936372095860    -2.000443154152
    H           -1.882483935856    -1.559919979075    -1.006743624799
    H           -0.237377282932    -2.131364782122    -0.762602430322
    H           -1.321167389121     1.440763123931    -1.290654249049
    H           -2.548562218468     0.748044769662    -0.260736045862
    H           -1.381574025079     1.859219782925     0.412367628808
    H           -2.009631716139    -0.967901223830     1.469901953952
    H           -0.355833042562    -1.522561541309     1.695197806964
    H           -0.814847849416     0.093763976056     2.189599695933
    H            0.975499432984     2.325337831404    -0.074983190658
    H            2.453223999506     1.490268298664    -0.568242581903
    H            1.047021501993     1.549640529145    -1.636645200048

  Mulliken Charges: (a.u.)
   Center  Symbol    Alpha    Beta     Spin     Total
       1     O     4.18133  4.18133  0.00000 -0.36265
       2     C     2.84634  2.84634  0.00000  0.30731
       3     C     3.00574  3.00574  0.00000 -0.01149
       4     C     3.16305  3.16305  0.00000 -0.32610
       5     C     3.15360  3.15360  0.00000 -0.30721
       6     C     3.16547  3.16547  0.00000 -0.33095
       7     C     3.15355  3.15355  0.00000 -0.30710
       8     H     0.44960  0.44960  0.00000  0.10080
       9     H     0.44895  0.44895  0.00000  0.10211
      10     H     0.43706  0.43706  0.00000  0.12588
      11     H     0.44570  0.44570  0.00000  0.10860
      12     H     0.44253  0.44253  0.00000  0.11494
      13     H     0.44529  0.44529  0.00000  0.10942
      14     H     0.45089  0.45089  0.00000  0.09822
      15     H     0.43491  0.43491  0.00000  0.13018
      16     H     0.45028  0.45028  0.00000  0.09944
      17     H     0.44708  0.44708  0.00000  0.10585
      18     H     0.43174  0.43174  0.00000  0.13653
      19     H     0.44689  0.44689  0.00000  0.10622

   Total alpha = 28.00000, Total beta = 28.00000, Total charge = -0.00000

*** Psi4 exiting successfully. Buy a developer a beer!
