  ==> Input File <==

--------------------------------------------------------------------------
set {
	reference rhf
	basis 6-31G*
}

set_num_threads( 1 )
memory 2 gb

molecule MOL {
0 1

H	 2.223544	 -0.275561	 -0.581995
O	 1.586534	 -0.678666	 -0.000226
C	 0.489431	 0.077273	 0.000046
C	 -0.764129	 -0.759190	 0.000191
O	 0.537743	 1.263962	 0.000257
C	 -2.038368	 0.075731	 -0.000248
H	 -0.717284	 -1.412404	 -0.866059
H	 -0.717458	 -1.411724	 0.866967
H	 -2.086483	 0.712501	 -0.875098
H	 -2.908485	 -0.571682	 -0.000042
H	 -2.086576	 0.713280	 0.874068

	symmetry c1
}
set optking {
	frozen_dihedral = ("
		2 3 4 7
	")
}

ee = energy('scf')
oeprop('DIPOLE', 'QUADRUPOLE', 'MULLIKEN_CHARGES')
f=open( 'psi4out.xyz', 'w' )
f.write( "11  " )
f.write( str(ee) + "\n" )
f.write( MOL.save_string_xyz() )
f.close()
--------------------------------------------------------------------------

    Molecular point group: c1

    Geometry (in Angstrom), charge = 0, multiplicity = 1:

       Center              X                  Y                   Z               Mass
    ------------   -----------------  -----------------  -----------------  -----------------
           H          2.225180290309    -0.273188743023    -0.574075279896     1.007825032070
           O          1.588170290309    -0.676293743023     0.007693720104    15.994914619560
           C          0.491067290309     0.079645256977     0.007965720104    12.000000000000
           C         -0.762492709691    -0.756817743023     0.008110720104    12.000000000000
           O          0.539379290309     1.266334256977     0.008176720104    15.994914619560
           C         -2.036731709691     0.078103256977     0.007671720104    12.000000000000
           H         -0.715647709691    -1.410031743023    -0.858139279896     1.007825032070
           H         -0.715821709691    -1.409351743023     0.874886720104     1.007825032070
           H         -2.084846709691     0.714873256977    -0.867178279896     1.007825032070
           H         -2.906848709691    -0.569309743023     0.007877720104     1.007825032070
           H         -2.084939709691     0.715652256977     0.881987720104     1.007825032070

  Charge       = 0
  Multiplicity = 1
  Basis Set: 6-31G*
  Basis Set:

    Orbital Energies (a.u.)
    -----------------------

    Doubly Occupied:

       1A    -20.607807     2A    -20.555424     3A    -11.381546
       4A    -11.243736     5A    -11.220009     6A     -1.473661
       7A     -1.367519     8A     -1.064465     9A     -0.914739
      10A     -0.802935    11A     -0.705417    12A     -0.687671
      13A     -0.661880    14A     -0.609157    15A     -0.576007
      16A     -0.528680    17A     -0.525406    18A     -0.503905
      19A     -0.481850    20A     -0.445850

  @DF-RHF Final Energy:  -266.83717962542920

   => Energetics <=

    Nuclear Repulsion Energy =            179.7711093467192995
    One-Electron Energy =                -720.5012503326864817
    Two-Electron Energy =                 273.8929613605375835
    DFT Exchange-Correlation Energy =       0.0000000000000000
    Empirical Dispersion Energy =           0.0000000000000000
    PCM Polarization Energy =               0.0000000000000000
    EFP Energy =                            0.0000000000000000
    Total Energy =                       -266.8371796254295987

  Mulliken Charges: (a.u.)
   Center  Symbol    Alpha    Beta     Spin     Total
       1     H     0.26600  0.26600  0.00000  0.46799
       2     O     4.35293  4.35293  0.00000 -0.70585
       3     C     2.63057  2.63057  0.00000  0.73887
       4     C     3.20738  3.20738  0.00000 -0.41476
       5     O     4.26896  4.26896  0.00000 -0.53793
       6     C     3.23986  3.23986  0.00000 -0.47971
       7     H     0.40108  0.40108  0.00000  0.19785
       8     H     0.39763  0.39763  0.00000  0.20474
       9     H     0.41015  0.41015  0.00000  0.17971
      10     H     0.41699  0.41699  0.00000  0.16602
      11     H     0.40846  0.40846  0.00000  0.18308

   Total alpha = 20.00000, Total beta = 20.00000, Total charge = -0.00000
