  ==> Input File <==

--------------------------------------------------------------------------
set {
	reference rhf
	basis cc-pvtz
}

set_num_threads( 4 )
memory 2 gb

molecule MOL {
0 1

H	 -1.807058	 -1.065708	 0.499860
O	 -1.432053	 -0.565244	 -0.200812
C	 -0.727158	 0.534527	 0.310686
C	 0.680222	 0.664433	 -0.252229
H	 -1.306802	 1.408001	 0.044211
H	 -0.690821	 0.490158	 1.397609
C	 1.605391	 -0.489360	 0.123098
H	 0.615089	 0.745647	 -1.332226
H	 1.101414	 1.597893	 0.110950
H	 1.247627	 -1.432485	 -0.275204
H	 2.601435	 -0.332816	 -0.273062
H	 1.691776	 -0.589902	 1.200774

	symmetry c1
}
set optking {
	frozen_dihedral = ("
		1 2 3 4
	")
}

ee = optimize('scf')
oeprop('DIPOLE', 'QUADRUPOLE', 'MULLIKEN_CHARGES')
f=open( 'psi4out.xyz', 'w' )
f.write( "12  " )
f.write( str(ee) + "\n" )
f.write( MOL.save_string_xyz() )
f.close()
--------------------------------------------------------------------------

    Molecular point group: c1
  Charge       = 0
  Multiplicity = 1
  Basis Set: CC-PVTZ
  Basis Set:
  @DF-RHF Final Energy:  -193.18909160615775
    Total Energy =                       -193.1890916061577457
    Molecular point group: c1
  Basis Set: CC-PVTZ
  Basis Set:
  Basis Set: CC-PVTZ
  Basis Set:
  @DF-RHF Final Energy:  -193.18978383658765
    Total Energy =                       -193.1897838365877647
  Basis Set: CC-PVTZ
  Basis Set:
  Basis Set: CC-PVTZ
  Basis Set:
  @DF-RHF Final Energy:  -193.18992381327806
    Total Energy =                       -193.1899238132780567
  Basis Set: CC-PVTZ
  Basis Set:
  Basis Set: CC-PVTZ
  Basis Set:
  @DF-RHF Final Energy:  -193.18992699717856
    Total Energy =                       -193.1899269971785316
  Basis Set: CC-PVTZ
  Basis Set:
  Basis Set: CC-PVTZ
  Basis Set:
  @DF-RHF Final Energy:  -193.18992881393720
    Total Energy =                       -193.1899288139372857
  Basis Set: CC-PVTZ
  Basis Set:
  Charge       = 0
  Multiplicity = 1
  Basis Set: CC-PVTZ
  Basis Set:

    Orbital Energies (a.u.)
    -----------------------

    Doubly Occupied:

       1A    -20.545633     2A    -11.266637     3A    -11.212945
       4A    -11.204682     5A     -1.363225     6A     -1.048776
       7A     -0.922050     8A     -0.801063     9A     -0.708599
      10A     -0.639719    11A     -0.593722    12A     -0.584735
      13A     -0.525041    14A     -0.510974    15A     -0.487226
      16A     -0.467548    17A     -0.432790

  @DF-RHF Final Energy:  -193.18992889077438

   => Energetics <=

    Nuclear Repulsion Energy =            133.2391551814576758
    One-Electron Energy =                -526.2274469064054756
    Two-Electron Energy =                 199.7983628341734175
    DFT Exchange-Correlation Energy =       0.0000000000000000
    Empirical Dispersion Energy =           0.0000000000000000
    PCM Polarization Energy =               0.0000000000000000
    EFP Energy =                            0.0000000000000000
    Total Energy =                       -193.1899288907743539
    Molecular point group: c1
  Basis Set: CC-PVTZ
  Basis Set:

  -Total Gradient:
     Atom            X                  Y                   Z
    ------   -----------------  -----------------  -----------------
       1        0.000686642025    -0.000433504132     0.000047235144
       2       -0.000777532890     0.000435202086     0.000082384319
       3       -0.000084525012     0.000278459417    -0.000506437245
       4        0.000174229052    -0.000275030195     0.000382178819
       5        0.000004561681    -0.000003506925    -0.000001832417
       6        0.000002009650     0.000006304861     0.000005212483
       7       -0.000002782053     0.000000716352    -0.000004328940
       8        0.000001271227    -0.000000286228    -0.000004357701
       9       -0.000003592146    -0.000003908134     0.000000220287
      10       -0.000000269278    -0.000004332009     0.000002295694
      11       -0.000000704935    -0.000002230791    -0.000000436026
      12        0.000000692674     0.000002115699    -0.000002134417

  **** Optimization is complete! (in 6 steps) ****
    Final optimized geometry and variables:
    Molecular point group: c1

    Geometry (in Angstrom), charge = 0, multiplicity = 1:

    H           -1.760390255257    -1.104272946684     0.441676371282
    O           -1.383031051459    -0.575090404842    -0.233778338836
    C           -0.722900755150     0.538955786735     0.316416011620
    C            0.679454264092     0.660600863215    -0.252497553727
    H           -1.291938791969     1.433678375383     0.085569747029
    H           -0.674015772401     0.456323157452     1.399050011324
    C            1.595314187085    -0.495591716255     0.132080374382
    H            0.604898337224     0.726813464658    -1.333183240258
    H            1.103781863460     1.599969576464     0.091355667774
    H            1.192136055857    -1.438685063971    -0.213532818699
    H            2.579866966700    -0.372720597112    -0.303819612914
    H            1.717545227584    -0.555993773367     1.209391242450

  Mulliken Charges: (a.u.)
   Center  Symbol    Alpha    Beta     Spin     Total
       1     H     0.39066  0.39066  0.00000  0.21867
       2     O     4.20713  4.20713  0.00000 -0.41426
       3     C     2.97448  2.97448  0.00000  0.05104
       4     C     3.07633  3.07633  0.00000 -0.15267
       5     H     0.45928  0.45928  0.00000  0.08144
       6     H     0.47276  0.47276  0.00000  0.05447
       7     C     3.15463  3.15463  0.00000 -0.30926
       8     H     0.45259  0.45259  0.00000  0.09483
       9     H     0.45619  0.45619  0.00000  0.08763
      10     H     0.44780  0.44780  0.00000  0.10441
      11     H     0.44893  0.44893  0.00000  0.10215
      12     H     0.45922  0.45922  0.00000  0.08155

   Total alpha = 17.00000, Total beta = 17.00000, Total charge =  0.00000
