  ==> Input File <==

--------------------------------------------------------------------------
set {
	reference rhf
	basis cc-pvtz
}

set_num_threads( 4 )
memory 2 gb

molecule MOL {
0 1

H	 2.475235	 2.561476	 -1.450991
O	 1.539868	 2.505355	 -1.524237
C	 1.047619	 1.509630	 -0.761550
C	 1.862240	 0.699372	 0.014694
C	 -0.317513	 1.308712	 -0.769757
H	 2.925474	 0.857284	 0.019902
C	 1.310927	 -0.308402	 0.779809
H	 -0.949336	 1.932806	 -1.368212
C	 -0.861704	 0.296439	 0.000000
H	 1.951002	 -0.929018	 1.376436
C	 -0.053743	 -0.515975	 0.777179
C	 -2.330689	 0.069587	 0.000000
H	 -0.485322	 -1.298835	 1.371113
O	 -2.848621	 -0.993976	 0.000000
H	 -2.934306	 0.982410	 0.000000

	symmetry c1
}
set optking {
	frozen_dihedral = ("
		11 9 12 14
	")
}

ee = optimize('scf')
oeprop('DIPOLE', 'QUADRUPOLE', 'MULLIKEN_CHARGES')
f=open( 'psi4out.xyz', 'w' )
f.write( "15  " )
f.write( str(ee) + "\n" )
f.write( MOL.save_string_xyz() )
f.close()
--------------------------------------------------------------------------

    Molecular point group: c1
  Charge       = 0
  Multiplicity = 1
  Basis Set: CC-PVTZ
  Basis Set:
  @DF-RHF Final Energy:  -418.43419904681468
    Total Energy =                       -418.4341990468144559
    Molecular point group: c1
  Basis Set: CC-PVTZ
  Basis Set:
  Basis Set: CC-PVTZ
  Basis Set:
  @DF-RHF Final Energy:  -418.43311002706594
    Total Energy =                       -418.4331100270660500
  Basis Set: CC-PVTZ
  Basis Set:
  Basis Set: CC-PVTZ
  Basis Set:
  @DF-RHF Final Energy:  -418.43451761207137
    Total Energy =                       -418.4345176120715450
  Basis Set: CC-PVTZ
  Basis Set:
  Basis Set: CC-PVTZ
  Basis Set:
  @DF-RHF Final Energy:  -418.43481665488514
    Total Energy =                       -418.4348166548853669
  Basis Set: CC-PVTZ
  Basis Set:
  Basis Set: CC-PVTZ
  Basis Set:
  @DF-RHF Final Energy:  -418.43482063667085
    Total Energy =                       -418.4348206366707927
  Basis Set: CC-PVTZ
  Basis Set:
  Charge       = 0
  Multiplicity = 1
  Basis Set: CC-PVTZ
  Basis Set:

    Orbital Energies (a.u.)
    -----------------------

    Doubly Occupied:

       1A    -20.598096     2A    -20.558146     3A    -11.329609
       4A    -11.313273     5A    -11.253074     6A    -11.249016
       7A    -11.243968     8A    -11.242237     9A    -11.236607
      10A     -1.429616    11A     -1.413267    12A     -1.173587
      13A     -1.053442    14A     -1.027983    15A     -0.903653
      16A     -0.848513    17A     -0.818777    18A     -0.742314
      19A     -0.704446    20A     -0.678289    21A     -0.668479
      22A     -0.636163    23A     -0.615600    24A     -0.609915
      25A     -0.585639    26A     -0.547679    27A     -0.542507
      28A     -0.518375    29A     -0.494036    30A     -0.427269
      31A     -0.359488    32A     -0.329177

  @DF-RHF Final Energy:  -418.43482163611083

   => Energetics <=

    Nuclear Repulsion Energy =            403.0616927429335306
    One-Electron Energy =               -1368.6885481356698619
    Two-Electron Energy =                 547.1920337566259605
    DFT Exchange-Correlation Energy =       0.0000000000000000
    Empirical Dispersion Energy =           0.0000000000000000
    PCM Polarization Energy =               0.0000000000000000
    EFP Energy =                            0.0000000000000000
    Total Energy =                       -418.4348216361104278
    Molecular point group: c1
  Basis Set: CC-PVTZ
  Basis Set:

  -Total Gradient:
     Atom            X                  Y                   Z
    ------   -----------------  -----------------  -----------------
       1        0.000001104407     0.000000511509    -0.000002459332
       2        0.000009251855    -0.000011330122     0.000017104187
       3       -0.000118327170     0.000036422511    -0.000048148594
       4        0.000011409110    -0.000086434300     0.000087752551
       5        0.000042511478     0.000035052920    -0.000033004340
       6       -0.000002287140     0.000004550982     0.000005415208
       7        0.000104232132     0.000053314688    -0.000087341736
       8        0.000007360465     0.000003109110     0.000005547127
       9        0.000548532861    -0.004948248779    -0.008006737146
      10       -0.000004387400    -0.000002671146     0.000009855391
      11       -0.000469442992     0.003305415153     0.003644846708
      12       -0.000169286417     0.001756835098     0.010435313375
      13       -0.000004137943     0.000000381270     0.000008868319
      14       -0.000003754920    -0.000150772152    -0.006030747106
      15        0.000047221677     0.000003863259    -0.000006264611

  **** Optimization is complete! (in 6 steps) ****
    Final optimized geometry and variables:
    Molecular point group: c1

    Geometry (in Angstrom), charge = 0, multiplicity = 1:

    H            2.545473987858     2.034842365943    -1.271558004189
    O            1.609313102398     1.974775905523    -1.334069518797
    C            1.133616952197     0.973175876087    -0.568617221353
    C            1.951410051842     0.170689916579     0.203832076124
    C           -0.235267256885     0.768747780727    -0.561271813623
    H            3.013378555739     0.336313315776     0.212314366310
    C            1.400735364466    -0.839364889831     0.973408283940
    H           -0.861074353697     1.416183648400    -1.145555476173
    C           -0.769975002616    -0.265112883416     0.180662685960
    H            2.044146923847    -1.447313636769     1.579808466628
    C            0.042312845763    -1.066922340911     0.968006620417
    C           -2.248810955863    -0.450729915348     0.193772102581
    H           -0.390568833547    -1.854192689852     1.551632349240
    O           -2.786851808264    -1.502847959657     0.225304472892
    H           -2.832524179532     0.472418917139     0.122240197516

  Mulliken Charges: (a.u.)
   Center  Symbol    Alpha    Beta     Spin     Total
       1     H     0.38624  0.38624  0.00000  0.22753
       2     O     4.17189  4.17189  0.00000 -0.34378
       3     C     2.84046  2.84046  0.00000  0.31908
       4     C     3.13349  3.13349  0.00000 -0.26698
       5     C     3.13211  3.13211  0.00000 -0.26421
       6     H     0.43183  0.43183  0.00000  0.13633
       7     C     3.05741  3.05741  0.00000 -0.11482
       8     H     0.41909  0.41909  0.00000  0.16181
       9     C     2.94199  2.94199  0.00000  0.11602
      10     H     0.41905  0.41905  0.00000  0.16191
      11     C     3.11124  3.11124  0.00000 -0.22249
      12     C     2.91933  2.91933  0.00000  0.16134
      13     H     0.41331  0.41331  0.00000  0.17338
      14     O     4.16472  4.16472  0.00000 -0.32944
      15     H     0.45783  0.45783  0.00000  0.08434

   Total alpha = 32.00000, Total beta = 32.00000, Total charge = -0.00000
