  ==> Input File <==

--------------------------------------------------------------------------
set {
	reference rhf
	basis cc-pvtz
}

set_num_threads( 4 )
memory 2 gb

molecule MOL {
0 1

H	 -1.752232	 -2.214755	 -0.011938
C	 -1.343852	 -1.221619	 -0.018179
N	 -0.058800	 -1.097635	 -0.261688
C	 -2.148159	 -0.124236	 0.219734
C	 0.449026	 0.119242	 -0.273393
H	 -3.196988	 -0.237571	 0.417076
N	 -1.655094	 1.094230	 0.209506
C	 -0.370318	 1.215445	 -0.035100
C	 1.924033	 0.265863	 -0.538106
H	 0.033214	 2.210441	 -0.046812
C	 2.577954	 -1.046530	 -0.973376
H	 2.055325	 1.008502	 -1.315932
H	 2.413204	 0.642907	 0.352267
H	 3.629128	 -0.893836	 -1.187041
H	 2.101768	 -1.431889	 -1.865410
H	 2.498823	 -1.798517	 -0.196330

	symmetry c1
}
set optking {
	frozen_dihedral = ("
		12 9 5 3
	")
}

ee = optimize('scf')
oeprop('DIPOLE', 'QUADRUPOLE', 'MULLIKEN_CHARGES')
f=open( 'psi4out.xyz', 'w' )
f.write( "16  " )
f.write( str(ee) + "\n" )
f.write( MOL.save_string_xyz() )
f.close()
--------------------------------------------------------------------------

    Molecular point group: c1
  Charge       = 0
  Multiplicity = 1
  Basis Set: CC-PVTZ
  Basis Set:
  @DF-RHF Final Energy:  -340.87014700190355
    Total Energy =                       -340.8701470019037174
    Molecular point group: c1
  Basis Set: CC-PVTZ
  Basis Set:
  Basis Set: CC-PVTZ
  Basis Set:
  @DF-RHF Final Energy:  -340.87080072048104
    Total Energy =                       -340.8708007204810997
  Basis Set: CC-PVTZ
  Basis Set:
  Basis Set: CC-PVTZ
  Basis Set:
  @DF-RHF Final Energy:  -340.87095321544376
    Total Energy =                       -340.8709532154440467
  Basis Set: CC-PVTZ
  Basis Set:
  Basis Set: CC-PVTZ
  Basis Set:
  @DF-RHF Final Energy:  -340.87098613723060
    Total Energy =                       -340.8709861372307159
  Basis Set: CC-PVTZ
  Basis Set:
  Basis Set: CC-PVTZ
  Basis Set:
  @DF-RHF Final Energy:  -340.87100413263403
    Total Energy =                       -340.8710041326342548
  Basis Set: CC-PVTZ
  Basis Set:
  Basis Set: CC-PVTZ
  Basis Set:
  @DF-RHF Final Energy:  -340.87100636834384
    Total Energy =                       -340.8710063683439557
  Basis Set: CC-PVTZ
  Basis Set:
  Charge       = 0
  Multiplicity = 1
  Basis Set: CC-PVTZ
  Basis Set:

    Orbital Energies (a.u.)
    -----------------------

    Doubly Occupied:

       1A    -15.580274     2A    -15.574889     3A    -11.280652
       4A    -11.270401     5A    -11.269402     6A    -11.265768
       7A    -11.233737     8A    -11.210986     9A     -1.315739
      10A     -1.223872    11A     -1.084742    12A     -1.015233
      13A     -0.912437    14A     -0.890282    15A     -0.824987
      16A     -0.720545    17A     -0.707928    18A     -0.658007
      19A     -0.630448    20A     -0.604339    21A     -0.569410
      22A     -0.560573    23A     -0.523226    24A     -0.504233
      25A     -0.501838    26A     -0.487485    27A     -0.435064
      28A     -0.397234    29A     -0.345473

  @DF-RHF Final Energy:  -340.87100713471870

   => Energetics <=

    Nuclear Repulsion Energy =            350.4166017005929348
    One-Electron Energy =               -1155.3768031346041880
    Two-Electron Energy =                 464.0891942992925010
    DFT Exchange-Correlation Energy =       0.0000000000000000
    Empirical Dispersion Energy =           0.0000000000000000
    PCM Polarization Energy =               0.0000000000000000
    EFP Energy =                            0.0000000000000000
    Total Energy =                       -340.8710071347186954
    Molecular point group: c1
  Basis Set: CC-PVTZ
  Basis Set:

  -Total Gradient:
     Atom            X                  Y                   Z
    ------   -----------------  -----------------  -----------------
       1        0.000024487299    -0.000006017322     0.000013492383
       2       -0.000028808139    -0.000000318694    -0.000059036906
       3       -0.000071226738    -0.000057353005    -0.000055352395
       4        0.000053618577    -0.000016498703    -0.000023035824
       5        0.000031261868    -0.000005530144     0.000131494748
       6        0.000005257481     0.000010069836     0.000017950146
       7        0.000072627201     0.000039377279    -0.000021116548
       8       -0.000077708499    -0.000015349537     0.000042590770
       9        0.000052719662     0.000168578611     0.000067048766
      10       -0.000010917331     0.000016985293    -0.000003432146
      11       -0.000024474193    -0.000051431493    -0.000018116903
      12       -0.000018832300    -0.000068899119    -0.000091414168
      13       -0.000022914660    -0.000006595307    -0.000014892865
      14       -0.000018848813     0.000010175740     0.000019100318
      15        0.000013433319     0.000002334247    -0.000003950781
      16        0.000020325267    -0.000019527685    -0.000001328596

  **** Optimization is complete! (in 7 steps) ****
    Final optimized geometry and variables:
    Molecular point group: c1

    Geometry (in Angstrom), charge = 0, multiplicity = 1:

    H           -1.786739527116    -2.079314542776     0.212855534224
    C           -1.358943396534    -1.094856773445     0.207406216483
    N           -0.065396317902    -1.000223214013    -0.049719812583
    C           -2.130091710281     0.012716900632     0.457633831172
    C            0.469048571502     0.195486726209    -0.059792548905
    H           -3.178980374122    -0.072926687276     0.665875043872
    N           -1.604404800906     1.226458274684     0.449117373673
    C           -0.327563159387     1.315909495067     0.194159432948
    C            1.945351263139     0.361101572222    -0.338031686848
    H            0.104218962282     2.300072292354     0.183914483409
    C            2.665091687603    -0.914376642523    -0.753451584041
    H            2.062997772296     1.116732865082    -1.108531704758
    H            2.413363439768     0.771089521351     0.552463586090
    H            3.710711242149    -0.700951424639    -0.940692271265
    H            2.235364161051    -1.331345363806    -1.654996808124
    H            2.602812301382    -1.670076161737     0.017445459747

  Mulliken Charges: (a.u.)
   Center  Symbol    Alpha    Beta     Spin     Total
       1     H     0.41470  0.41470  0.00000  0.17060
       2     C     3.04882  3.04882  0.00000 -0.09765
       3     N     3.58879  3.58879  0.00000 -0.17758
       4     C     3.04676  3.04676  0.00000 -0.09352
       5     C     2.94523  2.94523  0.00000  0.10955
       6     H     0.41362  0.41362  0.00000  0.17275
       7     N     3.58677  3.58677  0.00000 -0.17355
       8     C     3.07371  3.07371  0.00000 -0.14742
       9     C     3.08162  3.08162  0.00000 -0.16323
      10     H     0.41612  0.41612  0.00000  0.16777
      11     C     3.14353  3.14353  0.00000 -0.28706
      12     H     0.44685  0.44685  0.00000  0.10630
      13     H     0.44599  0.44599  0.00000  0.10801
      14     H     0.45013  0.45013  0.00000  0.09974
      15     H     0.44981  0.44981  0.00000  0.10039
      16     H     0.44754  0.44754  0.00000  0.10491

   Total alpha = 29.00000, Total beta = 29.00000, Total charge = -0.00000
