  ==> Input File <==

--------------------------------------------------------------------------
set {
	reference rhf
	basis 6-31G*
}

set_num_threads( 4 )
memory 2 gb

molecule MOL {
0 1

H	 -2.646374	 -0.642757	 1.268656
C	 -2.083525	 -0.384536	 0.393091
O	 -0.807605	 -0.127164	 0.768327
F	 -2.118945	 -1.383102	 -0.486752
F	 -2.621877	 0.670592	 -0.209486
C	 -0.165321	 -1.065004	 1.556117
C	 0.507261	 -0.305660	 2.692422
Cl	 1.032642	 -1.967150	 0.613656
H	 -0.848605	 -1.777925	 1.983482
F	 1.131833	 -1.139893	 3.496229
F	 -0.418811	 0.319980	 3.391280
F	 1.366722	 0.581533	 2.254029

	symmetry c1
}
set optking {
	frozen_dihedral = ("
		6 3 2 4
	")
}

ee = optimize('scf')
oeprop('DIPOLE', 'QUADRUPOLE', 'MULLIKEN_CHARGES')
f=open( 'psi4out.xyz', 'w' )
f.write( "12  " )
f.write( str(ee) + "\n" )
f.write( MOL.save_string_xyz() )
f.close()
--------------------------------------------------------------------------

    Molecular point group: c1
  Charge       = 0
  Multiplicity = 1
  Basis Set: 6-31G*
  Basis Set:
  @DF-RHF Final Energy: -1146.30727407772656
    Total Energy =                      -1146.3072740777270155
    Molecular point group: c1
  Basis Set: 6-31G*
  Basis Set:
  Basis Set: 6-31G*
  Basis Set:
  @DF-RHF Final Energy: -1146.30903253383599
    Total Energy =                      -1146.3090325338357616
  Basis Set: 6-31G*
  Basis Set:
  Basis Set: 6-31G*
  Basis Set:
  @DF-RHF Final Energy: -1146.30948673915782
    Total Energy =                      -1146.3094867391578191
  Basis Set: 6-31G*
  Basis Set:
  Basis Set: 6-31G*
  Basis Set:
  @DF-RHF Final Energy: -1146.30952023121608
    Total Energy =                      -1146.3095202312149468
  Basis Set: 6-31G*
  Basis Set:
  @DF-RHF Final Energy: -1146.30952561390814
    Total Energy =                      -1146.3095256139088178
  @DF-RHF Final Energy: -1146.30952740060457
    Total Energy =                      -1146.3095274006041109
  Basis Set: 6-31G*
  Basis Set:
  @DF-RHF Final Energy: -1146.30953039553106
    Total Energy =                      -1146.3095303955319650
  Basis Set: 6-31G*
  Basis Set:
  Basis Set: 6-31G*
  Basis Set:
  @DF-RHF Final Energy: -1146.30953301395039
    Total Energy =                      -1146.3095330139497037
  Basis Set: 6-31G*
  Basis Set:
  Basis Set: 6-31G*
  Basis Set:
  @DF-RHF Final Energy: -1146.30953463403625
    Total Energy =                      -1146.3095346340355718
  Basis Set: 6-31G*
  Basis Set:
  Charge       = 0
  Multiplicity = 1
  Basis Set: 6-31G*
  Basis Set:

    Orbital Energies (a.u.)
    -----------------------

    Doubly Occupied:

       1A   -104.846680     2A    -26.364778     3A    -26.364305
       4A    -26.361878     5A    -26.345872     6A    -26.342997
       7A    -20.650046     8A    -11.532329     9A    -11.491455
      10A    -11.407645    11A    -10.581431    12A     -8.050789
      13A     -8.047216    14A     -8.047139    15A     -1.765920
      16A     -1.717279    17A     -1.662363    18A     -1.661244
      19A     -1.639675    20A     -1.488816    21A     -1.181514
      22A     -1.053382    23A     -0.985979    24A     -0.932301
      25A     -0.860254    26A     -0.855986    27A     -0.847454
      28A     -0.830490    29A     -0.814355    30A     -0.789911
      31A     -0.732708    32A     -0.729153    33A     -0.703255
      34A     -0.694105    35A     -0.683369    36A     -0.678667
      37A     -0.662789    38A     -0.659294    39A     -0.649910
      40A     -0.635367    41A     -0.616119    42A     -0.570056
      43A     -0.520768    44A     -0.479525    45A     -0.472041

  @DF-RHF Final Energy: -1146.30953491088553

   => Energetics <=

    Nuclear Repulsion Energy =            728.2928637541576791
    One-Electron Energy =               -3039.1875798079427113
    Two-Electron Energy =                1164.5851811428992733
    DFT Exchange-Correlation Energy =       0.0000000000000000
    Empirical Dispersion Energy =           0.0000000000000000
    PCM Polarization Energy =               0.0000000000000000
    EFP Energy =                            0.0000000000000000
    Total Energy =                      -1146.3095349108857590
    Molecular point group: c1
  Basis Set: 6-31G*
  Basis Set:

  -Total Gradient:
     Atom            X                  Y                   Z
    ------   -----------------  -----------------  -----------------
       1        0.000003203632     0.000001822158     0.000002319344
       2       -0.000214299916    -0.000602762140     0.001082340896
       3        0.000446808069    -0.000345904016    -0.001177148714
       4        0.000056554454     0.000550037427    -0.000559235488
       5        0.000000312756     0.000031222496    -0.000008020809
       6       -0.000340323363     0.000387554214     0.000673122065
       7        0.000004334152    -0.000026017416    -0.000025041961
       8        0.000032539774    -0.000022017368    -0.000013194517
       9        0.000000031306    -0.000007909623    -0.000010340470
      10       -0.000020568739     0.000034318706     0.000005344059
      11        0.000026290568    -0.000012867892     0.000013041356
      12        0.000005117215     0.000012523572     0.000016814245

  **** Optimization is complete! (in 10 steps) ****
    Final optimized geometry and variables:
    Molecular point group: c1

    Geometry (in Angstrom), charge = 0, multiplicity = 1:

    H           -2.453874618175    -0.090238879029    -0.165525846766
    C           -1.817575701313     0.205245477149    -0.984960141474
    O           -0.549345495858     0.493078372359    -0.583086738306
    F           -1.807540124679    -0.769341070244    -1.887648193810
    F           -2.291843029387     1.292344392335    -1.552358056894
    C            0.101446782563    -0.442639924258     0.185415383929
    C            0.798890336628     0.310853424244     1.311466451718
    CL           1.271003636997    -1.371124156091    -0.767989240306
    H           -0.577934216922    -1.151712921743     0.633813931662
    F            1.429459230306    -0.526841034150     2.106119907022
    F           -0.119280451182     0.935583848470     2.025622356335
    F            1.652455746070     1.196330316519     0.864558591045

  Mulliken Charges: (a.u.)
   Center  Symbol    Alpha    Beta     Spin     Total
       1     H     0.41986  0.41986  0.00000  0.16028
       2     C     2.57070  2.57070  0.00000  0.85861
       3     O     4.29413  4.29413  0.00000 -0.58826
       4     F     4.67969  4.67969  0.00000 -0.35938
       5     F     4.67006  4.67006  0.00000 -0.34011
       6     C     3.04110  3.04110  0.00000 -0.08219
       7     C     2.43175  2.43175  0.00000  1.13650
       8    CL     8.49633  8.49633  0.00000  0.00735
       9     H     0.37826  0.37826  0.00000  0.24348
      10     F     4.67346  4.67346  0.00000 -0.34692
      11     F     4.67873  4.67873  0.00000 -0.35747
      12     F     4.66594  4.66594  0.00000 -0.33188

   Total alpha = 45.00000, Total beta = 45.00000, Total charge = -0.00000
