  ==> Input File <==

--------------------------------------------------------------------------
set {
	reference rhf
	basis cc-pvtz
}

set_num_threads( 4 )
memory 2 gb

molecule MOL {
0 1

H	 4.132538	 -0.482280	 -2.405624
C	 3.394752	 -0.922290	 -1.745192
C	 2.112840	 -0.097041	 -1.727421
H	 3.204869	 -1.933181	 -2.090275
H	 3.835540	 -0.988863	 -0.756106
C	 1.047771	 -0.679714	 -0.810311
H	 1.704450	 -0.020916	 -2.729013
H	 2.342242	 0.917212	 -1.409235
N	 -0.163105	 0.112105	 -0.833484
H	 0.799680	 -1.683578	 -1.141788
H	 1.455474	 -0.780853	 0.199952
C	 -1.215959	 -0.382435	 0.027143
H	 0.048785	 1.058891	 -0.596804
C	 -2.451944	 0.502410	 -0.038737
H	 -1.475081	 -1.384853	 -0.300257
H	 -0.890166	 -0.472825	 1.067704
C	 -3.752217	 -0.292550	 0.005776
H	 -2.407325	 1.093801	 -0.946480
H	 -2.431979	 1.206234	 0.790023
H	 -3.817783	 -0.982946	 -0.828547
H	 -4.612613	 0.364348	 -0.042306
H	 -3.830160	 -0.871666	 0.919868

	symmetry c1
}
set optking {
	frozen_dihedral = ("
		15 12 14 18
	")
}

ee = optimize('scf')
oeprop('DIPOLE', 'QUADRUPOLE', 'MULLIKEN_CHARGES')
f=open( 'psi4out.xyz', 'w' )
f.write( "22  " )
f.write( str(ee) + "\n" )
f.write( MOL.save_string_xyz() )
f.close()
--------------------------------------------------------------------------

    Molecular point group: c1
  Charge       = 0
  Multiplicity = 1
  Basis Set: CC-PVTZ
  Basis Set:
  @DF-RHF Final Energy:  -290.48592851142877
    Total Energy =                       -290.4859285114283693
    Molecular point group: c1
  Basis Set: CC-PVTZ
  Basis Set:
  Basis Set: CC-PVTZ
  Basis Set:
  @DF-RHF Final Energy:  -290.48622380891385
    Total Energy =                       -290.4862238089140192
  Basis Set: CC-PVTZ
  Basis Set:
  Basis Set: CC-PVTZ
  Basis Set:
  @DF-RHF Final Energy:  -290.48628017279998
    Total Energy =                       -290.4862801728006616
  Basis Set: CC-PVTZ
  Basis Set:
  Basis Set: CC-PVTZ
  Basis Set:
  @DF-RHF Final Energy:  -290.48628195486776
    Total Energy =                       -290.4862819548675361
  Basis Set: CC-PVTZ
  Basis Set:
  Charge       = 0
  Multiplicity = 1
  Basis Set: CC-PVTZ
  Basis Set:

    Orbital Energies (a.u.)
    -----------------------

    Doubly Occupied:

       1A    -15.529148     2A    -11.236231     3A    -11.236096
       4A    -11.211912     5A    -11.211547     6A    -11.207623
       7A    -11.207523     8A     -1.207618     9A     -1.059329
      10A     -1.026606    11A     -0.928546    12A     -0.869250
      13A     -0.812851    14A     -0.794643    15A     -0.665698
      16A     -0.629463    17A     -0.616780    18A     -0.612553
      19A     -0.573937    20A     -0.563350    21A     -0.534829
      22A     -0.527921    23A     -0.514444    24A     -0.487162
      25A     -0.479533    26A     -0.474362    27A     -0.464127
      28A     -0.451585    29A     -0.361009

  @DF-RHF Final Energy:  -290.48628212767528

   => Energetics <=

    Nuclear Repulsion Energy =            313.6640703566357615
    One-Electron Energy =               -1013.3093568695570639
    Two-Electron Energy =                 409.1590043852455096
    DFT Exchange-Correlation Energy =       0.0000000000000000
    Empirical Dispersion Energy =           0.0000000000000000
    PCM Polarization Energy =               0.0000000000000000
    EFP Energy =                            0.0000000000000000
    Total Energy =                       -290.4862821276757927
    Molecular point group: c1
  Basis Set: CC-PVTZ
  Basis Set:

  -Total Gradient:
     Atom            X                  Y                   Z
    ------   -----------------  -----------------  -----------------
       1       -0.000003631965     0.000002657183     0.000001302692
       2       -0.000004223186    -0.000001572001     0.000005132288
       3        0.000003594769     0.000003197135    -0.000002710729
       4       -0.000000395235     0.000000457087    -0.000001160708
       5        0.000001645959    -0.000001345882     0.000001489445
       6        0.000039116466    -0.000026972990    -0.000003911515
       7       -0.000002941757    -0.000002969871    -0.000000111683
       8        0.000002062966     0.000002258953    -0.000000356450
       9       -0.000035081848    -0.000006500892     0.000012542287
      10       -0.000004068374     0.000002084160    -0.000002620274
      11       -0.000006908677     0.000007295177    -0.000004997453
      12        0.001631497195     0.002172907459    -0.004732181208
      13       -0.000002852990     0.000010523484     0.000005644929
      14       -0.003026338532    -0.004181631152    -0.001676617958
      15       -0.000919109584    -0.001160569069     0.004208427254
      16        0.000018951279     0.000004720512     0.000012027128
      17        0.000013034254     0.000012188275    -0.000003506056
      18        0.002281824976     0.003146866580     0.002162495773
      19        0.000002505649     0.000005111810     0.000012767308
      20        0.000003982149     0.000014148827     0.000007271043
      21       -0.000001367598    -0.000003558954     0.000002594603
      22        0.000008704082     0.000000704171    -0.000003520717

  **** Optimization is complete! (in 5 steps) ****
    Final optimized geometry and variables:
    Molecular point group: c1

    Geometry (in Angstrom), charge = 0, multiplicity = 1:

    H            4.307551648566    -0.206509033309    -1.635636144279
    C            3.565402889972    -0.646627630133    -0.980164841312
    C            2.271668683035     0.159910016397    -0.996803741201
    H            3.395770844813    -1.665629386765    -1.311678370750
    H            3.990654635482    -0.690685551479     0.016953046996
    C            1.199811250591    -0.424303375121    -0.088660722745
    H            1.879367860864     0.214585118293    -2.006154014040
    H            2.480905785969     1.182163972146    -0.690526806898
    N           -0.021746510743     0.349271201664    -0.144154208277
    H            0.970758019827    -1.436375696644    -0.408922180086
    H            1.591276500938    -0.504718601502     0.929726071986
    C           -1.082737723127    -0.155330414443     0.700094628560
    H            0.171424045317     1.300549327938     0.091978700125
    C           -2.316208389368     0.752995028818     0.681231871598
    H           -1.354333082381    -1.152566798005     0.368295957810
    H           -0.751688293452    -0.282878262307     1.735104837887
    C           -3.632286205604    -0.007182749984     0.784497995694
    H           -2.289421320259     1.356290404470    -0.219357891659
    H           -2.249812680863     1.459236950404     1.504718460576
    H           -3.770431305665    -0.662969296761    -0.068011153715
    H           -4.475725091940     0.672266519021     0.822936751938
    H           -3.661423530785    -0.619051638625     1.680494827214

  Mulliken Charges: (a.u.)
   Center  Symbol    Alpha    Beta     Spin     Total
       1     H     0.44769  0.44769  0.00000  0.10462
       2     C     3.15360  3.15360  0.00000 -0.30721
       3     C     3.08011  3.08011  0.00000 -0.16021
       4     H     0.45473  0.45473  0.00000  0.09054
       5     H     0.45615  0.45615  0.00000  0.08770
       6     C     3.02197  3.02197  0.00000 -0.04395
       7     H     0.44912  0.44912  0.00000  0.10176
       8     H     0.45974  0.45974  0.00000  0.08053
       9     N     3.63607  3.63607  0.00000 -0.27214
      10     H     0.45912  0.45912  0.00000  0.08176
      11     H     0.47403  0.47403  0.00000  0.05194
      12     C     3.02469  3.02469  0.00000 -0.04938
      13     H     0.44511  0.44511  0.00000  0.10978
      14     C     3.08760  3.08760  0.00000 -0.17521
      15     H     0.46085  0.46085  0.00000  0.07830
      16     H     0.47470  0.47470  0.00000  0.05059
      17     C     3.15045  3.15045  0.00000 -0.30089
      18     H     0.45139  0.45139  0.00000  0.09723
      19     H     0.45513  0.45513  0.00000  0.08974
      20     H     0.45312  0.45312  0.00000  0.09376
      21     H     0.44911  0.44911  0.00000  0.10178
      22     H     0.45552  0.45552  0.00000  0.08895

   Total alpha = 29.00000, Total beta = 29.00000, Total charge =  0.00000
