  ==> Input File <==

--------------------------------------------------------------------------
set {
	reference rhf
	basis 6-31G*
}

set_num_threads( 1 )
memory 2 gb

molecule MOL {
0 1

H	 2.591676	 2.013956	 0.335017
O	 3.341076	 1.666752	 -0.126416
C	 3.569581	 0.339145	 0.272707
C	 2.539767	 -0.640285	 -0.279495
H	 4.553106	 0.084646	 -0.100901
H	 3.608576	 0.269204	 1.359154
C	 2.328653	 -1.879510	 0.593788
H	 1.595980	 -0.115405	 -0.402509
H	 2.863221	 -0.948385	 -1.272379
C	 1.329870	 -2.868219	 -0.014246
H	 1.980684	 -1.569640	 1.575248
H	 3.283523	 -2.383448	 0.744158
C	 1.145802	 -4.167267	 0.778807
H	 0.365236	 -2.377272	 -0.129566
H	 1.662173	 -3.122229	 -1.018613
C	 0.496013	 -3.995840	 2.154621
H	 0.532628	 -4.844440	 0.187816
H	 2.111205	 -4.657653	 0.894376
C	 0.237371	 -5.327889	 2.861860
H	 -0.445991	 -3.460873	 2.042601
H	 1.124145	 -3.376844	 2.790700
C	 -0.405330	 -5.159307	 4.238152
H	 -0.403132	 -5.947983	 2.238381
H	 1.176060	 -5.868173	 2.965989
H	 -1.362431	 -4.650661	 4.164247
H	 -0.577662	 -6.120448	 4.712647
H	 0.228587	 -4.573888	 4.898302

	symmetry c1
}
set optking {
	frozen_dihedral = ("
		14 10 7 4,
		14 10 13 16,
		10 7 4 8,
		10 13 16 20,
		20 16 19 22,
		4 3 2 1
	")
}

ee = energy('scf')
oeprop('DIPOLE', 'QUADRUPOLE', 'MULLIKEN_CHARGES')
f=open( 'psi4out.xyz', 'w' )
f.write( "27  " )
f.write( str(ee) + "\n" )
f.write( MOL.save_string_xyz() )
f.close()
--------------------------------------------------------------------------

    Molecular point group: c1

    Geometry (in Angstrom), charge = 0, multiplicity = 1:

       Center              X                  Y                   Z               Mass
    ------------   -----------------  -----------------  -----------------  -----------------
           H          0.951671200569     4.394425372698    -0.828693172256     1.007825032070
           O          1.701071200569     4.047221372698    -1.290126172256    15.994914619560
           C          1.929576200569     2.719614372698    -0.891003172256    12.000000000000
           C          0.899762200569     1.740184372698    -1.443205172256    12.000000000000
           H          2.913101200569     2.465115372698    -1.264611172256     1.007825032070
           H          1.968571200569     2.649673372698     0.195443827744     1.007825032070
           C          0.688648200569     0.500959372698    -0.569922172256    12.000000000000
           H         -0.044024799431     2.265064372698    -1.566219172256     1.007825032070
           H          1.223216200569     1.432084372698    -2.436089172256     1.007825032070
           C         -0.310134799431    -0.487749627302    -1.177956172256    12.000000000000
           H          0.340679200569     0.810829372698     0.411537827744     1.007825032070
           H          1.643518200569    -0.002978627302    -0.419552172256     1.007825032070
           C         -0.494202799431    -1.786797627302    -0.384903172256    12.000000000000
           H         -1.274768799431     0.003197372698    -1.293276172256     1.007825032070
           H          0.022168200569    -0.741759627302    -2.182323172256     1.007825032070
           C         -1.143991799431    -1.615370627302     0.990910827744    12.000000000000
           H         -1.107376799431    -2.463970627302    -0.975894172256     1.007825032070
           H          0.471200200569    -2.277183627302    -0.269334172256     1.007825032070
           C         -1.402633799431    -2.947419627302     1.698149827744    12.000000000000
           H         -2.085995799431    -1.080403627302     0.878890827744     1.007825032070
           H         -0.515859799431    -0.996374627302     1.626989827744     1.007825032070
           C         -2.045334799431    -2.778837627302     3.074441827744    12.000000000000
           H         -2.043136799431    -3.567513627302     1.074670827744     1.007825032070
           H         -0.463944799431    -3.487703627302     1.802278827744     1.007825032070
           H         -3.002435799431    -2.270191627302     3.000536827744     1.007825032070
           H         -2.217666799431    -3.739978627302     3.548936827744     1.007825032070
           H         -1.411417799431    -2.193418627302     3.734591827744     1.007825032070

  Charge       = 0
  Multiplicity = 1
  Basis Set: 6-31G*
  Basis Set:

    Orbital Energies (a.u.)
    -----------------------

    Doubly Occupied:

       1A    -20.551645     2A    -11.266422     3A    -11.218987
       4A    -11.216515     5A    -11.215970     6A    -11.215178
       7A    -11.214413     8A    -11.214077     9A    -11.209523
      10A     -1.358300    11A     -1.095198    12A     -1.062146
      13A     -1.011510    14A     -0.945933    15A     -0.884115
      16A     -0.821955    17A     -0.804225    18A     -0.778193
      19A     -0.691296    20A     -0.650938    21A     -0.644078
      22A     -0.607633    23A     -0.602727    24A     -0.585917
      25A     -0.572643    26A     -0.552050    27A     -0.545982
      28A     -0.521213    29A     -0.510241    30A     -0.499218
      31A     -0.482424    32A     -0.474805    33A     -0.463352
      34A     -0.460206    35A     -0.453832    36A     -0.443024
      37A     -0.420903

  @DF-RHF Final Energy:  -388.27859429186191

   => Energetics <=

    Nuclear Repulsion Energy =            453.5117786382896270
    One-Electron Energy =               -1425.0469758721199014
    Two-Electron Energy =                 583.2566029419706410
    DFT Exchange-Correlation Energy =       0.0000000000000000
    Empirical Dispersion Energy =           0.0000000000000000
    PCM Polarization Energy =               0.0000000000000000
    EFP Energy =                            0.0000000000000000
    Total Energy =                       -388.2785942918596902

  Mulliken Charges: (a.u.)
   Center  Symbol    Alpha    Beta     Spin     Total
       1     H     0.28307  0.28307  0.00000  0.43387
       2     O     4.37133  4.37133  0.00000 -0.74266
       3     C     2.99214  2.99214  0.00000  0.01572
       4     C     3.16565  3.16565  0.00000 -0.33130
       5     H     0.41534  0.41534  0.00000  0.16931
       6     H     0.43122  0.43122  0.00000  0.13756
       7     C     3.16196  3.16196  0.00000 -0.32391
       8     H     0.42277  0.42277  0.00000  0.15445
       9     H     0.41669  0.41669  0.00000  0.16662
      10     C     3.15273  3.15273  0.00000 -0.30545
      11     H     0.42162  0.42162  0.00000  0.15676
      12     H     0.42305  0.42305  0.00000  0.15391
      13     C     3.15330  3.15330  0.00000 -0.30659
      14     H     0.42351  0.42351  0.00000  0.15299
      15     H     0.42078  0.42078  0.00000  0.15844
      16     C     3.15275  3.15275  0.00000 -0.30551
      17     H     0.42135  0.42135  0.00000  0.15730
      18     H     0.42373  0.42373  0.00000  0.15254
      19     C     3.15118  3.15118  0.00000 -0.30235
      20     H     0.42479  0.42479  0.00000  0.15041
      21     H     0.42271  0.42271  0.00000  0.15458
      22     C     3.23920  3.23920  0.00000 -0.47840
      23     H     0.42293  0.42293  0.00000  0.15414
      24     H     0.42294  0.42294  0.00000  0.15412
      25     H     0.42194  0.42194  0.00000  0.15612
      26     H     0.41918  0.41918  0.00000  0.16164
      27     H     0.42216  0.42216  0.00000  0.15569

   Total alpha = 37.00000, Total beta = 37.00000, Total charge = -0.00000
