  ==> Input File <==

--------------------------------------------------------------------------
set {
	reference rhf
	basis cc-pvtz
}

set_num_threads( 4 )
memory 2 gb

molecule MOL {
0 1

H	 2.382121	 -1.786960	 0.762548
N	 1.401982	 -1.607833	 0.774778
C	 0.818346	 -1.864136	 -0.526576
C	 1.134115	 -0.255690	 1.221766
H	 1.018643	 -2.890623	 -0.808636
H	 1.232645	 -1.216200	 -1.301271
C	 -0.681559	 -1.641071	 -0.458742
H	 1.563225	 -0.116659	 2.206594
H	 1.568365	 0.493869	 0.557532
C	 -0.366204	 -0.034732	 1.287310
H	 -1.123437	 -2.393823	 0.200576
H	 -1.111862	 -1.774723	 -1.444184
N	 -0.976577	 -0.298712	 -0.000000
H	 -0.568485	 0.993100	 1.564372
H	 -0.786356	 -0.676821	 2.066915
C	 -2.391156	 -0.021003	 -0.000000
H	 -2.853954	 -0.458728	 -0.875714
H	 -2.853954	 -0.458728	 0.875714
H	 -2.614037	 1.049773	 -0.000000

	symmetry c1
}
set optking {
	frozen_dihedral = ("
		7 13 16 19
	")
}

ee = optimize('scf')
oeprop('DIPOLE', 'QUADRUPOLE', 'MULLIKEN_CHARGES')
f=open( 'psi4out.xyz', 'w' )
f.write( "19  " )
f.write( str(ee) + "\n" )
f.write( MOL.save_string_xyz() )
f.close()
--------------------------------------------------------------------------

    Molecular point group: c1
  Charge       = 0
  Multiplicity = 1
  Basis Set: CC-PVTZ
  Basis Set:
  @DF-RHF Final Energy:  -305.30730480532270
    Total Energy =                       -305.3073048053229854
    Molecular point group: c1
  Basis Set: CC-PVTZ
  Basis Set:
  Basis Set: CC-PVTZ
  Basis Set:
  @DF-RHF Final Energy:  -305.30809774626385
    Total Energy =                       -305.3080977462637406
  Basis Set: CC-PVTZ
  Basis Set:
  Basis Set: CC-PVTZ
  Basis Set:
  @DF-RHF Final Energy:  -305.30817287403283
    Total Energy =                       -305.3081728740327208
  Basis Set: CC-PVTZ
  Basis Set:
  Charge       = 0
  Multiplicity = 1
  Basis Set: CC-PVTZ
  Basis Set:

    Orbital Energies (a.u.)
    -----------------------

    Doubly Occupied:

       1A    -15.535239     2A    -15.531211     3A    -11.237156
       4A    -11.237138     5A    -11.235940     6A    -11.235754
       7A    -11.233079     8A     -1.248774     9A     -1.187284
      10A     -1.024199    11A     -0.965857    12A     -0.862078
      13A     -0.858247    14A     -0.756763    15A     -0.692629
      16A     -0.635297    17A     -0.627074    18A     -0.608926
      19A     -0.605104    20A     -0.582038    21A     -0.543656
      22A     -0.531131    23A     -0.511353    24A     -0.490164
      25A     -0.468390    26A     -0.458492    27A     -0.366107
      28A     -0.345217

  @DF-RHF Final Energy:  -305.30817448782329

   => Energetics <=

    Nuclear Repulsion Energy =            340.1729378470507754
    One-Electron Energy =               -1087.7336388306307526
    Two-Electron Energy =                 442.2525264957565128
    DFT Exchange-Correlation Energy =       0.0000000000000000
    Empirical Dispersion Energy =           0.0000000000000000
    PCM Polarization Energy =               0.0000000000000000
    EFP Energy =                            0.0000000000000000
    Total Energy =                       -305.3081744878234645
    Molecular point group: c1
  Basis Set: CC-PVTZ
  Basis Set:

  -Total Gradient:
     Atom            X                  Y                   Z
    ------   -----------------  -----------------  -----------------
       1        0.000009958223     0.000005111027     0.000000898880
       2        0.000020551714    -0.000017421829     0.000027630670
       3       -0.000034417967     0.000056390891     0.000027859294
       4       -0.000026200577     0.000003350573    -0.000049127541
       5       -0.000004269230    -0.000007666121    -0.000000307505
       6       -0.000011345393    -0.000002999637    -0.000000711986
       7        0.000161789145     0.000687302343    -0.002349794459
       8        0.000000309078    -0.000006093068     0.000003607118
       9        0.000006537581    -0.000001881787     0.000000833534
      10       -0.000010521248     0.000016062813     0.000118558736
      11        0.000022232131     0.000053210733    -0.000008542251
      12       -0.000009216904     0.000008714399    -0.000008306773
      13       -0.000203761685    -0.001094573454     0.002312127324
      14       -0.000001447840     0.000007926746     0.000000631928
      15       -0.000003575656     0.000005193524    -0.000045318469
      16       -0.000072837972     0.000306807599     0.003211748195
      17        0.000051324696    -0.000013233375    -0.000014718939
      18        0.000024413296    -0.000016649973    -0.000000114084
      19        0.000080478605     0.000010448593    -0.003226953672

  **** Optimization is complete! (in 4 steps) ****
    Final optimized geometry and variables:
    Molecular point group: c1

    Geometry (in Angstrom), charge = 0, multiplicity = 1:

    H            2.549734709457    -0.954891543128     0.423867141400
    N            1.568810041684    -0.780005883227     0.439649716775
    C            0.981105257567    -1.043676844421    -0.858354593645
    C            1.296787118515     0.572428950056     0.882945837170
    H            1.191929725234    -2.067810527271    -1.141617631011
    H            1.384313482743    -0.390804771400    -1.634979621433
    C           -0.521371919406    -0.837471852137    -0.785257246561
    H            1.733054509956     0.718747065370     1.863655317536
    H            1.721277421073     1.321374988506     0.211588850248
    C           -0.204512491778     0.783082086323     0.959218459955
    H           -0.952198678976    -1.602809392674    -0.132586747107
    H           -0.950899422866    -0.966395439452    -1.771200606302
    N           -0.825040326532     0.498439479205    -0.316503256197
    H           -0.413768158874     1.812729344004     1.225979303383
    H           -0.612958637268     0.147642406199     1.750522263149
    C           -2.235499897883     0.798145433732    -0.322716723707
    H           -2.682999833490     0.424794098969    -1.235307695134
    H           -2.773230066486     0.354203292775     0.518415366495
    H           -2.390230639088     1.870699344701    -0.310973345528

  Mulliken Charges: (a.u.)
   Center  Symbol    Alpha    Beta     Spin     Total
       1     H     0.43993  0.43993  0.00000  0.12013
       2     N     3.64283  3.64283  0.00000 -0.28566
       3     C     3.04143  3.04143  0.00000 -0.08286
       4     C     3.04061  3.04061  0.00000 -0.08123
       5     H     0.45252  0.45252  0.00000  0.09496
       6     H     0.46569  0.46569  0.00000  0.06862
       7     C     3.03232  3.03232  0.00000 -0.06465
       8     H     0.45248  0.45248  0.00000  0.09503
       9     H     0.46558  0.46558  0.00000  0.06885
      10     C     3.03433  3.03433  0.00000 -0.06865
      11     H     0.46990  0.46990  0.00000  0.06021
      12     H     0.45410  0.45410  0.00000  0.09179
      13     N     3.61472  3.61472  0.00000 -0.22943
      14     H     0.45445  0.45445  0.00000  0.09109
      15     H     0.46802  0.46802  0.00000  0.06396
      16     C     3.09642  3.09642  0.00000 -0.19284
      17     H     0.45441  0.45441  0.00000  0.09117
      18     H     0.46889  0.46889  0.00000  0.06222
      19     H     0.45136  0.45136  0.00000  0.09728

   Total alpha = 28.00000, Total beta = 28.00000, Total charge = -0.00000
