  ==> Input File <==

--------------------------------------------------------------------------
set {
	reference rhf
	basis 6-31G*
}

set_num_threads( 1 )
memory 2 gb

molecule MOL {
0 1

H	 -2.844226	 0.396523	 -0.089117
O	 -2.035884	 -0.060112	 0.102722
C	 -0.955155	 0.788182	 -0.092531
C	 0.353668	 0.040312	 -0.004810
H	 -0.985057	 1.290372	 -1.054184
H	 -0.974469	 1.533190	 0.688632
F	 0.394464	 -0.937475	 -0.903053
F	 1.368604	 0.853376	 -0.249821
F	 0.546173	 -0.502608	 1.179981

	symmetry c1
}
set optking {
	frozen_dihedral = ("
		7 4 3 5
	")
}

ee = energy('scf')
oeprop('DIPOLE', 'QUADRUPOLE', 'MULLIKEN_CHARGES')
f=open( 'psi4out.xyz', 'w' )
f.write( "9  " )
f.write( str(ee) + "\n" )
f.write( MOL.save_string_xyz() )
f.close()
--------------------------------------------------------------------------

    Molecular point group: c1

    Geometry (in Angstrom), charge = 0, multiplicity = 1:

       Center              X                  Y                   Z               Mass
    ------------   -----------------  -----------------  -----------------  -----------------
           H         -2.836716175196     0.385732189480    -0.094433282381     1.007825032070
           O         -2.028374175196    -0.070902810520     0.097405717619    15.994914619560
           C         -0.947645175196     0.777391189480    -0.097847282381    12.000000000000
           C          0.361177824804     0.029521189480    -0.010126282381    12.000000000000
           H         -0.977547175196     1.279581189480    -1.059500282381     1.007825032070
           H         -0.966959175196     1.522399189480     0.683315717619     1.007825032070
           F          0.401973824804    -0.948265810520    -0.908369282381    18.998403224000
           F          1.376113824804     0.842585189480    -0.255137282381    18.998403224000
           F          0.553682824804    -0.513398810520     1.174664717619    18.998403224000

  Charge       = 0
  Multiplicity = 1
  Basis Set: 6-31G*
  Basis Set:

    Orbital Energies (a.u.)
    -----------------------

    Doubly Occupied:

       1A    -26.341749     2A    -26.335239     3A    -26.329744
       4A    -20.587564     5A    -11.500232     6A    -11.309599
       7A     -1.733980     8A     -1.634954     9A     -1.626937
      10A     -1.400706    11A     -1.048016    12A     -0.917241
      13A     -0.826010    14A     -0.822810    15A     -0.784374
      16A     -0.732011    17A     -0.707479    18A     -0.697609
      19A     -0.666420    20A     -0.651701    21A     -0.637756
      22A     -0.635063    23A     -0.596886    24A     -0.526888
      25A     -0.476146

  @DF-RHF Final Energy:  -450.65790750309179

   => Energetics <=

    Nuclear Repulsion Energy =            276.0179494181356858
    One-Electron Energy =               -1174.2975129326759998
    Two-Electron Energy =                 447.6216560114482377
    DFT Exchange-Correlation Energy =       0.0000000000000000
    Empirical Dispersion Energy =           0.0000000000000000
    PCM Polarization Energy =               0.0000000000000000
    EFP Energy =                            0.0000000000000000
    Total Energy =                       -450.6579075030920762

  Mulliken Charges: (a.u.)
   Center  Symbol    Alpha    Beta     Spin     Total
       1     H     0.27113  0.27113  0.00000  0.45773
       2     O     4.36335  4.36335  0.00000 -0.72669
       3     C     3.05215  3.05215  0.00000 -0.10430
       4     C     2.45320  2.45320  0.00000  1.09360
       5     H     0.41111  0.41111  0.00000  0.17778
       6     H     0.41099  0.41099  0.00000  0.17802
       7     F     4.68079  4.68079  0.00000 -0.36159
       8     F     4.68195  4.68195  0.00000 -0.36389
       9     F     4.67533  4.67533  0.00000 -0.35067

   Total alpha = 25.00000, Total beta = 25.00000, Total charge =  0.00000
