  ==> Input File <==

--------------------------------------------------------------------------
set {
	reference rhf
	basis 6-31G*
}

set_num_threads( 4 )
memory 2 gb

molecule MOL {
0 1

O	 -2.821601	 1.309235	 -0.001213
C	 -2.668563	 0.129746	 -0.000350
C	 -3.801572	 -0.864014	 -0.000442
O	 -1.481751	 -0.454642	 0.000584
H	 -4.417280	 -0.689587	 -0.874708
H	 -3.443784	 -1.883046	 -0.000565
H	 -4.417179	 -0.689832	 0.873954
C	 -0.334255	 0.388708	 0.000906
C	 0.891947	 -0.504646	 0.000751
H	 -0.365390	 1.025305	 -0.873475
H	 -0.365484	 1.024911	 0.875569
C	 2.182911	 0.289352	 -0.207693
H	 0.783053	 -1.250256	 -0.781967
H	 0.934206	 -1.043138	 0.943461
C	 3.431833	 -0.594110	 -0.211669
H	 2.127056	 0.834126	 -1.148537
H	 2.278411	 1.040373	 0.574566
C	 4.721101	 0.198826	 -0.421207
H	 3.338228	 -1.344960	 -0.993038
H	 3.490463	 -1.137500	 0.728735
H	 4.706869	 0.727056	 -1.370304
H	 5.588111	 -0.454264	 -0.419359
H	 4.860425	 0.935820	 0.364565

	symmetry c1
}
set optking {
	frozen_dihedral = ("
		13 9 8 10
	")
}

ee = optimize('scf')
oeprop('DIPOLE', 'QUADRUPOLE', 'MULLIKEN_CHARGES')
f=open( 'psi4out.xyz', 'w' )
f.write( "23  " )
f.write( str(ee) + "\n" )
f.write( MOL.save_string_xyz() )
f.close()
--------------------------------------------------------------------------

    Molecular point group: c1
  Charge       = 0
  Multiplicity = 1
  Basis Set: 6-31G*
  Basis Set:
  @DF-RHF Final Energy:  -422.97923577484664
    Total Energy =                       -422.9792357748473250
    Molecular point group: c1
  Basis Set: 6-31G*
  Basis Set:
  Basis Set: 6-31G*
  Basis Set:
  @DF-RHF Final Energy:  -422.97925170444245
    Total Energy =                       -422.9792517044419355
  Basis Set: 6-31G*
  Basis Set:
  Basis Set: 6-31G*
  Basis Set:
  @DF-RHF Final Energy:  -422.97927728142673
    Total Energy =                       -422.9792772814265618
  Basis Set: 6-31G*
  Basis Set:
  Basis Set: 6-31G*
  Basis Set:
  @DF-RHF Final Energy:  -422.97925162295053
    Total Energy =                       -422.9792516229509829
  Basis Set: 6-31G*
  Basis Set:
  Basis Set: 6-31G*
  Basis Set:
  @DF-RHF Final Energy:  -422.97928219029399
    Total Energy =                       -422.9792821902944979
  Basis Set: 6-31G*
  Basis Set:
  Charge       = 0
  Multiplicity = 1
  Basis Set: 6-31G*
  Basis Set:

    Orbital Energies (a.u.)
    -----------------------

    Doubly Occupied:

       1A    -20.603352     2A    -20.540745     3A    -11.374282
       4A    -11.281405     5A    -11.232514     6A    -11.224400
       7A    -11.223808     8A    -11.221704     9A    -11.212980
      10A     -1.468278    11A     -1.361039    12A     -1.094183
      13A     -1.042297    14A     -1.003524    15A     -0.931001
      16A     -0.841776    17A     -0.802869    18A     -0.774988
      19A     -0.691709    20A     -0.685163    21A     -0.668217
      22A     -0.646624    23A     -0.605916    24A     -0.588487
      25A     -0.582326    26A     -0.566657    27A     -0.558806
      28A     -0.537515    29A     -0.523253    30A     -0.505141
      31A     -0.490758    32A     -0.478107    33A     -0.471006
      34A     -0.465702    35A     -0.450992    36A     -0.435543

  @DF-RHF Final Energy:  -422.97928208323117

   => Energetics <=

    Nuclear Repulsion Energy =            449.6028047594148802
    One-Electron Energy =               -1466.7900448421928559
    Two-Electron Energy =                 594.2079579995465792
    DFT Exchange-Correlation Energy =       0.0000000000000000
    Empirical Dispersion Energy =           0.0000000000000000
    PCM Polarization Energy =               0.0000000000000000
    EFP Energy =                            0.0000000000000000
    Total Energy =                       -422.9792820832313964
    Molecular point group: c1
  Basis Set: 6-31G*
  Basis Set:

  -Total Gradient:
     Atom            X                  Y                   Z
    ------   -----------------  -----------------  -----------------
       1        0.000001755944     0.000007845757    -0.000043942312
       2        0.000020020691    -0.000022290463     0.000152370838
       3       -0.000008496824     0.000001078709    -0.000058604647
       4        0.000000448578     0.000013321498    -0.000037679082
       5       -0.000011186331    -0.000009119327    -0.000000786689
       6       -0.000000858824    -0.000000567001    -0.000002662304
       7        0.000010577945     0.000008693451    -0.000000773361
       8       -0.001230318006    -0.001736670068    -0.000902709148
       9        0.001122187982     0.001611747516    -0.001079434633
      10        0.000881382488     0.001179290323     0.000874213830
      11       -0.000029212064    -0.000002113529     0.000044513003
      12       -0.000016690410    -0.000005616881    -0.000039001188
      13       -0.000745154660    -0.001055751620     0.001063019400
      14        0.000003296116     0.000016908458     0.000012703066
      15        0.000001582848     0.000003333219     0.000034960835
      16        0.000024028940     0.000017029456    -0.000005048075
      17       -0.000027628526    -0.000027668770     0.000001260982
      18        0.000001229851    -0.000006373634    -0.000032620885
      19       -0.000001712347     0.000001812129     0.000014667315
      20        0.000004269874     0.000006291520     0.000011381845
      21        0.000000443504     0.000011963553     0.000001740545
      22        0.000001392110    -0.000000814605    -0.000012104824
      23       -0.000001358873    -0.000012329694     0.000004535490

  **** Optimization is complete! (in 6 steps) ****
    Final optimized geometry and variables:
    Molecular point group: c1

    Geometry (in Angstrom), charge = 0, multiplicity = 1:

    O           -2.816674191080     1.315714160974     0.123003454963
    C           -2.665887348883     0.136114450084     0.106380938350
    C           -3.800483519621    -0.855774269611     0.114573386744
    O           -1.480260666355    -0.450318959424     0.077331648812
    H           -4.432259444243    -0.668904149824    -0.745533307459
    H           -3.444632923949    -1.875287161938     0.094393572273
    H           -4.399134006303    -0.692098630478     1.002662273844
    C           -0.332067534085     0.390231835750     0.066918817553
    C            0.895646616950    -0.501941073588     0.054762982710
    H           -0.367268898115     1.036310536818    -0.800632230389
    H           -0.352590652599     1.024459570555     0.943506766777
    C            2.188179935533     0.293724273494    -0.131472065893
    H            0.785146903744    -1.239387523358    -0.735293696041
    H            0.933435435031    -1.057949094344     0.987974494634
    C            3.439051280447    -0.586540577636    -0.107118796337
    H            2.148655365799     0.834209855561    -1.075430828274
    H            2.266836836972     1.048496920605     0.649271397588
    C            4.729491152430     0.207549446640    -0.304825221725
    H            3.359051180894    -1.345300605156    -0.882346174543
    H            3.484493385098    -1.120425218549     0.839413695358
    H            4.728114347153     0.727297646023    -1.258694193899
    H            5.597805108060    -0.443472862910    -0.284405706277
    H            4.855633340613     0.951827670234     0.476303030050

  Mulliken Charges: (a.u.)
   Center  Symbol    Alpha    Beta     Spin     Total
       1     O     4.28374  4.28374  0.00000 -0.56748
       2     C     2.61528  2.61528  0.00000  0.76944
       3     C     3.28776  3.28776  0.00000 -0.57552
       4     O     4.31239  4.31239  0.00000 -0.62478
       5     H     0.39745  0.39745  0.00000  0.20511
       6     H     0.39984  0.39984  0.00000  0.20032
       7     H     0.39747  0.39747  0.00000  0.20506
       8     C     2.99595  2.99595  0.00000  0.00811
       9     C     3.16520  3.16520  0.00000 -0.33040
      10     H     0.41103  0.41103  0.00000  0.17794
      11     H     0.41046  0.41046  0.00000  0.17908
      12     C     3.15988  3.15988  0.00000 -0.31975
      13     H     0.41328  0.41328  0.00000  0.17345
      14     H     0.41516  0.41516  0.00000  0.16968
      15     C     3.15152  3.15152  0.00000 -0.30305
      16     H     0.42048  0.42048  0.00000  0.15905
      17     H     0.42089  0.42089  0.00000  0.15821
      18     C     3.23989  3.23989  0.00000 -0.47977
      19     H     0.42132  0.42132  0.00000  0.15737
      20     H     0.42138  0.42138  0.00000  0.15725
      21     H     0.42083  0.42083  0.00000  0.15834
      22     H     0.41799  0.41799  0.00000  0.16403
      23     H     0.42083  0.42083  0.00000  0.15833

   Total alpha = 36.00000, Total beta = 36.00000, Total charge =  0.00000
