  ==> Input File <==

--------------------------------------------------------------------------
set {
	reference rhf
	basis 6-31G*
}

set_num_threads( 4 )
memory 2 gb

molecule MOL {
0 1

H	 1.991343	 -3.740302	 -0.510494
C	 2.209139	 -2.711250	 -0.243346
C	 0.954210	 -1.843513	 -0.327886
H	 2.618950	 -2.711735	 0.762776
H	 2.983922	 -2.352929	 -0.915331
C	 1.217350	 -0.386724	 0.039429
H	 0.184350	 -2.232582	 0.331152
H	 0.550799	 -1.891564	 -1.338006
N	 0.000003	 0.397874	 -0.023260
H	 1.595469	 -0.336314	 1.056999
H	 2.006564	 0.016436	 -0.603985
C	 -1.217365	 -0.386708	 0.039277
H	 -0.000031	 1.072115	 0.718656
C	 -2.452633	 0.504241	 -0.042481
H	 -1.215291	 -1.074557	 -0.802042
H	 -1.269739	 -1.003477	 0.942735
C	 -3.758029	 -0.289423	 -0.010781
H	 -2.394220	 1.093569	 -0.952170
H	 -2.440793	 1.210787	 0.785871
H	 -3.816659	 -0.981993	 -0.845726
H	 -4.617837	 0.370165	 -0.069296
H	 -3.847478	 -0.867502	 0.904682

	symmetry c1
}
set optking {
	frozen_dihedral = ("
		10 6 9 12
	")
}

ee = optimize('scf')
oeprop('DIPOLE', 'QUADRUPOLE', 'MULLIKEN_CHARGES')
f=open( 'psi4out.xyz', 'w' )
f.write( "22  " )
f.write( str(ee) + "\n" )
f.write( MOL.save_string_xyz() )
f.close()
--------------------------------------------------------------------------

    Molecular point group: c1
  Charge       = 0
  Multiplicity = 1
  Basis Set: 6-31G*
  Basis Set:
  @DF-RHF Final Energy:  -290.36486727656478
    Total Energy =                       -290.3648672765648939
    Molecular point group: c1
  Basis Set: 6-31G*
  Basis Set:
  Basis Set: 6-31G*
  Basis Set:
  @DF-RHF Final Energy:  -290.36469969382631
    Total Energy =                       -290.3646996938264806
  Basis Set: 6-31G*
  Basis Set:
  Basis Set: 6-31G*
  Basis Set:
  @DF-RHF Final Energy:  -290.37219950025559
    Total Energy =                       -290.3721995002554763
  Basis Set: 6-31G*
  Basis Set:
  Basis Set: 6-31G*
  Basis Set:
  @DF-RHF Final Energy:  -290.37352304444255
    Total Energy =                       -290.3735230444425497
  Basis Set: 6-31G*
  Basis Set:
  @DF-RHF Final Energy:  -290.37372751304304
    Total Energy =                       -290.3737275130430930
  Basis Set: 6-31G*
  Basis Set:
  @DF-RHF Final Energy:  -290.37378571123071
    Total Energy =                       -290.3737857112303118
  Basis Set: 6-31G*
  Basis Set:
  Basis Set: 6-31G*
  Basis Set:
  @DF-RHF Final Energy:  -290.37379096869438
    Total Energy =                       -290.3737909686942089
  Basis Set: 6-31G*
  Basis Set:
  Basis Set: 6-31G*
  Basis Set:
  @DF-RHF Final Energy:  -290.37380235712993
    Total Energy =                       -290.3738023571299323
  Basis Set: 6-31G*
  Basis Set:
  Charge       = 0
  Multiplicity = 1
  Basis Set: 6-31G*
  Basis Set:

    Orbital Energies (a.u.)
    -----------------------

    Doubly Occupied:

       1A    -15.528212     2A    -11.238642     3A    -11.236870
       4A    -11.216477     5A    -11.212443     6A    -11.211036
       7A    -11.208922     8A     -1.196777     9A     -1.057378
      10A     -1.027875    11A     -0.929442    12A     -0.875365
      13A     -0.814121    14A     -0.778847    15A     -0.663270
      16A     -0.631567    17A     -0.619682    18A     -0.613162
      19A     -0.568546    20A     -0.557231    21A     -0.545587
      22A     -0.530126    23A     -0.504092    24A     -0.486488
      25A     -0.478804    26A     -0.473064    27A     -0.463921
      28A     -0.461883    29A     -0.344273

  @DF-RHF Final Energy:  -290.37380244477993

   => Energetics <=

    Nuclear Repulsion Energy =            318.0472869840756402
    One-Electron Energy =               -1021.8939699592217494
    Two-Electron Energy =                 413.4728805303661829
    DFT Exchange-Correlation Energy =       0.0000000000000000
    Empirical Dispersion Energy =           0.0000000000000000
    PCM Polarization Energy =               0.0000000000000000
    EFP Energy =                            0.0000000000000000
    Total Energy =                       -290.3738024447799262
    Molecular point group: c1
  Basis Set: 6-31G*
  Basis Set:

  -Total Gradient:
     Atom            X                  Y                   Z
    ------   -----------------  -----------------  -----------------
       1       -0.000004088045     0.000002178532     0.000001526139
       2        0.000003143552     0.000004598698     0.000011317335
       3       -0.000004360155     0.000006150063    -0.000015950804
       4        0.000004907650    -0.000000236185     0.000000659466
       5       -0.000001106844    -0.000000943869    -0.000001676534
       6       -0.003608145201    -0.005916656956    -0.000293836822
       7        0.000003376160     0.000004222525     0.000000929641
       8       -0.000006183407     0.000003552259    -0.000003606198
       9        0.000756031368     0.001970933296     0.006215250111
      10        0.002842624734     0.004455011189    -0.001489988930
      11        0.000000923851    -0.000009016487    -0.000000398478
      12        0.000008719812    -0.000518557387    -0.004402544384
      13        0.000001755086    -0.000004806000    -0.000007632264
      14       -0.000003127678     0.000001316413    -0.000007412459
      15        0.000003281880     0.000003903413    -0.000001595236
      16        0.000004302065    -0.000006589060     0.000000773252
      17        0.000001171455     0.000000424609    -0.000007072473
      18       -0.000006630633     0.000009523833    -0.000000387683
      19        0.000002503293    -0.000005076740     0.000001074584
      20       -0.000000153550    -0.000002025338     0.000001365419
      21        0.000000774795    -0.000000460071    -0.000002142371
      22        0.000000279812     0.000002553265     0.000001348687

  **** Optimization is complete! (in 9 steps) ****
    Final optimized geometry and variables:
    Molecular point group: c1

    Geometry (in Angstrom), charge = 0, multiplicity = 1:

    H            2.824707306854    -2.988381013194    -0.534094891690
    C            2.894088592363    -1.950930538531    -0.223342235480
    C            1.523834650694    -1.274140691561    -0.265966392543
    H            3.310948549519    -1.933900659926     0.779656812891
    H            3.599283584963    -1.454479779523    -0.883443195109
    C            1.609418729802     0.187641286714     0.164313121933
    H            0.836487188435    -1.819298155226     0.373544201090
    H            1.126670624108    -1.329301029109    -1.275498416838
    N            0.366383079600     0.948583242497     0.073101038310
    H            2.038108544528     0.250048835296     1.167008315079
    H            2.336982932905     0.677991131147    -0.479611847372
    C           -0.909065509986     0.265898396648     0.154066956650
    H            0.390334803211     1.715392451809     0.713080394877
    C           -2.050682610024     1.268174515215     0.007093432576
    H           -0.973909465277    -0.455147848161    -0.652008049530
    H           -1.044862410599    -0.293557716020     1.085839569827
    C           -3.427502449395     0.606814289507     0.049369894822
    H           -1.920579955052     1.804777102386    -0.927576928646
    H           -1.983607580168     2.009086610089     0.802252552425
    H           -3.540363854155    -0.116865935678    -0.753002517393
    H           -4.217779362802     1.342897299738    -0.058007596141
    H           -3.587705745960     0.085771713130     0.989087954354

  Mulliken Charges: (a.u.)
   Center  Symbol    Alpha    Beta     Spin     Total
       1     H     0.41748  0.41748  0.00000  0.16503
       2     C     3.24225  3.24225  0.00000 -0.48450
       3     C     3.16774  3.16774  0.00000 -0.33548
       4     H     0.42106  0.42106  0.00000  0.15788
       5     H     0.41974  0.41974  0.00000  0.16052
       6     C     3.03462  3.03462  0.00000 -0.06924
       7     H     0.41869  0.41869  0.00000  0.16262
       8     H     0.41613  0.41613  0.00000  0.16774
       9     N     3.87203  3.87203  0.00000 -0.74406
      10     H     0.43427  0.43427  0.00000  0.13145
      11     H     0.42188  0.42188  0.00000  0.15624
      12     C     3.04396  3.04396  0.00000 -0.08793
      13     H     0.33212  0.33212  0.00000  0.33576
      14     C     3.15589  3.15589  0.00000 -0.31178
      15     H     0.41993  0.41993  0.00000  0.16013
      16     H     0.43772  0.43772  0.00000  0.12457
      17     C     3.24304  3.24304  0.00000 -0.48609
      18     H     0.41337  0.41337  0.00000  0.17326
      19     H     0.42735  0.42735  0.00000  0.14530
      20     H     0.42099  0.42099  0.00000  0.15802
      21     H     0.41796  0.41796  0.00000  0.16408
      22     H     0.42177  0.42177  0.00000  0.15646

   Total alpha = 29.00000, Total beta = 29.00000, Total charge =  0.00000
