                              Psi4 1.0.54 Driver

  ==> Input File <==

--------------------------------------------------------------------------
set {
	reference rhf
	basis cc-pvtz
}

set_num_threads( 4 )
memory 2 gb

molecule MOL {
0 1

H	 3.868618	 0.284987	 0.272774
N	 3.091268	 -0.241216	 -0.065538
C	 1.860978	 0.530248	 0.016256
H	 3.030905	 -1.068259	 0.490973
C	 0.644130	 -0.381765	 -0.031064
H	 1.835721	 1.204666	 -0.833114
H	 1.808789	 1.151975	 0.911067
C	 -0.678115	 0.376691	 0.025731
H	 0.693998	 -0.977147	 -0.936845
H	 0.693309	 -1.082142	 0.800523
C	 -1.900706	 -0.535531	 -0.022488
H	 -0.725296	 1.079516	 -0.802982
H	 -0.715474	 0.974884	 0.933278
C	 -3.220513	 0.226854	 0.028039
H	 -1.865036	 -1.134397	 -0.928236
H	 -1.857948	 -1.236381	 0.806820
H	 -3.309098	 0.911849	 -0.808725
H	 -4.066838	 -0.449485	 -0.008086
H	 -3.301685	 0.809374	 0.939860

	symmetry c1
}
set optking {
	frozen_dihedral = ("
		1 2 3 6
	")
}

ee,wfn = optimize('scf', return_wfn=True)
oeprop( wfn, 'DIPOLE', 'QUADRUPOLE', 'MULLIKEN_CHARGES')
f=open( 'psi4out.xyz', 'w' )
f.write( "19  " )
f.write( str(ee) + "\n" )
f.write( MOL.save_string_xyz() )
f.close()
--------------------------------------------------------------------------

    Molecular point group: c1
  Charge       = 0
  Multiplicity = 1
  Basis Set: CC-PVTZ
  Basis Set:
  @DF-RHF Final Energy:  -251.44696802226852
    Total Energy =                       -251.4469680222687202
    Molecular point group: c1
  Basis Set: CC-PVTZ
  Basis Set:
  Basis Set: CC-PVTZ
  Basis Set:
  @DF-RHF Final Energy:  -251.44707617974882
    Total Energy =                       -251.4470761797487057
  Basis Set: CC-PVTZ
  Basis Set:
  Basis Set: CC-PVTZ
  Basis Set:
  @DF-RHF Final Energy:  -251.44709537296555
    Total Energy =                       -251.4470953729657481
  Basis Set: CC-PVTZ
  Basis Set:
  Charge       = 0
  Multiplicity = 1
  Basis Set: CC-PVTZ
  Basis Set:

    Orbital Energies (a.u.)
    -----------------------

    Doubly Occupied:

       1A    -15.526232     2A    -11.237645     3A    -11.213140
       4A    -11.212048     5A    -11.210862     6A    -11.206328
       7A     -1.178223     8A     -1.075641     9A     -1.000624
      10A     -0.901569    11A     -0.815234    12A     -0.791802
      13A     -0.657879    14A     -0.649205    15A     -0.616952
      16A     -0.594208    17A     -0.564996    18A     -0.544937
      19A     -0.537917    20A     -0.496440    21A     -0.485088
      22A     -0.466646    23A     -0.463314    24A     -0.449648
      25A     -0.385496

  @DF-RHF Final Energy:  -251.44709619644590

   => Energetics <=

    Nuclear Repulsion Energy =            246.2050989009582054
    One-Electron Energy =                -826.7402389701412631
    Two-Electron Energy =                 329.0880438727371029
    DFT Exchange-Correlation Energy =       0.0000000000000000
    Empirical Dispersion Energy =           0.0000000000000000
    PCM Polarization Energy =               0.0000000000000000
    EFP Energy =                            0.0000000000000000
    Total Energy =                       -251.4470961964459548
    Molecular point group: c1
  Basis Set: CC-PVTZ
  Basis Set:

  -Total Gradient:
     Atom            X                  Y                   Z
    ------   -----------------  -----------------  -----------------
       1       -0.000408527176    -0.001116237332     0.002519236561
       2        0.000176167412     0.001043827209    -0.003500898538
       3        0.001431408497     0.001816407069     0.002409910533
       4       -0.000010183365     0.000011761110    -0.000004282857
       5        0.000009794424     0.000012729594     0.000003438293
       6       -0.001160125729    -0.001754512981    -0.001380495779
       7       -0.000015179197    -0.000013420298    -0.000056150058
       8       -0.000004812237    -0.000001755624     0.000032774284
       9       -0.000002968672     0.000002556530     0.000020049320
      10       -0.000004794245     0.000004535891    -0.000011600615
      11       -0.000005960662     0.000009839935    -0.000040698735
      12       -0.000007005526    -0.000023145976     0.000021559718
      13       -0.000001803838    -0.000004503440    -0.000013855163
      14       -0.000011694710    -0.000005543953     0.000007140546
      15       -0.000002790839     0.000000313444     0.000014486697
      16        0.000002503053     0.000027215563    -0.000017100695
      17        0.000001269396    -0.000018677221     0.000015346943
      18        0.000011454807     0.000019249362     0.000004384457
      19        0.000003248602    -0.000010638884    -0.000023244913

  **** Optimization is complete! (in 4 steps) ****
    Final optimized geometry and variables:
    Molecular point group: c1

    Geometry (in Angstrom), charge = 0, multiplicity = 1:

    H            3.870032970033     0.342341311338     0.296854462412
    N            3.097420889442    -0.183437350502    -0.054105800753
    C            1.853421344527     0.563662312330     0.078372038786
    H            3.058663651333    -1.017423985353     0.494986138332
    C            0.652594344572    -0.366871472929    -0.017232421285
    H            1.798019867323     1.276503256779    -0.737789733130
    H            1.795838168935     1.127870890725     1.008456779682
    C           -0.683100519001     0.368366084559     0.026704740398
    H            0.729530989455    -0.937544592274    -0.937743993243
    H            0.693405761467    -1.086717707302     0.798168058169
    C           -1.888616495082    -0.562935067778    -0.065438045443
    H           -0.724587705431     1.086695778387    -0.788395190669
    H           -0.748655871959     0.946714920372     0.945338945106
    C           -3.221669656775     0.176592178817    -0.026346091887
    H           -1.824606647616    -1.141907272325    -0.982483384368
    H           -1.850997127451    -1.280012565264     0.750083073498
    H           -3.305144349902     0.876474120607    -0.851126902407
    H           -4.055592103302    -0.512689994851    -0.092584234402
    H           -3.330395269688     0.739330558356     0.894911206976

  Mulliken Charges: (a.u.)
   Center  Symbol    Alpha    Beta     Spin     Total
       1     H     0.43231  0.43231  0.00000  0.13539
       2     N     3.68638  3.68638  0.00000 -0.37275
       3     C     3.02088  3.02088  0.00000 -0.04175
       4     H     0.43256  0.43256  0.00000  0.13488
       5     C     3.08632  3.08632  0.00000 -0.17263
       6     H     0.45968  0.45968  0.00000  0.08063
       7     H     0.46865  0.46865  0.00000  0.06269
       8     C     3.09271  3.09271  0.00000 -0.18541
       9     H     0.44840  0.44840  0.00000  0.10320
      10     H     0.46099  0.46099  0.00000  0.07802
      11     C     3.08325  3.08325  0.00000 -0.16650
      12     H     0.45390  0.45390  0.00000  0.09219
      13     H     0.45618  0.45618  0.00000  0.08763
      14     C     3.15005  3.15005  0.00000 -0.30009
      15     H     0.45380  0.45380  0.00000  0.09240
      16     H     0.45502  0.45502  0.00000  0.08996
      17     H     0.45496  0.45496  0.00000  0.09009
      18     H     0.44845  0.44845  0.00000  0.10310
      19     H     0.45551  0.45551  0.00000  0.08897

   Total alpha = 25.00000, Total beta = 25.00000, Total charge = -0.00000

*** Psi4 exiting successfully. Buy a developer a beer!
