  ==> Input File <==

--------------------------------------------------------------------------
set {
	reference rhf
	basis cc-pvtz
}

set_num_threads( 4 )
memory 2 gb

molecule MOL {
0 1

O	 -0.694481	 1.313155	 -0.204815
C	 -0.862519	 0.151932	 -0.046791
C	 -2.171428	 -0.477048	 0.339095
O	 0.085519	 -0.757083	 -0.192238
H	 -2.467997	 -1.191667	 -0.417688
H	 -2.923379	 0.287970	 0.444097
H	 -2.053854	 -1.015120	 1.270901
C	 1.014049	 -0.953617	 0.867803
C	 0.479644	 -1.914597	 1.909354
H	 1.258142	 0.000579	 1.307967
H	 1.894438	 -1.355719	 0.389285
H	 1.238022	 -2.090985	 2.663808
H	 -0.396255	 -1.508628	 2.396563
H	 0.221980	 -2.864641	 1.457003

	symmetry c1
}
set optking {
	frozen_dihedral = ("
		8 4 2 1
	")
}

ee = optimize('scf')
oeprop('DIPOLE', 'QUADRUPOLE', 'MULLIKEN_CHARGES')
f=open( 'psi4out.xyz', 'w' )
f.write( "14  " )
f.write( str(ee) + "\n" )
f.write( MOL.save_string_xyz() )
f.close()
--------------------------------------------------------------------------

    Molecular point group: c1
  Charge       = 0
  Multiplicity = 1
  Basis Set: CC-PVTZ
  Basis Set:
  @DF-RHF Final Energy:  -305.96894362121441
    Total Energy =                       -305.9689436212142937
    Molecular point group: c1
  Basis Set: CC-PVTZ
  Basis Set:
  Basis Set: CC-PVTZ
  Basis Set:
  @DF-RHF Final Energy:  -305.97102362854673
    Total Energy =                       -305.9710236285465044
  Basis Set: CC-PVTZ
  Basis Set:
  Basis Set: CC-PVTZ
  Basis Set:
  @DF-RHF Final Energy:  -305.97178565981437
    Total Energy =                       -305.9717856598142589
  Basis Set: CC-PVTZ
  Basis Set:
  Basis Set: CC-PVTZ
  Basis Set:
  @DF-RHF Final Energy:  -305.97186744314070
    Total Energy =                       -305.9718674431407521
  Basis Set: CC-PVTZ
  Basis Set:
  Basis Set: CC-PVTZ
  Basis Set:
  @DF-RHF Final Energy:  -305.97188063345516
    Total Energy =                       -305.9718806334554984
  Basis Set: CC-PVTZ
  Basis Set:
  Basis Set: CC-PVTZ
  Basis Set:
  @DF-RHF Final Energy:  -305.97188488377913
    Total Energy =                       -305.9718848837792393
  Basis Set: CC-PVTZ
  Basis Set:
  Basis Set: CC-PVTZ
  Basis Set:
  @DF-RHF Final Energy:  -305.97188647779092
    Total Energy =                       -305.9718864777909175
  Basis Set: CC-PVTZ
  Basis Set:
  Charge       = 0
  Multiplicity = 1
  Basis Set: CC-PVTZ
  Basis Set:

    Orbital Energies (a.u.)
    -----------------------

    Doubly Occupied:

       1A    -20.576033     2A    -20.543664     3A    -11.369697
       4A    -11.292762     5A    -11.234354     6A    -11.228849
       7A     -1.460132     8A     -1.367563     9A     -1.049499
      10A     -1.011824    11A     -0.887199    12A     -0.765262
      13A     -0.697879    14A     -0.682964    15A     -0.669459
      16A     -0.616848    17A     -0.594278    18A     -0.575160
      19A     -0.562025    20A     -0.553191    21A     -0.510748
      22A     -0.492700    23A     -0.453941    24A     -0.441265

  @DF-RHF Final Energy:  -305.97188653978606

   => Energetics <=

    Nuclear Repulsion Energy =            248.4698210424611204
    One-Electron Energy =                -909.6088252819256468
    Two-Electron Energy =                 355.1671176996784425
    DFT Exchange-Correlation Energy =       0.0000000000000000
    Empirical Dispersion Energy =           0.0000000000000000
    PCM Polarization Energy =               0.0000000000000000
    EFP Energy =                            0.0000000000000000
    Total Energy =                       -305.9718865397860554
    Molecular point group: c1
  Basis Set: CC-PVTZ
  Basis Set:

  -Total Gradient:
     Atom            X                  Y                   Z
    ------   -----------------  -----------------  -----------------
       1       -0.001935933651    -0.000284541877    -0.007742912225
       2        0.000818181175    -0.002056223979     0.012413468307
       3        0.000030325390    -0.000037622264     0.000010381614
       4        0.004830727343     0.007325184036    -0.007015601991
       5        0.000005932753    -0.000020923394     0.000006303358
       6        0.000009847434     0.000003014725     0.000014101234
       7       -0.000005896372     0.000014435996     0.000016942401
       8       -0.003809914384    -0.004973068451     0.002239915905
       9        0.000056634937     0.000020106371     0.000048046731
      10       -0.000031939549    -0.000002228603    -0.000009202619
      11        0.000034033505     0.000000725954     0.000015636961
      12       -0.000003355435     0.000000896818     0.000001100084
      13       -0.000006745605    -0.000000237291     0.000013715451
      14        0.000008102461     0.000010481960    -0.000011895211

  **** Optimization is complete! (in 8 steps) ****
    Final optimized geometry and variables:
    Molecular point group: c1

    Geometry (in Angstrom), charge = 0, multiplicity = 1:

    O           -0.365959181206     1.752383625309    -0.519168699577
    C           -0.534003218367     0.590166636420    -0.436938871836
    C           -1.876752198764    -0.053103765433    -0.229572092317
    O            0.459221075847    -0.289445320818    -0.670358452968
    H           -2.108101549157    -0.654581628670    -1.100168656034
    H           -2.631537546691     0.704447754583    -0.092510030332
    H           -1.853170918017    -0.717099638081     0.623806049579
    C            1.416177532095    -0.541593874153     0.346466583430
    C            0.892160103316    -1.422167835814     1.464096970038
    H            1.778421720429     0.403318542530     0.732848531193
    H            2.235037070520    -1.029193096423    -0.159732899908
    H            1.706594641743    -1.664513876408     2.137124020035
    H            0.124044518741    -0.926523042718     2.045421865347
    H            0.488049097106    -2.346288876298     1.069832063479

  Mulliken Charges: (a.u.)
   Center  Symbol    Alpha    Beta     Spin     Total
       1     O     4.17200  4.17200  0.00000 -0.34400
       2     C     2.80376  2.80376  0.00000  0.39248
       3     C     3.14040  3.14040  0.00000 -0.28080
       4     O     4.17523  4.17523  0.00000 -0.35045
       5     H     0.44306  0.44306  0.00000  0.11389
       6     H     0.43654  0.43654  0.00000  0.12691
       7     H     0.45012  0.45012  0.00000  0.09977
       8     C     2.98165  2.98165  0.00000  0.03669
       9     C     3.15579  3.15579  0.00000 -0.31159
      10     H     0.45231  0.45231  0.00000  0.09539
      11     H     0.44577  0.44577  0.00000  0.10846
      12     H     0.44315  0.44315  0.00000  0.11369
      13     H     0.45348  0.45348  0.00000  0.09304
      14     H     0.44674  0.44674  0.00000  0.10651

   Total alpha = 24.00000, Total beta = 24.00000, Total charge = -0.00000
