  ==> Input File <==

--------------------------------------------------------------------------
set {
	reference rhf
	basis cc-pvtz
}

set_num_threads( 4 )
memory 2 gb

molecule MOL {
0 1

H	 -2.767395	 2.160082	 1.122264
C	 -2.144672	 1.645867	 1.850744
O	 -0.840840	 1.504288	 1.395200
H	 -2.116154	 2.231018	 2.758308
H	 -2.598428	 0.681262	 2.071034
C	 -0.718530	 0.758693	 0.228682
C	 0.718529	 0.758687	 -0.228709
H	 -1.033193	 -0.270065	 0.403656
H	 -1.344591	 1.171461	 -0.559418
O	 1.401606	 -0.295166	 0.366636
H	 0.748705	 0.673477	 -1.312803
H	 1.176496	 1.708671	 0.046552
C	 2.714315	 -0.441627	 -0.061017
H	 2.765292	 -0.641548	 -1.128869
H	 3.305661	 0.447341	 0.150952
H	 3.143725	 -1.278506	 0.470147

	symmetry c1
}
set optking {
	frozen_dihedral = ("
		3 6 7 11
	")
}

ee = optimize('scf')
oeprop('DIPOLE', 'QUADRUPOLE', 'MULLIKEN_CHARGES')
f=open( 'psi4out.xyz', 'w' )
f.write( "16  " )
f.write( str(ee) + "\n" )
f.write( MOL.save_string_xyz() )
f.close()
--------------------------------------------------------------------------

    Molecular point group: c1
  Charge       = 0
  Multiplicity = 1
  Basis Set: CC-PVTZ
  Basis Set:
  @DF-RHF Final Energy:  -307.09636914273727
    Total Energy =                       -307.0963691427373874
    Molecular point group: c1
  Basis Set: CC-PVTZ
  Basis Set:
  Basis Set: CC-PVTZ
  Basis Set:
  @DF-RHF Final Energy:  -307.09686815133676
    Total Energy =                       -307.0968681513368210
  Basis Set: CC-PVTZ
  Basis Set:
  Basis Set: CC-PVTZ
  Basis Set:
  @DF-RHF Final Energy:  -307.09692120660526
    Total Energy =                       -307.0969212066052023
  Basis Set: CC-PVTZ
  Basis Set:
  Charge       = 0
  Multiplicity = 1
  Basis Set: CC-PVTZ
  Basis Set:

    Orbital Energies (a.u.)
    -----------------------

    Doubly Occupied:

       1A    -20.549319     2A    -20.548852     3A    -11.267138
       4A    -11.266436     5A    -11.262269     6A    -11.262094
       7A     -1.391303     8A     -1.376083     9A     -1.031164
      10A     -0.938433    11A     -0.890258    12A     -0.827322
      13A     -0.684757    14A     -0.684046    15A     -0.659310
      16A     -0.637187    17A     -0.635431    18A     -0.599676
      19A     -0.543094    20A     -0.541728    21A     -0.509992
      22A     -0.481335    23A     -0.465400    24A     -0.425082
      25A     -0.413058

  @DF-RHF Final Energy:  -307.09692467933439

   => Energetics <=

    Nuclear Repulsion Energy =            257.7639289399832023
    One-Electron Energy =                -929.9401685983474408
    Two-Electron Energy =                 365.0793149790300163
    DFT Exchange-Correlation Energy =       0.0000000000000000
    Empirical Dispersion Energy =           0.0000000000000000
    PCM Polarization Energy =               0.0000000000000000
    EFP Energy =                            0.0000000000000000
    Total Energy =                       -307.0969246793342222
    Molecular point group: c1
  Basis Set: CC-PVTZ
  Basis Set:

  -Total Gradient:
     Atom            X                  Y                   Z
    ------   -----------------  -----------------  -----------------
       1       -0.000012501691    -0.000012651951     0.000001161847
       2        0.000005334622     0.000076510188     0.000055752843
       3       -0.000363956625     0.001914648792    -0.001446894143
       4       -0.000044701153    -0.000006859279     0.000025873623
       5        0.000006394366     0.000001544313    -0.000003795407
       6        0.000524232767    -0.001827626405     0.001762050026
       7       -0.000282995339    -0.003379132929    -0.000129357319
       8        0.000002373317     0.000055300912     0.000065935052
       9       -0.000020464509    -0.000020596900    -0.000069669093
      10        0.000013663575     0.000088296589    -0.000013991560
      11        0.000082830348     0.003223319795    -0.000299751791
      12        0.000028948033    -0.000053723954     0.000028021174
      13       -0.000014333795    -0.000069040505     0.000028003707
      14        0.000007841624     0.000009315221     0.000002586708
      15        0.000007551185     0.000004343496    -0.000001591671
      16        0.000059783271    -0.000003647381    -0.000004333994

  **** Optimization is complete! (in 4 steps) ****
    Final optimized geometry and variables:
    Molecular point group: c1

    Geometry (in Angstrom), charge = 0, multiplicity = 1:

    H           -2.994003253979     1.388110939112     0.641294771791
    C           -2.262078557368     0.961151698205     1.324509125093
    O           -0.998635229829     0.910210204231     0.750513120456
    H           -2.201692911605     1.586668862874     2.203183063342
    H           -2.605124938642    -0.027250349877     1.621235147430
    C           -0.926536457895     0.145262467766    -0.410531684524
    C            0.508674391198     0.070536816513    -0.881905605314
    H           -1.298332098568    -0.861122260790    -0.237845098999
    H           -1.538736692344     0.601383064671    -1.187766423808
    O            1.154216836472    -0.998737629259    -0.270534728512
    H            0.536024564056    -0.028047069065    -1.966363454577
    H            1.000593741169     1.007856937830    -0.633066727636
    C            2.511392120508    -1.085140270654    -0.552184650886
    H            2.690898954127    -1.204786603995    -1.618953160286
    H            3.045615137844    -0.201505866115    -0.210897375245
    H            2.902442654462    -1.949487593780    -0.035531941991

  Mulliken Charges: (a.u.)
   Center  Symbol    Alpha    Beta     Spin     Total
       1     H     0.47352  0.47352  0.00000  0.05297
       2     C     3.03094  3.03094  0.00000 -0.06187
       3     O     4.17245  4.17245  0.00000 -0.34489
       4     H     0.44650  0.44650  0.00000  0.10700
       5     H     0.46985  0.46985  0.00000  0.06031
       6     C     2.96070  2.96070  0.00000  0.07860
       7     C     2.96001  2.96001  0.00000  0.07997
       8     H     0.46942  0.46942  0.00000  0.06116
       9     H     0.47671  0.47671  0.00000  0.04659
      10     O     4.17233  4.17233  0.00000 -0.34466
      11     H     0.47668  0.47668  0.00000  0.04664
      12     H     0.47026  0.47026  0.00000  0.05948
      13     C     3.03126  3.03126  0.00000 -0.06252
      14     H     0.47313  0.47313  0.00000  0.05373
      15     H     0.46980  0.46980  0.00000  0.06039
      16     H     0.44645  0.44645  0.00000  0.10710

   Total alpha = 25.00000, Total beta = 25.00000, Total charge = -0.00000
