  ==> Input File <==

--------------------------------------------------------------------------
set {
	reference rhf
	basis cc-pvtz
}

set_num_threads( 4 )
memory 2 gb

molecule MOL {
0 1

H	 -3.170372	 1.658656	 -0.143828
C	 -2.546491	 2.166277	 0.588276
O	 -1.199614	 2.062016	 0.267977
H	 -2.804123	 3.215296	 0.596793
H	 -2.757847	 1.746583	 1.570147
C	 -0.718530	 0.758693	 0.228682
C	 0.718529	 0.758687	 -0.228709
H	 -0.773791	 0.306060	 1.218652
H	 -1.310334	 0.150271	 -0.451775
O	 1.401606	 -0.295166	 0.366636
H	 0.748705	 0.673477	 -1.312803
H	 1.176496	 1.708671	 0.046552
C	 2.714315	 -0.441627	 -0.061017
H	 2.765292	 -0.641548	 -1.128869
H	 3.305661	 0.447341	 0.150952
H	 3.143725	 -1.278506	 0.470147

	symmetry c1
}
set optking {
	frozen_dihedral = ("
		3 6 7 11
	")
}

ee = optimize('scf')
oeprop('DIPOLE', 'QUADRUPOLE', 'MULLIKEN_CHARGES')
f=open( 'psi4out.xyz', 'w' )
f.write( "16  " )
f.write( str(ee) + "\n" )
f.write( MOL.save_string_xyz() )
f.close()
--------------------------------------------------------------------------

    Molecular point group: c1
  Charge       = 0
  Multiplicity = 1
  Basis Set: CC-PVTZ
  Basis Set:
  @DF-RHF Final Energy:  -307.09622575377557
    Total Energy =                       -307.0962257537753430
    Molecular point group: c1
  Basis Set: CC-PVTZ
  Basis Set:
  Basis Set: CC-PVTZ
  Basis Set:
  @DF-RHF Final Energy:  -307.09676362589312
    Total Energy =                       -307.0967636258928906
  Basis Set: CC-PVTZ
  Basis Set:
  Basis Set: CC-PVTZ
  Basis Set:
  @DF-RHF Final Energy:  -307.09681283712200
    Total Energy =                       -307.0968128371221155
  Basis Set: CC-PVTZ
  Basis Set:
  Charge       = 0
  Multiplicity = 1
  Basis Set: CC-PVTZ
  Basis Set:

    Orbital Energies (a.u.)
    -----------------------

    Doubly Occupied:

       1A    -20.552122     2A    -20.551610     3A    -11.266274
       4A    -11.265573     5A    -11.264251     6A    -11.264075
       7A     -1.391406     8A     -1.379974     9A     -1.030149
      10A     -0.941458    11A     -0.883849    12A     -0.832083
      13A     -0.692829    14A     -0.676567    15A     -0.660559
      16A     -0.648844    17A     -0.623757    18A     -0.600745
      19A     -0.570202    20A     -0.521792    21A     -0.508927
      22A     -0.484215    23A     -0.468022    24A     -0.421995
      25A     -0.418683

  @DF-RHF Final Energy:  -307.09681558500790

   => Energetics <=

    Nuclear Repulsion Energy =            255.0056607649914042
    One-Electron Energy =                -924.3650381567570093
    Two-Electron Energy =                 362.2625618067580149
    DFT Exchange-Correlation Energy =       0.0000000000000000
    Empirical Dispersion Energy =           0.0000000000000000
    PCM Polarization Energy =               0.0000000000000000
    EFP Energy =                            0.0000000000000000
    Total Energy =                       -307.0968155850076187
    Molecular point group: c1
  Basis Set: CC-PVTZ
  Basis Set:

  -Total Gradient:
     Atom            X                  Y                   Z
    ------   -----------------  -----------------  -----------------
       1       -0.000021928581     0.000008965015    -0.000002060183
       2        0.000010295251    -0.000066616793    -0.000002750252
       3        0.000969032973     0.000316393095     0.003056471850
       4        0.000043095747    -0.000008485438    -0.000010500934
       5       -0.000011134662     0.000008315410     0.000010243600
       6       -0.001308283829    -0.001380701197    -0.003850301716
       7        0.000270676114     0.005192209801     0.000599527993
       8        0.000038736130    -0.000016090832    -0.000016226625
       9       -0.000020811096     0.000022241558    -0.000002789141
      10       -0.000092861530     0.000111143418    -0.000072448938
      11        0.000178016410    -0.004210616051     0.000325859182
      12       -0.000063380040     0.000008673048    -0.000003921026
      13        0.000044124099     0.000014543106    -0.000038019843
      14        0.000017747461    -0.000008897877    -0.000010269365
      15       -0.000005329707    -0.000008415708     0.000008359185
      16       -0.000047994739     0.000017339444     0.000008826214

  **** Optimization is complete! (in 4 steps) ****
    Final optimized geometry and variables:
    Molecular point group: c1

    Geometry (in Angstrom), charge = 0, multiplicity = 1:

    H           -3.249758854631     0.805873326456    -0.281381615267
    C           -2.600774143641     1.332143199214     0.415049747198
    O           -1.265118373073     1.222497053266     0.049481664359
    H           -2.860550719499     2.380661843582     0.408094787564
    H           -2.773326383347     0.934721592170     1.412792446261
    C           -0.780929133506    -0.083233675817     0.031514871814
    C            0.665616730549    -0.057947060358    -0.430777611128
    H           -0.812655122125    -0.513104581175     1.029063795914
    H           -1.385994084919    -0.709629007003    -0.619774036430
    O            1.325918636546    -1.137078965888     0.156324210183
    H            0.725010851502    -0.151986807171    -1.512846320036
    H            1.117299574348     0.883568554794    -0.133976995078
    C            2.652126729255    -1.276249295365    -0.232282687895
    H            2.738599919068    -1.443829264027    -1.303676725325
    H            3.236774042150    -0.396056194407     0.025782538360
    H            3.061215062205    -2.130370794798     0.287410518059

  Mulliken Charges: (a.u.)
   Center  Symbol    Alpha    Beta     Spin     Total
       1     H     0.47118  0.47118  0.00000  0.05764
       2     C     3.02973  3.02973  0.00000 -0.05946
       3     O     4.17501  4.17501  0.00000 -0.35002
       4     H     0.44679  0.44679  0.00000  0.10642
       5     H     0.47097  0.47097  0.00000  0.05806
       6     C     2.96471  2.96471  0.00000  0.07058
       7     C     2.96495  2.96495  0.00000  0.07011
       8     H     0.46847  0.46847  0.00000  0.06307
       9     H     0.47303  0.47303  0.00000  0.05395
      10     O     4.17552  4.17552  0.00000 -0.35104
      11     H     0.47357  0.47357  0.00000  0.05287
      12     H     0.46699  0.46699  0.00000  0.06603
      13     C     3.02961  3.02961  0.00000 -0.05922
      14     H     0.47159  0.47159  0.00000  0.05681
      15     H     0.47103  0.47103  0.00000  0.05794
      16     H     0.44686  0.44686  0.00000  0.10628

   Total alpha = 25.00000, Total beta = 25.00000, Total charge =  0.00000
