  ==> Input File <==

--------------------------------------------------------------------------
set {
	reference rhf
	basis 6-31G*
}

set_num_threads( 1 )
memory 2 gb

molecule MOL {
0 1

O	 1.846825	 1.296220	 0.000415
C	 1.705091	 0.115954	 0.001797
C	 0.381791	 -0.609817	 0.001258
O	 2.721346	 -0.737485	 -0.000216
C	 -0.823008	 0.326187	 0.001381
H	 0.371250	 -1.265087	 -0.865474
H	 0.370908	 -1.265746	 0.867490
C	 -0.585172	 1.578257	 0.846850
H	 -1.691742	 -0.209249	 0.371245
H	 -1.055868	 0.609513	 -1.020290
C	 -1.784172	 2.528054	 0.858848
H	 -0.348631	 1.287373	 1.869313
H	 0.288616	 2.109493	 0.472465
C	 -1.545488	 3.779474	 1.702785
H	 -2.657312	 1.999603	 1.235019
H	 -2.021141	 2.820218	 -0.161752
H	 -1.339787	 3.521386	 2.737817
H	 -2.412598	 4.432495	 1.691230
H	 -0.698203	 4.348317	 1.330178
C	 4.024888	 -0.184556	 -0.001949
H	 4.179030	 0.422472	 -0.882452
H	 4.701782	 -1.024608	 -0.003642
H	 4.181981	 0.421185	 0.878906

	symmetry c1
}
set optking {
	frozen_dihedral = ("
		15 11 8 12,
		9 5 8 12,
		1 2 3 6,
		1 2 4 20
	")
}

ee = energy('scf')
oeprop('DIPOLE', 'QUADRUPOLE', 'MULLIKEN_CHARGES')
f=open( 'psi4out.xyz', 'w' )
f.write( "23  " )
f.write( str(ee) + "\n" )
f.write( MOL.save_string_xyz() )
f.close()
--------------------------------------------------------------------------

    Molecular point group: c1

    Geometry (in Angstrom), charge = 0, multiplicity = 1:

       Center              X                  Y                   Z               Mass
    ------------   -----------------  -----------------  -----------------  -----------------
           O          1.143996364523     0.391608516708    -0.380228979969    15.994914619560
           C          1.002262364523    -0.788657483292    -0.378846979969    12.000000000000
           C         -0.321037635477    -1.514428483292    -0.379385979969    12.000000000000
           O          2.018517364523    -1.642096483292    -0.380859979969    15.994914619560
           C         -1.525836635477    -0.578424483292    -0.379262979969    12.000000000000
           H         -0.331578635477    -2.169698483292    -1.246117979969     1.007825032070
           H         -0.331920635477    -2.170357483292     0.486846020031     1.007825032070
           C         -1.288000635477     0.673645516708     0.466206020031    12.000000000000
           H         -2.394570635477    -1.113860483292    -0.009398979969     1.007825032070
           H         -1.758696635477    -0.295098483292    -1.400933979969     1.007825032070
           C         -2.487000635477     1.623442516708     0.478204020031    12.000000000000
           H         -1.051459635477     0.382761516708     1.488669020031     1.007825032070
           H         -0.414212635477     1.204881516708     0.091821020031     1.007825032070
           C         -2.248316635477     2.874862516708     1.322141020031    12.000000000000
           H         -3.360140635477     1.094991516708     0.854375020031     1.007825032070
           H         -2.723969635477     1.915606516708    -0.542395979969     1.007825032070
           H         -2.042615635477     2.616774516708     2.357173020031     1.007825032070
           H         -3.115426635477     3.527883516708     1.310586020031     1.007825032070
           H         -1.401031635477     3.443705516708     0.949534020031     1.007825032070
           C          3.322059364523    -1.089167483292    -0.382592979969    12.000000000000
           H          3.476201364523    -0.482139483292    -1.263095979969     1.007825032070
           H          3.998953364523    -1.929219483292    -0.384285979969     1.007825032070
           H          3.479152364523    -0.483426483292     0.498262020031     1.007825032070

  Charge       = 0
  Multiplicity = 1
  Basis Set: 6-31G*
  Basis Set:

    Orbital Energies (a.u.)
    -----------------------

    Doubly Occupied:

       1A    -20.607197     2A    -20.547444     3A    -11.377472
       4A    -11.283333     5A    -11.236822     6A    -11.217640
       7A    -11.202526     8A    -11.198743     9A    -11.189740
      10A     -1.474296    11A     -1.370180    12A     -1.086824
      13A     -1.036601    14A     -0.985593    15A     -0.924916
      16A     -0.840144    17A     -0.787400    18A     -0.773006
      19A     -0.699866    20A     -0.685536    21A     -0.676174
      22A     -0.639075    23A     -0.610316    24A     -0.598195
      25A     -0.561190    26A     -0.552694    27A     -0.549821
      28A     -0.530886    29A     -0.518518    30A     -0.510763
      31A     -0.487447    32A     -0.470668    33A     -0.461887
      34A     -0.452901    35A     -0.442603    36A     -0.405743

  @DF-RHF Final Energy:  -422.95639664969366

   => Energetics <=

    Nuclear Repulsion Energy =            471.5080418976390888
    One-Electron Energy =               -1510.9402201083166801
    Two-Electron Energy =                 616.4757815609876843
    DFT Exchange-Correlation Energy =       0.0000000000000000
    Empirical Dispersion Energy =           0.0000000000000000
    PCM Polarization Energy =               0.0000000000000000
    EFP Energy =                            0.0000000000000000
    Total Energy =                       -422.9563966496899639

  Mulliken Charges: (a.u.)
   Center  Symbol    Alpha    Beta     Spin     Total
       1     O     4.28885  4.28885  0.00000 -0.57770
       2     C     2.60037  2.60037  0.00000  0.79926
       3     C     3.21115  3.21115  0.00000 -0.42230
       4     O     4.30741  4.30741  0.00000 -0.61483
       5     C     3.15496  3.15496  0.00000 -0.30992
       6     H     0.39723  0.39723  0.00000  0.20554
       7     H     0.39873  0.39873  0.00000  0.20254
       8     C     3.17212  3.17212  0.00000 -0.34425
       9     H     0.41760  0.41760  0.00000  0.16479
      10     H     0.41774  0.41774  0.00000  0.16452
      11     C     3.14884  3.14884  0.00000 -0.29768
      12     H     0.43258  0.43258  0.00000  0.13484
      13     H     0.37377  0.37377  0.00000  0.25246
      14     C     3.23824  3.23824  0.00000 -0.47649
      15     H     0.42990  0.42990  0.00000  0.14020
      16     H     0.42595  0.42595  0.00000  0.14810
      17     H     0.42365  0.42365  0.00000  0.15269
      18     H     0.42212  0.42212  0.00000  0.15576
      19     H     0.42045  0.42045  0.00000  0.15911
      20     C     3.09286  3.09286  0.00000 -0.18572
      21     H     0.40885  0.40885  0.00000  0.18230
      22     H     0.40774  0.40774  0.00000  0.18452
      23     H     0.40887  0.40887  0.00000  0.18226

   Total alpha = 36.00000, Total beta = 36.00000, Total charge =  0.00000
