  ==> Input File <==

--------------------------------------------------------------------------
set {
	reference rhf
	basis cc-pvtz
}

set_num_threads( 4 )
memory 2 gb

molecule MOL {
0 1

O	 1.568089	 0.030131	 0.910123
C	 0.860843	 0.273204	 -0.013120
C	 -0.623368	 -0.117453	 -0.005652
C	 1.428623	 0.976948	 -1.229834
C	 -0.892588	 -1.253841	 -1.002900
C	 -1.473463	 1.100646	 -0.372896
C	 -0.981836	 -0.579025	 1.418506
H	 -0.609333	 -0.970024	 -2.010649
H	 -1.950451	 -1.487353	 -1.013175
H	 -0.360848	 -2.161259	 -0.746463
H	 -1.232203	 1.461623	 -1.364827
H	 -2.524364	 0.834451	 -0.354500
H	 -1.312381	 1.914833	 0.318657
H	 -2.035706	 -0.826342	 1.468082
H	 -0.425078	 -1.458934	 1.716857
H	 -0.788494	 0.205047	 2.140903
H	 1.149337	 2.024207	 -1.198044
H	 2.504923	 0.904397	 -1.201819
H	 1.054555	 0.567853	 -2.158245

	symmetry c1
}
set optking {
	frozen_dihedral = ("
		1 2 3 5
	")
}

ee = optimize('scf')
oeprop('DIPOLE', 'QUADRUPOLE', 'MULLIKEN_CHARGES')
f=open( 'psi4out.xyz', 'w' )
f.write( "19  " )
f.write( str(ee) + "\n" )
f.write( MOL.save_string_xyz() )
f.close()
--------------------------------------------------------------------------

    Molecular point group: c1
  Charge       = 0
  Multiplicity = 1
  Basis Set: CC-PVTZ
  Basis Set:
  @DF-RHF Final Energy:  -309.17338930745643
    Total Energy =                       -309.1733893074568300
    Molecular point group: c1
  Basis Set: CC-PVTZ
  Basis Set:
  Basis Set: CC-PVTZ
  Basis Set:
  @DF-RHF Final Energy:  -309.17324450978157
    Total Energy =                       -309.1732445097808295
  Basis Set: CC-PVTZ
  Basis Set:
  Basis Set: CC-PVTZ
  Basis Set:
  @DF-RHF Final Energy:  -309.17169554467637
    Total Energy =                       -309.1716955446763109
  Basis Set: CC-PVTZ
  Basis Set:
  Basis Set: CC-PVTZ
  Basis Set:
  @DF-RHF Final Energy:  -309.17414318446652
    Total Energy =                       -309.1741431844667432
  Basis Set: CC-PVTZ
  Basis Set:
  Basis Set: CC-PVTZ
  Basis Set:
  @DF-RHF Final Energy:  -309.17385234649521
    Total Energy =                       -309.1738523464949253
  Basis Set: CC-PVTZ
  Basis Set:
  Basis Set: CC-PVTZ
  Basis Set:
  @DF-RHF Final Energy:  -309.17422969699396
    Total Energy =                       -309.1742296969939616
  Basis Set: CC-PVTZ
  Basis Set:
  Charge       = 0
  Multiplicity = 1
  Basis Set: CC-PVTZ
  Basis Set:

    Orbital Energies (a.u.)
    -----------------------

    Doubly Occupied:

       1A    -20.537403     2A    -11.317711     3A    -11.245702
       4A    -11.225039     5A    -11.222497     6A    -11.222333
       7A    -11.206094     8A     -1.398453     9A     -1.110998
      10A     -1.002857    11A     -0.948011    12A     -0.935758
      13A     -0.835975    14A     -0.705398    15A     -0.666753
      16A     -0.633944    17A     -0.621296    18A     -0.600337
      19A     -0.593457    20A     -0.565561    21A     -0.546535
      22A     -0.544906    23A     -0.523866    24A     -0.514916
      25A     -0.501493    26A     -0.472574    27A     -0.469023
      28A     -0.394963

  @DF-RHF Final Energy:  -309.17422894166589

   => Energetics <=

    Nuclear Repulsion Energy =            326.8984539722770251
    One-Electron Energy =               -1067.0176554969002609
    Two-Electron Energy =                 430.9449725829574049
    DFT Exchange-Correlation Energy =       0.0000000000000000
    Empirical Dispersion Energy =           0.0000000000000000
    PCM Polarization Energy =               0.0000000000000000
    EFP Energy =                            0.0000000000000000
    Total Energy =                       -309.1742289416658309
    Molecular point group: c1
  Basis Set: CC-PVTZ
  Basis Set:

  -Total Gradient:
     Atom            X                  Y                   Z
    ------   -----------------  -----------------  -----------------
       1       -0.000166656470     0.000633774570     0.000333989376
       2        0.000232739213    -0.001015295266    -0.000644504187
       3       -0.000069221766     0.000178374718     0.000472369346
       4        0.000055267314     0.000265773152     0.000218203616
       5       -0.000013224066     0.000257119735    -0.000294816980
       6       -0.000132020839    -0.000066280689     0.000020418065
       7        0.000122734574    -0.000029829753    -0.000035454713
       8        0.000138008682     0.000049218767    -0.000011096187
       9        0.000041486942     0.000081774599    -0.000038334558
      10       -0.000059948706    -0.000112535375     0.000033999188
      11       -0.000099408544    -0.000076472285     0.000066776167
      12       -0.000087935281     0.000012311438     0.000045159585
      13        0.000123937018    -0.000031914664    -0.000063873785
      14        0.000003900942     0.000068189506     0.000017034504
      15       -0.000041661547    -0.000055453860    -0.000015067679
      16        0.000031949055     0.000001877440    -0.000018869614
      17        0.000014680551    -0.000025287733    -0.000064696204
      18       -0.000018005424    -0.000039268354     0.000017581021
      19       -0.000076621649    -0.000096075941    -0.000038816960

  **** Optimization is complete! (in 7 steps) ****
    Final optimized geometry and variables:
    Molecular point group: c1

    Geometry (in Angstrom), charge = 0, multiplicity = 1:

    O            1.595026616375    -0.055111859803     0.943952471402
    C            0.880814532620     0.195873190367     0.028207068997
    C           -0.609770697812    -0.167802330975     0.053586642102
    C            1.442831559561     0.909916788278    -1.185792896901
    C           -0.852032572927    -1.306708713766    -0.952670641842
    C           -1.458105767840     1.053549875309    -0.333112343446
    C           -0.995972699958    -0.638619839433     1.456773717007
    H           -0.617721699732    -1.014931781436    -1.968639582218
    H           -1.895359212428    -1.598258873737    -0.928873746531
    H           -0.257727986110    -2.178744137095    -0.705286095711
    H           -1.273251121605     1.376290815369    -1.349840876145
    H           -2.510324228823     0.807564676544    -0.254390373333
    H           -1.265373100345     1.891745521969     0.327502227389
    H           -2.048493432975    -0.897914995397     1.480446237535
    H           -0.421973539192    -1.505347459060     1.752300120811
    H           -0.819595653359     0.135756672388     2.192041707339
    H            1.213641696743     1.967031984011    -1.109319966633
    H            2.515367856123     0.790297405587    -1.192198244703
    H            1.025057602756     0.550973092798    -2.115780315170

  Mulliken Charges: (a.u.)
   Center  Symbol    Alpha    Beta     Spin     Total
       1     O     4.17472  4.17472  0.00000 -0.34944
       2     C     2.85407  2.85407  0.00000  0.29186
       3     C     3.00908  3.00908  0.00000 -0.01817
       4     C     3.16259  3.16259  0.00000 -0.32519
       5     C     3.15967  3.15967  0.00000 -0.31935
       6     C     3.16382  3.16382  0.00000 -0.32764
       7     C     3.14967  3.14967  0.00000 -0.29934
       8     H     0.44588  0.44588  0.00000  0.10823
       9     H     0.44505  0.44505  0.00000  0.10990
      10     H     0.44199  0.44199  0.00000  0.11601
      11     H     0.44586  0.44586  0.00000  0.10829
      12     H     0.44287  0.44287  0.00000  0.11426
      13     H     0.44276  0.44276  0.00000  0.11447
      14     H     0.45207  0.45207  0.00000  0.09587
      15     H     0.44083  0.44083  0.00000  0.11835
      16     H     0.44526  0.44526  0.00000  0.10948
      17     H     0.44516  0.44516  0.00000  0.10967
      18     H     0.43180  0.43180  0.00000  0.13639
      19     H     0.44683  0.44683  0.00000  0.10635

   Total alpha = 28.00000, Total beta = 28.00000, Total charge = -0.00000
