  ==> Input File <==

--------------------------------------------------------------------------
set {
	reference rhf
	basis cc-pvtz
}

set_num_threads( 4 )
memory 2 gb

molecule MOL {
0 1

O	 1.171303	 1.375342	 0.278390
C	 0.990639	 0.331399	 0.806219
C	 -0.298938	 -0.448363	 0.785606
O	 1.923303	 -0.300454	 1.499960
C	 -1.413045	 0.229353	 0.001137
H	 -0.073909	 -1.429654	 0.380748
H	 -0.589842	 -0.614491	 1.817710
C	 -2.702562	 -0.586401	 0.000228
H	 -1.083170	 0.395970	 -1.018158
H	 -1.600082	 1.211559	 0.420461
C	 -3.953810	 0.284959	 -0.000782
H	 -2.717793	 -1.238567	 -0.869075
H	 -2.719108	 -1.238472	 0.869576
H	 -3.983727	 0.924403	 -0.876454
H	 -4.852989	 -0.320147	 -0.001515
H	 -3.985140	 0.924399	 0.874841
C	 3.188690	 0.320606	 1.601941
H	 3.627774	 0.454279	 0.624412
H	 3.797876	 -0.340921	 2.196199
H	 3.103381	 1.282957	 2.084463

	symmetry c1
}
set optking {
	frozen_dihedral = ("
		9 5 8 12
	")
}

ee = optimize('scf')
oeprop('DIPOLE', 'QUADRUPOLE', 'MULLIKEN_CHARGES')
f=open( 'psi4out.xyz', 'w' )
f.write( "20  " )
f.write( str(ee) + "\n" )
f.write( MOL.save_string_xyz() )
f.close()
--------------------------------------------------------------------------

    Molecular point group: c1
  Charge       = 0
  Multiplicity = 1
  Basis Set: CC-PVTZ
  Basis Set:
  @DF-RHF Final Energy:  -384.07966110237220
    Total Energy =                       -384.0796611023719151
    Molecular point group: c1
  Basis Set: CC-PVTZ
  Basis Set:
  Basis Set: CC-PVTZ
  Basis Set:
  @DF-RHF Final Energy:  -384.07996755293397
    Total Energy =                       -384.0799675529335673
  Basis Set: CC-PVTZ
  Basis Set:
  Basis Set: CC-PVTZ
  Basis Set:
  @DF-RHF Final Energy:  -384.07970511098648
    Total Energy =                       -384.0797051109863105
  Basis Set: CC-PVTZ
  Basis Set:
  Basis Set: CC-PVTZ
  Basis Set:
  @DF-RHF Final Energy:  -384.08003537832769
    Total Energy =                       -384.0800353783276933
  Basis Set: CC-PVTZ
  Basis Set:
  Basis Set: CC-PVTZ
  Basis Set:
  @DF-RHF Final Energy:  -384.08003854506109
    Total Energy =                       -384.0800385450608019
  Basis Set: CC-PVTZ
  Basis Set:
  Charge       = 0
  Multiplicity = 1
  Basis Set: CC-PVTZ
  Basis Set:

    Orbital Energies (a.u.)
    -----------------------

    Doubly Occupied:

       1A    -20.596321     2A    -20.534209     3A    -11.364454
       4A    -11.278505     5A    -11.233941     6A    -11.218396
       7A    -11.217385     8A    -11.208896     9A     -1.472210
      10A     -1.365799    11A     -1.088697    12A     -1.024973
      13A     -0.969866    14A     -0.885790    15A     -0.804705
      16A     -0.769380    17A     -0.700175    18A     -0.686357
      19A     -0.675905    20A     -0.643817    21A     -0.598629
      22A     -0.597811    23A     -0.578492    24A     -0.543854
      25A     -0.532669    26A     -0.523643    27A     -0.505725
      28A     -0.476781    29A     -0.474446    30A     -0.469791
      31A     -0.459016    32A     -0.439554

  @DF-RHF Final Energy:  -384.08003863479894

   => Energetics <=

    Nuclear Repulsion Energy =            381.7319936106696332
    One-Electron Energy =               -1279.7436831166601223
    Two-Electron Energy =                 513.9316508711916640
    DFT Exchange-Correlation Energy =       0.0000000000000000
    Empirical Dispersion Energy =           0.0000000000000000
    PCM Polarization Energy =               0.0000000000000000
    EFP Energy =                            0.0000000000000000
    Total Energy =                       -384.0800386347988251
    Molecular point group: c1
  Basis Set: CC-PVTZ
  Basis Set:

  -Total Gradient:
     Atom            X                  Y                   Z
    ------   -----------------  -----------------  -----------------
       1       -0.000008179858     0.000002239215     0.000003361278
       2        0.000002934682     0.000007822263    -0.000002327669
       3       -0.000001355009    -0.000008703559    -0.000016922952
       4        0.000003442455    -0.000011471236    -0.000000991284
       5       -0.003553198562     0.005430680711    -0.000764265864
       6       -0.000001714810    -0.000000582117     0.000010471008
       7        0.000003285656     0.000004979572     0.000010445571
       8        0.003121959159    -0.004852302526     0.002982577092
       9        0.002472790060    -0.003773421664     0.000176471738
      10        0.000001651722    -0.000008465383    -0.000000231708
      11        0.000009213544    -0.000000209005     0.000006198496
      12       -0.002050885595     0.003188305998    -0.002399811718
      13        0.000010093139     0.000013464118    -0.000003970003
      14       -0.000001461784     0.000003282818    -0.000001127529
      15       -0.000000816005    -0.000000463834     0.000000314457
      16       -0.000004816637     0.000003503426    -0.000000118607
      17       -0.000001300469     0.000002055805    -0.000000995332
      18        0.000000092895    -0.000000046671     0.000000427856
      19       -0.000001653676    -0.000000813133     0.000000147975
      20       -0.000000080901     0.000000145202     0.000000347194

  **** Optimization is complete! (in 6 steps) ****
    Final optimized geometry and variables:
    Molecular point group: c1

    Geometry (in Angstrom), charge = 0, multiplicity = 1:

    O            1.278564750617     1.214957671029    -0.352692747789
    C            1.098363102857     0.172675316236     0.178760256151
    C           -0.198429553063    -0.595411314581     0.182029145147
    O            2.037823145672    -0.466760423935     0.856306769438
    C           -1.324506586072     0.095113190013    -0.578508057196
    H            0.008818088362    -1.577291862145    -0.231566063837
    H           -0.469409451274    -0.763515928256     1.219062364976
    C           -2.605401130789    -0.750157679485    -0.608671676131
    H           -0.978549291185     0.273934963817    -1.588951474767
    H           -1.515436743239     1.062369339946    -0.130764532898
    C           -3.870388772301     0.102092942925    -0.682743278140
    H           -2.588380968357    -1.395289306028    -1.481346032280
    H           -2.658244139445    -1.391236530281     0.265378869925
    H           -3.850925157612     0.752525736011    -1.550896750339
    H           -4.757718969447    -0.516688368524    -0.752619102876
    H           -3.970796996380     0.730138447105     0.195964611825
    C            3.309912654580     0.143656145821     0.935802508856
    H            3.733047988318     0.273162068764    -0.049303024344
    H            3.923829019209    -0.522643201266     1.519784135131
    H            3.241160501846     1.106956704298     1.419092214596

  Mulliken Charges: (a.u.)
   Center  Symbol    Alpha    Beta     Spin     Total
       1     O     4.19681  4.19681  0.00000 -0.39361
       2     C     2.80735  2.80735  0.00000  0.38530
       3     C     3.10073  3.10073  0.00000 -0.20145
       4     O     4.14678  4.14678  0.00000 -0.29355
       5     C     3.08354  3.08354  0.00000 -0.16708
       6     H     0.43929  0.43929  0.00000  0.12142
       7     H     0.44041  0.44041  0.00000  0.11917
       8     C     3.08760  3.08760  0.00000 -0.17519
       9     H     0.44537  0.44537  0.00000  0.10926
      10     H     0.44688  0.44688  0.00000  0.10624
      11     C     3.14798  3.14798  0.00000 -0.29595
      12     H     0.45238  0.45238  0.00000  0.09525
      13     H     0.45579  0.45579  0.00000  0.08841
      14     H     0.45268  0.45268  0.00000  0.09463
      15     H     0.44935  0.44935  0.00000  0.10130
      16     H     0.45536  0.45536  0.00000  0.08928
      17     C     3.03766  3.03766  0.00000 -0.07533
      18     H     0.45435  0.45435  0.00000  0.09130
      19     H     0.44532  0.44532  0.00000  0.10935
      20     H     0.45438  0.45438  0.00000  0.09125

   Total alpha = 32.00000, Total beta = 32.00000, Total charge = -0.00000
