                              Psi4 1.0.54 Driver

  ==> Input File <==

--------------------------------------------------------------------------
set {
	reference rhf
	basis cc-pvtz
}

set_num_threads( 4 )
memory 2 gb

molecule MOL {
0 1

O	 -2.782123	 0.109331	 0.767922
C	 -1.922978	 0.063265	 -0.045005
C	 -2.148370	 -0.105122	 -1.521249
O	 -0.637375	 0.157174	 0.243149
H	 -1.647340	 -1.000739	 -1.865573
H	 -3.205582	 -0.171881	 -1.719958
H	 -1.721010	 0.735407	 -2.052703
C	 0.162530	 -1.009518	 0.097799
C	 1.587210	 -0.664190	 0.477086
H	 0.096803	 -1.356267	 -0.924704
H	 -0.233803	 -1.785900	 0.736810
C	 2.256770	 0.342732	 -0.454344
H	 2.154716	 -1.590834	 0.479041
H	 1.598751	 -0.289614	 1.496104
C	 3.698146	 0.643205	 -0.057145
H	 2.235038	 -0.042575	 -1.470299
H	 1.683491	 1.262594	 -0.461300
H	 4.150202	 1.356548	 -0.736242
H	 4.305463	 -0.255904	 -0.069842
H	 3.749130	 1.061068	 0.942759

	symmetry c1
}
set optking {
	frozen_dihedral = ("
		1 2 4 8
	")
}

ee,wfn = optimize('scf', return_wfn=True)
oeprop( wfn, 'DIPOLE', 'QUADRUPOLE', 'MULLIKEN_CHARGES')
f=open( 'psi4out.xyz', 'w' )
f.write( "20  " )
f.write( str(ee) + "\n" )
f.write( MOL.save_string_xyz() )
f.close()
--------------------------------------------------------------------------

    Molecular point group: c1
  Charge       = 0
  Multiplicity = 1
  Basis Set: CC-PVTZ
  Basis Set:
  @DF-RHF Final Energy:  -384.06540904484370
    Total Energy =                       -384.0654090448437046
    Molecular point group: c1
  Basis Set: CC-PVTZ
  Basis Set:
  Basis Set: CC-PVTZ
  Basis Set:
  @DF-RHF Final Energy:  -383.92474100512084
    Total Energy =                       -383.9247410051201541
  Basis Set: CC-PVTZ
  Basis Set:
  Basis Set: CC-PVTZ
  Basis Set:
  @DF-RHF Final Energy:  -383.92415500331140
    Total Energy =                       -383.9241550033115118
  Basis Set: CC-PVTZ
  Basis Set:
  Basis Set: CC-PVTZ
  Basis Set:
  @DF-RHF Final Energy:  -384.02994307888639
    Total Energy =                       -384.0299430788863901
  Basis Set: CC-PVTZ
  Basis Set:
  @DF-RHF Final Energy:  -384.06715472084443
    Total Energy =                       -384.0671547208444281
  @DF-RHF Final Energy:  -384.04527347752315
    Total Energy =                       -384.0452734775228123
  @DF-RHF Final Energy:  -384.06713395492892
    Total Energy =                       -384.0671339549292043
  @DF-RHF Final Energy:  -384.06809077980262
    Total Energy =                       -384.0680907798027874
  @DF-RHF Final Energy:  -384.06814926242873
    Total Energy =                       -384.0681492624283919
  @DF-RHF Final Energy:  -384.06819894010073
    Total Energy =                       -384.0681989401008423
  Basis Set: CC-PVTZ
  Basis Set:
  @DF-RHF Final Energy:  -384.06820232413691
    Total Energy =                       -384.0682023241369052
  Basis Set: CC-PVTZ
  Basis Set:
  Basis Set: CC-PVTZ
  Basis Set:
  @DF-RHF Final Energy:  -384.06820722996542
    Total Energy =                       -384.0682072299656511
  Basis Set: CC-PVTZ
  Basis Set:
  Basis Set: CC-PVTZ
  Basis Set:
  @DF-RHF Final Energy:  -384.06820993326073
    Total Energy =                       -384.0682099332606185
  Basis Set: CC-PVTZ
  Basis Set:
  Charge       = 0
  Multiplicity = 1
  Basis Set: CC-PVTZ
  Basis Set:

    Orbital Energies (a.u.)
    -----------------------

    Doubly Occupied:

       1A    -20.577706     2A    -20.542510     3A    -11.369622
       4A    -11.292746     5A    -11.236996     6A    -11.226388
       7A    -11.220301     8A    -11.212292     9A     -1.460844
      10A     -1.369564    11A     -1.086315    12A     -1.021423
      13A     -0.993643    14A     -0.885080    15A     -0.813167
      16A     -0.778452    17A     -0.696939    18A     -0.688929
      19A     -0.657752    20A     -0.634969    21A     -0.619109
      22A     -0.592235    23A     -0.581410    24A     -0.555567
      25A     -0.552160    26A     -0.535751    27A     -0.495982
      28A     -0.490989    29A     -0.479384    30A     -0.475302
      31A     -0.452480    32A     -0.438874

  @DF-RHF Final Energy:  -384.06821082097690

   => Energetics <=

    Nuclear Repulsion Energy =            384.6929583140126852
    One-Electron Energy =               -1285.4525750910574970
    Two-Electron Energy =                 516.6914059560681380
    DFT Exchange-Correlation Energy =       0.0000000000000000
    Empirical Dispersion Energy =           0.0000000000000000
    PCM Polarization Energy =               0.0000000000000000
    EFP Energy =                            0.0000000000000000
    Total Energy =                       -384.0682108209766739
    Molecular point group: c1
  Basis Set: CC-PVTZ
  Basis Set:

  -Total Gradient:
     Atom            X                  Y                   Z
    ------   -----------------  -----------------  -----------------
       1       -0.000178734886    -0.001235224429    -0.000357077075
       2       -0.000004258674     0.001503445185     0.000897614086
       3       -0.000056349273    -0.000007890780     0.000125285617
       4        0.000486416168     0.000354844410    -0.001360390593
       5        0.000035332786    -0.000053398636    -0.000046648921
       6       -0.000019908350     0.000011956501    -0.000024277975
       7        0.000050840045     0.000043355295    -0.000020335378
       8       -0.000326344459    -0.000592813857     0.000779893525
       9       -0.000002564144    -0.000005650815     0.000020894540
      10        0.000006796069     0.000002241159    -0.000008150369
      11       -0.000006564401    -0.000012465724     0.000012635279
      12        0.000004300087     0.000010010916     0.000012436793
      13        0.000012108665     0.000002291197    -0.000003384349
      14       -0.000018823064    -0.000005977215     0.000006728153
      15        0.000000179616    -0.000023468224    -0.000025871199
      16        0.000017645197     0.000009521128    -0.000010928032
      17       -0.000004957212    -0.000017051437     0.000003036815
      18        0.000013031664     0.000015521200    -0.000007156585
      19        0.000005525505    -0.000004277163     0.000002560438
      20       -0.000013671349     0.000005031291     0.000003135228

  **** Optimization is complete! (in 14 steps) ****
    Final optimized geometry and variables:
    Molecular point group: c1

    Geometry (in Angstrom), charge = 0, multiplicity = 1:

    O           -2.757802180852     0.409448999746     0.660515994079
    C           -1.883345717184     0.523237541235    -0.117550551427
    C           -2.071542318739     1.041378054797    -1.518893045808
    O           -0.613083464234     0.237110390155     0.221119391666
    H           -1.829408861052     0.272001598036    -2.241713985999
    H           -3.095623249919     1.348275480725    -1.655845942120
    H           -1.402594701120     1.875296690310    -1.689857885581
    C            0.000952018904    -0.911065982249    -0.338588015074
    C            1.347787356387    -1.113462557827     0.323787623775
    H            0.122433294393    -0.783913122398    -1.409644679087
    H           -0.635560019150    -1.771423529068    -0.164691427236
    C            2.344951381242     0.010830308264     0.058670489205
    H            1.751774273531    -2.054503267687    -0.040043142811
    H            1.192238473530    -1.227324450948     1.391197591258
    C            3.692970731091    -0.231480105659     0.729022960728
    H            2.489214452538     0.116036808059    -1.013786707314
    H            1.928421295317     0.947618699822     0.408686246775
    H            4.382263790337     0.579010291643     0.523409809860
    H            4.148839419374    -1.150984631682     0.376679197505
    H            3.584864640511    -0.308113310315     1.805565888768

  Mulliken Charges: (a.u.)
   Center  Symbol    Alpha    Beta     Spin     Total
       1     O     4.16889  4.16889  0.00000 -0.33779
       2     C     2.80783  2.80783  0.00000  0.38435
       3     C     3.15481  3.15481  0.00000 -0.30963
       4     O     4.16269  4.16269  0.00000 -0.32539
       5     H     0.44980  0.44980  0.00000  0.10041
       6     H     0.43321  0.43321  0.00000  0.13357
       7     H     0.44260  0.44260  0.00000  0.11481
       8     C     2.99275  2.99275  0.00000  0.01450
       9     C     3.08435  3.08435  0.00000 -0.16871
      10     H     0.45988  0.45988  0.00000  0.08024
      11     H     0.44894  0.44894  0.00000  0.10213
      12     C     3.08637  3.08637  0.00000 -0.17273
      13     H     0.45356  0.45356  0.00000  0.09288
      14     H     0.44641  0.44641  0.00000  0.10719
      15     C     3.15010  3.15010  0.00000 -0.30020
      16     H     0.45784  0.45784  0.00000  0.08431
      17     H     0.44388  0.44388  0.00000  0.11224
      18     H     0.44734  0.44734  0.00000  0.10532
      19     H     0.45615  0.45615  0.00000  0.08771
      20     H     0.45261  0.45261  0.00000  0.09479

   Total alpha = 32.00000, Total beta = 32.00000, Total charge =  0.00000

*** Psi4 exiting successfully. Buy a developer a beer!
