  ==> Input File <==

--------------------------------------------------------------------------
set {
	reference rhf
	basis cc-pvtz
}

set_num_threads( 4 )
memory 2 gb

molecule MOL {
0 1

H	 -3.642953	 0.223825	 0.000000
C	 -2.571844	 0.155001	 0.000000
C	 -1.957580	 -1.086132	 0.000000
C	 -1.807160	 1.303787	 0.000000
H	 -2.551493	 -1.979629	 0.000000
C	 -0.582719	 -1.174294	 0.000000
H	 -2.279934	 2.266806	 0.000000
C	 -0.427220	 1.213406	 0.000000
H	 -0.094904	 -2.127556	 0.000000
C	 0.196908	 -0.024061	 0.000000
H	 0.151409	 2.115254	 0.000000
C	 1.690041	 -0.173233	 0.000000
C	 2.375903	 -0.695845	 1.241422
O	 2.325952	 0.115527	 -0.963118
H	 2.179798	 -0.049844	 2.088892
H	 3.437499	 -0.734184	 1.056286
H	 2.016215	 -1.687222	 1.489969

	symmetry c1
}
set optking {
	frozen_dihedral = ("
		13 12 10 8
	")
}

ee = optimize('scf')
oeprop('DIPOLE', 'QUADRUPOLE', 'MULLIKEN_CHARGES')
f=open( 'psi4out.xyz', 'w' )
f.write( "17  " )
f.write( str(ee) + "\n" )
f.write( MOL.save_string_xyz() )
f.close()
--------------------------------------------------------------------------

    Molecular point group: c1
  Charge       = 0
  Multiplicity = 1
  Basis Set: CC-PVTZ
  Basis Set:
  @DF-RHF Final Energy:  -382.59744837773593
    Total Energy =                       -382.5974483777354180
    Molecular point group: c1
  Basis Set: CC-PVTZ
  Basis Set:
  Basis Set: CC-PVTZ
  Basis Set:
  @DF-RHF Final Energy:  -382.59773143073323
    Total Energy =                       -382.5977314307330062
  Basis Set: CC-PVTZ
  Basis Set:
  Basis Set: CC-PVTZ
  Basis Set:
  @DF-RHF Final Energy:  -382.59742488772514
    Total Energy =                       -382.5974248877250830
  Basis Set: CC-PVTZ
  Basis Set:
  Basis Set: CC-PVTZ
  Basis Set:
  @DF-RHF Final Energy:  -382.59857794729970
    Total Energy =                       -382.5985779472997592
  Basis Set: CC-PVTZ
  Basis Set:
  Basis Set: CC-PVTZ
  Basis Set:
  @DF-RHF Final Energy:  -382.59859284704578
    Total Energy =                       -382.5985928470460067
  Basis Set: CC-PVTZ
  Basis Set:
  Basis Set: CC-PVTZ
  Basis Set:
  @DF-RHF Final Energy:  -382.59859849218401
    Total Energy =                       -382.5985984921840100
  Basis Set: CC-PVTZ
  Basis Set:
  Charge       = 0
  Multiplicity = 1
  Basis Set: CC-PVTZ
  Basis Set:

    Orbital Energies (a.u.)
    -----------------------

    Doubly Occupied:

       1A    -20.547079     2A    -11.330307     3A    -11.246681
       4A    -11.243035     5A    -11.240899     6A    -11.240063
       7A    -11.239074     8A    -11.237928     9A    -11.231169
      10A     -1.406951    11A     -1.171503    12A     -1.054389
      13A     -1.030182    14A     -1.001028    15A     -0.862951
      16A     -0.841533    17A     -0.765406    18A     -0.707309
      19A     -0.665919    20A     -0.649225    21A     -0.630180
      22A     -0.623805    23A     -0.602845    24A     -0.592564
      25A     -0.564297    26A     -0.527116    27A     -0.517596
      28A     -0.509869    29A     -0.496890    30A     -0.413652
      31A     -0.349165    32A     -0.347053

  @DF-RHF Final Energy:  -382.59859928358009

   => Energetics <=

    Nuclear Repulsion Energy =            403.7807400039765184
    One-Electron Energy =               -1318.9833463723643945
    Two-Electron Energy =                 532.6040070848077903
    DFT Exchange-Correlation Energy =       0.0000000000000000
    Empirical Dispersion Energy =           0.0000000000000000
    PCM Polarization Energy =               0.0000000000000000
    EFP Energy =                            0.0000000000000000
    Total Energy =                       -382.5985992835801426
    Molecular point group: c1
  Basis Set: CC-PVTZ
  Basis Set:

  -Total Gradient:
     Atom            X                  Y                   Z
    ------   -----------------  -----------------  -----------------
       1       -0.000005518862    -0.000012888480    -0.000002508144
       2        0.000004443425    -0.000047890481     0.000030324656
       3       -0.000020553490     0.000026762924    -0.000000161212
       4        0.000040891995     0.000043984198    -0.000034146561
       5       -0.000004960884     0.000002775059     0.000000713948
       6       -0.000042429175     0.000029466656    -0.000021603070
       7        0.000005249155    -0.000006944183     0.000001407905
       8       -0.000031461839    -0.000008892577     0.003256843399
       9        0.000013985222     0.000010568459    -0.000002750646
      10        0.000126535465     0.001159672674    -0.004198207023
      11       -0.000004895033     0.000003884665     0.000000032304
      12       -0.000219187791    -0.003926688672    -0.000128016871
      13        0.000125567185     0.002801850404     0.001095673346
      14       -0.000018871431    -0.000014116250     0.000029995443
      15        0.000016050080    -0.000024360069    -0.000008004964
      16        0.000008815383    -0.000011607727    -0.000000131845
      17        0.000006340604    -0.000025576599    -0.000019460670

  **** Optimization is complete! (in 7 steps) ****
    Final optimized geometry and variables:
    Molecular point group: c1

    Geometry (in Angstrom), charge = 0, multiplicity = 1:

    H           -3.632578654971     0.277643481438     0.005819533251
    C           -2.562914671178     0.193950454788    -0.010964488497
    C           -1.966341219464    -1.052153472962    -0.028420048522
    C           -1.778648473946     1.332233840829    -0.014634138643
    H           -2.571055272448    -1.938613556293    -0.028743934280
    C           -0.588693378806    -1.160139934181    -0.038871382078
    H           -2.237907828116     2.301914911382     0.001828827824
    C           -0.401813365559     1.225486338402    -0.045289440985
    H           -0.132683457002    -2.132497069797    -0.043453893756
    C            0.198943392404    -0.022030225938    -0.064821111140
    H            0.206780485247     2.109110525278    -0.066364761650
    C            1.701999524668    -0.113088798435    -0.060595832418
    C            2.349381035579    -0.636220715996     1.198627999149
    O            2.342203089726     0.278027563822    -0.979648031891
    H            2.113209561770     0.033967645763     2.017894789563
    H            3.419078264047    -0.691398267899     1.065283666598
    H            1.955745755703    -1.610688958173     1.462200390154

  Mulliken Charges: (a.u.)
   Center  Symbol    Alpha    Beta     Spin     Total
       1     H     0.42140  0.42140  0.00000  0.15720
       2     C     3.08401  3.08401  0.00000 -0.16803
       3     C     3.06535  3.06535  0.00000 -0.13069
       4     C     3.06353  3.06353  0.00000 -0.12706
       5     H     0.42151  0.42151  0.00000  0.15699
       6     C     3.09943  3.09943  0.00000 -0.19886
       7     H     0.42124  0.42124  0.00000  0.15753
       8     C     3.09466  3.09466  0.00000 -0.18932
       9     H     0.42371  0.42371  0.00000  0.15258
      10     C     2.95694  2.95694  0.00000  0.08613
      11     H     0.41866  0.41866  0.00000  0.16268
      12     C     2.87911  2.87911  0.00000  0.24178
      13     C     3.15093  3.15093  0.00000 -0.30186
      14     O     4.16773  4.16773  0.00000 -0.33546
      15     H     0.44611  0.44611  0.00000  0.10779
      16     H     0.43618  0.43618  0.00000  0.12763
      17     H     0.44951  0.44951  0.00000  0.10098

   Total alpha = 32.00000, Total beta = 32.00000, Total charge = -0.00000
