                              Psi4 1.0.54 Driver

  ==> Input File <==

--------------------------------------------------------------------------
set {
	reference rhf
	basis cc-pvtz
}

set_num_threads( 4 )
memory 2 gb

molecule MOL {
0 1

H	 -3.696508	 -0.434341	 -1.475850
O	 -3.458596	 0.315260	 -0.960865
C	 -3.176635	 -0.080824	 0.355601
C	 -1.763371	 0.265266	 0.799691
H	 -3.321825	 -1.153438	 0.379502
H	 -3.895468	 0.357385	 1.043382
C	 -0.673390	 -0.426948	 -0.013392
H	 -1.631049	 1.344913	 0.747560
H	 -1.664587	 -0.001624	 1.849167
C	 0.737842	 -0.043159	 0.423759
H	 -0.806103	 -0.190518	 -1.063345
H	 -0.797221	 -1.503753	 0.074146
C	 1.824000	 -0.743224	 -0.390623
H	 0.850588	 1.033777	 0.343840
H	 0.868587	 -0.286314	 1.476203
C	 3.255957	 -0.453067	 0.062319
H	 1.718250	 -0.470599	 -1.438164
H	 1.658105	 -1.815850	 -0.339904
C	 3.707029	 0.992337	 -0.133857
H	 3.928201	 -1.104096	 -0.488158
H	 3.362667	 -0.724561	 1.109374
H	 3.605811	 1.294044	 -1.171549
H	 4.748333	 1.111029	 0.143343
H	 3.129882	 1.683078	 0.468956

	symmetry c1
}
set optking {
	frozen_dihedral = ("
		1 2 3 5
	")
}

ee,wfn = optimize('scf', return_wfn=True)
oeprop( wfn, 'DIPOLE', 'QUADRUPOLE', 'MULLIKEN_CHARGES')
f=open( 'psi4out.xyz', 'w' )
f.write( "24  " )
f.write( str(ee) + "\n" )
f.write( MOL.save_string_xyz() )
f.close()
--------------------------------------------------------------------------

    Molecular point group: c1
  Charge       = 0
  Multiplicity = 1
  Basis Set: CC-PVTZ
  Basis Set:
  @DF-RHF Final Energy:  -349.37794736656264
    Total Energy =                       -349.3779473665630348
    Molecular point group: c1
  Basis Set: CC-PVTZ
  Basis Set:
  Basis Set: CC-PVTZ
  Basis Set:
  @DF-RHF Final Energy:  -349.37895983033997
    Total Energy =                       -349.3789598303400794
  Basis Set: CC-PVTZ
  Basis Set:
  Basis Set: CC-PVTZ
  Basis Set:
  @DF-RHF Final Energy:  -349.37927068068865
    Total Energy =                       -349.3792706806885917
  Basis Set: CC-PVTZ
  Basis Set:
  Basis Set: CC-PVTZ
  Basis Set:
  @DF-RHF Final Energy:  -349.37927414051688
    Total Energy =                       -349.3792741405165998
  Basis Set: CC-PVTZ
  Basis Set:
  Basis Set: CC-PVTZ
  Basis Set:
  @DF-RHF Final Energy:  -349.37927524632278
    Total Energy =                       -349.3792752463225497
  Basis Set: CC-PVTZ
  Basis Set:
  Charge       = 0
  Multiplicity = 1
  Basis Set: CC-PVTZ
  Basis Set:

    Orbital Energies (a.u.)
    -----------------------

    Doubly Occupied:

       1A    -20.545070     2A    -11.266054     3A    -11.211470
       4A    -11.210105     5A    -11.209296     6A    -11.208806
       7A    -11.208263     8A    -11.204153     9A     -1.362416
      10A     -1.088841    11A     -1.048551    12A     -0.986554
      13A     -0.915642    14A     -0.847537    15A     -0.791229
      16A     -0.775876    17A     -0.707832    18A     -0.644211
      19A     -0.632428    20A     -0.609143    21A     -0.596538
      22A     -0.579784    23A     -0.559809    24A     -0.538617
      25A     -0.514079    26A     -0.508330    27A     -0.497944
      28A     -0.471929    29A     -0.466932    30A     -0.461782
      31A     -0.455774    32A     -0.450691    33A     -0.420059

  @DF-RHF Final Energy:  -349.37927533490347

   => Energetics <=

    Nuclear Repulsion Energy =            384.8845542803416038
    One-Electron Energy =               -1236.5361687279403213
    Two-Electron Energy =                 502.2723391126951924
    DFT Exchange-Correlation Energy =       0.0000000000000000
    Empirical Dispersion Energy =           0.0000000000000000
    PCM Polarization Energy =               0.0000000000000000
    EFP Energy =                            0.0000000000000000
    Total Energy =                       -349.3792753349035252
    Molecular point group: c1
  Basis Set: CC-PVTZ
  Basis Set:

  -Total Gradient:
     Atom            X                  Y                   Z
    ------   -----------------  -----------------  -----------------
       1        0.000247859648    -0.000033604603    -0.000070402355
       2       -0.000363022599     0.000038752137     0.000085806286
       3        0.000316942903    -0.000034780612    -0.000077480767
       4       -0.000013881651    -0.000005137439     0.000019170753
       5       -0.000212306839     0.000045533805     0.000046632458
       6        0.000009918222    -0.000009165932     0.000009772970
       7       -0.000002103024    -0.000008016320    -0.000005039118
       8       -0.000009515457    -0.000000415082    -0.000001429382
       9        0.000008541371     0.000005813406    -0.000006250699
      10        0.000002040023    -0.000005560055    -0.000001500583
      11        0.000002797730    -0.000000126631     0.000004448172
      12        0.000002494959     0.000004691508    -0.000002764052
      13        0.000005462829     0.000008656174    -0.000003309710
      14       -0.000007248859    -0.000010393109    -0.000003430136
      15        0.000000327402     0.000002692282     0.000004089326
      16       -0.000003163362     0.000000762297     0.000009669841
      17       -0.000001276583     0.000003987062     0.000000136421
      18        0.000003286916    -0.000000573049    -0.000004359001
      19        0.000004767264    -0.000000031860    -0.000003200541
      20        0.000000979068    -0.000002558507     0.000002817486
      21       -0.000001718126     0.000002850618     0.000002474515
      22       -0.000001845684     0.000002657436    -0.000001667686
      23        0.000000886556    -0.000001794030    -0.000003217924
      24        0.000009777299    -0.000004239496    -0.000000966277

  **** Optimization is complete! (in 6 steps) ****
    Final optimized geometry and variables:
    Molecular point group: c1

    Geometry (in Angstrom), charge = 0, multiplicity = 1:

    H           -3.709198061706    -0.304892159066    -1.448325068640
    O           -3.452300413808     0.395707935217    -0.881175357598
    C           -3.169312010424    -0.086569249029     0.410526683299
    C           -1.751980000717     0.266913590454     0.825721820198
    H           -3.313432804028    -1.162639174388     0.455607114176
    H           -3.874040719183     0.360322198632     1.103432227220
    C           -0.674575592593    -0.425046562374    -0.003350638777
    H           -1.635462314056     1.344204892904     0.753628524813
    H           -1.631917826603     0.007787903435     1.875070299417
    C            0.743247086149    -0.041749656622     0.412591785281
    H           -0.820791274731    -0.180190680916    -1.049987642556
    H           -0.793748974876    -1.503486876577     0.083210706352
    C            1.817772221451    -0.738059025557    -0.420228103286
    H            0.852024388616     1.035232046808     0.333561958782
    H            0.890106912590    -0.287797069355     1.462189388370
    C            3.256201101349    -0.446649193054     0.011155084845
    H            1.695568535032    -0.462643911606    -1.465322591956
    H            1.654890481779    -1.811370536189    -0.369678865260
    C            3.701797382793     0.999936921795    -0.188787749724
    H            3.921020169606    -1.095446814787    -0.550988872327
    H            3.379362959997    -0.720300903164     1.055853394913
    H            3.582382436697     1.304364797504    -1.223712652688
    H            4.747529179146     1.119307847116     0.070961429855
    H            3.133942562515     1.688149958799     0.425455407703

  Mulliken Charges: (a.u.)
   Center  Symbol    Alpha    Beta     Spin     Total
       1     H     0.39058  0.39058  0.00000  0.21884
       2     O     4.20828  4.20828  0.00000 -0.41655
       3     C     2.98150  2.98150  0.00000  0.03699
       4     C     3.08220  3.08220  0.00000 -0.16440
       5     H     0.47068  0.47068  0.00000  0.05864
       6     H     0.45543  0.45543  0.00000  0.08915
       7     C     3.09512  3.09512  0.00000 -0.19025
       8     H     0.45219  0.45219  0.00000  0.09562
       9     H     0.45519  0.45519  0.00000  0.08961
      10     C     3.09234  3.09234  0.00000 -0.18468
      11     H     0.44897  0.44897  0.00000  0.10206
      12     H     0.45870  0.45870  0.00000  0.08260
      13     C     3.09440  3.09440  0.00000 -0.18881
      14     H     0.45119  0.45119  0.00000  0.09763
      15     H     0.45618  0.45618  0.00000  0.08764
      16     C     3.09016  3.09016  0.00000 -0.18032
      17     H     0.45407  0.45407  0.00000  0.09185
      18     H     0.45094  0.45094  0.00000  0.09813
      19     C     3.15227  3.15227  0.00000 -0.30453
      20     H     0.44903  0.44903  0.00000  0.10193
      21     H     0.45531  0.45531  0.00000  0.08938
      22     H     0.45477  0.45477  0.00000  0.09046
      23     H     0.44693  0.44693  0.00000  0.10613
      24     H     0.45356  0.45356  0.00000  0.09289

   Total alpha = 33.00000, Total beta = 33.00000, Total charge = -0.00000

*** Psi4 exiting successfully. Buy a developer a beer!
