                              Psi4 1.0.54 Driver

  ==> Input File <==

--------------------------------------------------------------------------
set {
	reference rhf
	basis cc-pvtz
}

set_num_threads( 4 )
memory 2 gb

molecule MOL {
0 1

H	 1.406810	 1.291171	 3.074091
O	 1.978124	 1.325648	 2.327677
C	 1.348791	 0.929911	 1.207001
C	 2.079506	 0.932611	 0.027523
C	 0.029104	 0.531497	 1.199974
H	 3.104253	 1.246102	 0.055351
C	 1.487975	 0.537709	 -1.150397
H	 -0.557981	 0.519580	 2.094673
C	 -0.532034	 0.141680	 0.000000
H	 2.060461	 0.543036	 -2.057028
C	 0.163839	 0.133287	 -1.182782
N	 -1.937041	 -0.281114	 0.000000
H	 -0.308488	 -0.175801	 -2.089476
O	 -2.159542	 -1.446261	 0.000000
O	 -2.764978	 0.565773	 0.000000

	symmetry c1
}
set optking {
	frozen_dihedral = ("
		11 9 12 14
	")
}

ee,wfn = optimize('scf', return_wfn=True)
oeprop( wfn, 'DIPOLE', 'QUADRUPOLE', 'MULLIKEN_CHARGES')
f=open( 'psi4out.xyz', 'w' )
f.write( "15  " )
f.write( str(ee) + "\n" )
f.write( MOL.save_string_xyz() )
f.close()
--------------------------------------------------------------------------

    Molecular point group: c1
  Charge       = 0
  Multiplicity = 1
  Basis Set: CC-PVTZ
  Basis Set:
  @DF-RHF Final Energy:  -509.20967219434596
    Total Energy =                       -509.2096721943462398
    Molecular point group: c1
  Basis Set: CC-PVTZ
  Basis Set:
  Basis Set: CC-PVTZ
  Basis Set:
  @DF-RHF Final Energy:  -509.20449494704008
    Total Energy =                       -509.2044949470401889
  Basis Set: CC-PVTZ
  Basis Set:
  Basis Set: CC-PVTZ
  Basis Set:
  @DF-RHF Final Energy:  -509.20885194682586
    Total Energy =                       -509.2088519468260301
  Basis Set: CC-PVTZ
  Basis Set:
  Basis Set: CC-PVTZ
  Basis Set:
  @DF-RHF Final Energy:  -509.20988586679425
    Total Energy =                       -509.2098858667937975
  Basis Set: CC-PVTZ
  Basis Set:
  Basis Set: CC-PVTZ
  Basis Set:
  @DF-RHF Final Energy:  -509.20991046223679
    Total Energy =                       -509.2099104622368486
  Basis Set: CC-PVTZ
  Basis Set:
  Basis Set: CC-PVTZ
  Basis Set:
  @DF-RHF Final Energy:  -509.20996978488273
    Total Energy =                       -509.2099697848825599
  Basis Set: CC-PVTZ
  Basis Set:
  Charge       = 0
  Multiplicity = 1
  Basis Set: CC-PVTZ
  Basis Set:

    Orbital Energies (a.u.)
    -----------------------

    Doubly Occupied:

       1A    -20.610638     2A    -20.601099     3A    -20.600768
       4A    -15.851023     5A    -11.330834     6A    -11.314916
       7A    -11.265282     8A    -11.263922     9A    -11.257749
      10A    -11.250089    11A     -1.648536    12A     -1.443637
      13A     -1.431802    14A     -1.204622    15A     -1.096620
      16A     -1.050010    17A     -0.966818    18A     -0.887183
      19A     -0.834148    20A     -0.794030    21A     -0.768666
      22A     -0.741262    23A     -0.724687    24A     -0.712838
      25A     -0.672552    26A     -0.636133    27A     -0.623950
      28A     -0.596298    29A     -0.565775    30A     -0.550382
      31A     -0.538362    32A     -0.495745    33A     -0.487362
      34A     -0.461853    35A     -0.376439    36A     -0.346387

  @DF-RHF Final Energy:  -509.20996993667808

   => Energetics <=

    Nuclear Repulsion Energy =            503.8486379455986821
    One-Electron Energy =               -1694.1123753589890839
    Two-Electron Energy =                 681.0537674767118688
    DFT Exchange-Correlation Energy =       0.0000000000000000
    Empirical Dispersion Energy =           0.0000000000000000
    PCM Polarization Energy =               0.0000000000000000
    EFP Energy =                            0.0000000000000000
    Total Energy =                       -509.2099699366784762
    Molecular point group: c1
  Basis Set: CC-PVTZ
  Basis Set:

  -Total Gradient:
     Atom            X                  Y                   Z
    ------   -----------------  -----------------  -----------------
       1       -0.000001509352    -0.000001709990    -0.000001302815
       2        0.000020209608     0.000001461022     0.000021087600
       3       -0.000054324047     0.000025146246    -0.000027406523
       4        0.000010711818    -0.000013121635    -0.000009663587
       5        0.000031731720    -0.000010333541     0.000023044172
       6       -0.000001549935     0.000000163838     0.000002370380
       7        0.000014712588     0.000001912744     0.000003546831
       8       -0.000001490891    -0.000000167039    -0.000001827738
       9        0.000836853742    -0.003032120280     0.001350285120
      10       -0.000003175342     0.000005326991    -0.000001736723
      11       -0.000593153823     0.002050122628    -0.000308496937
      12       -0.000259200024     0.001022558246    -0.003507218582
      13       -0.000001236313     0.000001601683    -0.000000482978
      14        0.000022030655    -0.000068630824     0.002458906567
      15       -0.000020610410     0.000017789911    -0.000001104782

  **** Optimization is complete! (in 7 steps) ****
    Final optimized geometry and variables:
    Molecular point group: c1

    Geometry (in Angstrom), charge = 0, multiplicity = 1:

    H            1.505729290746     0.928486937465     2.793987105608
    O            2.074704069687     0.969624168492     2.046214351352
    C            1.445370109818     0.588318301813     0.923108530891
    C            2.172738665440     0.608970348870    -0.258230542633
    C            0.122452549213     0.190919404449     0.914211564339
    H            3.196098741420     0.925642627263    -0.229524720031
    C            1.576891475625     0.229843551096    -1.438521574852
    H           -0.465185999495     0.181805524774     1.812000401840
    C           -0.428677638302    -0.193843410194    -0.286714288081
    H            2.145110873541     0.253843539339    -2.347780134037
    C            0.254094667999    -0.183216441298    -1.472449163819
    N           -1.838444604334    -0.597596802504    -0.288194645831
    H           -0.217765881602    -0.487141343194    -2.384494972864
    O           -2.066680286017    -1.758797833108    -0.315924439840
    O           -2.645285909378     0.267729694146    -0.241232059563

  Mulliken Charges: (a.u.)
   Center  Symbol    Alpha    Beta     Spin     Total
       1     H     0.38450  0.38450  0.00000  0.23099
       2     O     4.16724  4.16724  0.00000 -0.33448
       3     C     2.84108  2.84108  0.00000  0.31784
       4     C     3.10952  3.10952  0.00000 -0.21904
       5     C     3.13795  3.13795  0.00000 -0.27590
       6     H     0.41434  0.41434  0.00000  0.17133
       7     C     3.04830  3.04830  0.00000 -0.09659
       8     H     0.42349  0.42349  0.00000  0.15301
       9     C     2.91933  2.91933  0.00000  0.16135
      10     H     0.41630  0.41630  0.00000  0.16741
      11     C     3.10627  3.10627  0.00000 -0.21254
      12     N     3.29187  3.29187  0.00000  0.41626
      13     H     0.41496  0.41496  0.00000  0.17009
      14     O     4.16198  4.16198  0.00000 -0.32396
      15     O     4.16289  4.16289  0.00000 -0.32577

   Total alpha = 36.00000, Total beta = 36.00000, Total charge = -0.00000

*** Psi4 exiting successfully. Buy a developer a beer!
