  ==> Input File <==

--------------------------------------------------------------------------
set {
	reference rhf
	basis 6-31G*
}

set_num_threads( 1 )
memory 2 gb

molecule MOL {
0 1

H	 3.729471	 -0.928294	 -0.070608
O	 2.826016	 -1.159218	 0.122261
C	 2.077727	 -0.067559	 -0.035091
C	 0.624473	 -0.343591	 0.253101
O	 2.542965	 0.974826	 -0.363729
C	 -0.265902	 0.883932	 0.072916
H	 0.324016	 -1.163849	 -0.390541
H	 0.565024	 -0.726111	 1.268924
C	 -1.728698	 0.646073	 0.462102
H	 -0.209144	 1.219470	 -0.958188
H	 0.135059	 1.692851	 0.673903
C	 -2.003984	 0.641095	 1.968472
H	 -2.035306	 -0.312899	 0.050854
H	 -2.358521	 1.394451	 -0.016864
C	 -3.456130	 0.296670	 2.298806
H	 -1.344006	 -0.077194	 2.450692
H	 -1.766062	 1.611261	 2.396904
H	 -3.627144	 0.301013	 3.370743
H	 -3.719918	 -0.688569	 1.925244
H	 -4.140054	 1.012754	 1.851919

	symmetry c1
}
set optking {
	frozen_dihedral = ("
		16 12 9 6,
		7 4 6 10,
		5 3 4 7,
		1 2 3 5
	")
}

ee = energy('scf')
oeprop('DIPOLE', 'QUADRUPOLE', 'MULLIKEN_CHARGES')
f=open( 'psi4out.xyz', 'w' )
f.write( "20  " )
f.write( str(ee) + "\n" )
f.write( MOL.save_string_xyz() )
f.close()
--------------------------------------------------------------------------

    Molecular point group: c1

    Geometry (in Angstrom), charge = 0, multiplicity = 1:

       Center              X                  Y                   Z               Mass
    ------------   -----------------  -----------------  -----------------  -----------------
           H          3.606399534736    -1.144440443253    -0.665287561615     1.007825032070
           O          2.702944534736    -1.375364443253    -0.472418561615    15.994914619560
           C          1.954655534736    -0.283705443253    -0.629770561615    12.000000000000
           C          0.501401534736    -0.559737443253    -0.341578561615    12.000000000000
           O          2.419893534736     0.758679556747    -0.958408561615    15.994914619560
           C         -0.388973465264     0.667785556747    -0.521763561615    12.000000000000
           H          0.200944534736    -1.379995443253    -0.985220561615     1.007825032070
           H          0.441952534736    -0.942257443253     0.674244438385     1.007825032070
           C         -1.851769465264     0.429926556747    -0.132577561615    12.000000000000
           H         -0.332215465264     1.003323556747    -1.552867561615     1.007825032070
           H          0.011987534736     1.476704556747     0.079223438385     1.007825032070
           C         -2.127055465264     0.424948556747     1.373792438385    12.000000000000
           H         -2.158377465264    -0.529045443253    -0.543825561615     1.007825032070
           H         -2.481592465264     1.178304556747    -0.611543561615     1.007825032070
           C         -3.579201465264     0.080523556747     1.704126438385    12.000000000000
           H         -1.467077465264    -0.293340443253     1.856012438385     1.007825032070
           H         -1.889133465264     1.395114556747     1.802224438385     1.007825032070
           H         -3.750215465264     0.084866556747     2.776063438385     1.007825032070
           H         -3.842989465264    -0.904715443253     1.330564438385     1.007825032070
           H         -4.263125465264     0.796607556747     1.257239438385     1.007825032070

  Charge       = 0
  Multiplicity = 1
  Basis Set: 6-31G*
  Basis Set:

    Orbital Energies (a.u.)
    -----------------------

    Doubly Occupied:

       1A    -20.612694     2A    -20.551767     3A    -11.381404
       4A    -11.240809     5A    -11.222597     6A    -11.220611
       7A    -11.219943     8A    -11.212291     9A     -1.474758
      10A     -1.365793    11A     -1.096124    12A     -1.041417
      13A     -0.960986    14A     -0.868704    15A     -0.813972
      16A     -0.780079    17A     -0.699642    18A     -0.690263
      19A     -0.663422    20A     -0.634872    21A     -0.605208
      22A     -0.593252    23A     -0.574687    24A     -0.556549
      25A     -0.539774    26A     -0.510462    27A     -0.497420
      28A     -0.479512    29A     -0.470630    30A     -0.467680
      31A     -0.456525    32A     -0.443720

  @DF-RHF Final Energy:  -383.94783214992896

   => Energetics <=

    Nuclear Repulsion Energy =            375.7156735838537429
    One-Electron Energy =               -1267.4318953791121203
    Two-Electron Energy =                 507.7683896453288526
    DFT Exchange-Correlation Energy =       0.0000000000000000
    Empirical Dispersion Energy =           0.0000000000000000
    PCM Polarization Energy =               0.0000000000000000
    EFP Energy =                            0.0000000000000000
    Total Energy =                       -383.9478321499295816

  Mulliken Charges: (a.u.)
   Center  Symbol    Alpha    Beta     Spin     Total
       1     H     0.26782  0.26782  0.00000  0.46437
       2     O     4.35159  4.35159  0.00000 -0.70319
       3     C     2.62242  2.62242  0.00000  0.75517
       4     C     3.21255  3.21255  0.00000 -0.42510
       5     O     4.27908  4.27908  0.00000 -0.55816
       6     C     3.15488  3.15488  0.00000 -0.30977
       7     H     0.39818  0.39818  0.00000  0.20364
       8     H     0.39784  0.39784  0.00000  0.20431
       9     C     3.15611  3.15611  0.00000 -0.31222
      10     H     0.40974  0.40974  0.00000  0.18051
      11     H     0.41006  0.41006  0.00000  0.17988
      12     C     3.15364  3.15364  0.00000 -0.30727
      13     H     0.42478  0.42478  0.00000  0.15044
      14     H     0.41728  0.41728  0.00000  0.16544
      15     C     3.23949  3.23949  0.00000 -0.47897
      16     H     0.42421  0.42421  0.00000  0.15157
      17     H     0.41996  0.41996  0.00000  0.16007
      18     H     0.41826  0.41826  0.00000  0.16349
      19     H     0.42146  0.42146  0.00000  0.15709
      20     H     0.42064  0.42064  0.00000  0.15872

   Total alpha = 32.00000, Total beta = 32.00000, Total charge =  0.00000
