  ==> Input File <==

--------------------------------------------------------------------------
set {
	reference rhf
	basis 6-31G*
}

set_num_threads( 1 )
memory 2 gb

molecule MOL {
0 1

O	 -2.042549	 -1.228399	 -0.269030
C	 -1.653912	 -0.146171	 0.050137
C	 -0.332303	 0.024011	 0.778412
C	 -2.438579	 1.106236	 -0.272369
C	 -0.159886	 1.468844	 1.272987
H	 -0.267793	 -0.664007	 1.616775
H	 0.461512	 -0.217531	 0.080245
C	 1.174280	 1.691693	 1.986689
H	 -0.974581	 1.726609	 1.947459
H	 -0.237635	 2.137867	 0.421222
C	 1.352265	 3.129852	 2.471689
H	 1.249599	 1.012287	 2.832952
H	 1.987874	 1.433631	 1.312866
H	 0.571648	 3.406800	 3.174533
H	 1.314111	 3.830230	 1.642559
H	 2.307396	 3.259148	 2.970722
H	 -3.277823	 0.863061	 -0.908988
H	 -1.806773	 1.843019	 -0.759671
H	 -2.802853	 1.554979	 0.648059

	symmetry c1
}
set optking {
	frozen_dihedral = ("
		11 8 5 9,
		9 5 3 2
	")
}

ee = energy('scf')
oeprop('DIPOLE', 'QUADRUPOLE', 'MULLIKEN_CHARGES')
f=open( 'psi4out.xyz', 'w' )
f.write( "19  " )
f.write( str(ee) + "\n" )
f.write( MOL.save_string_xyz() )
f.close()
--------------------------------------------------------------------------

    Molecular point group: c1

    Geometry (in Angstrom), charge = 0, multiplicity = 1:

       Center              X                  Y                   Z               Mass
    ------------   -----------------  -----------------  -----------------  -----------------
           O         -1.454522463075    -2.107513141750    -1.130698411023    15.994914619560
           C         -1.065885463075    -1.025285141750    -0.811531411023    12.000000000000
           C          0.255723536925    -0.855103141750    -0.083256411023    12.000000000000
           C         -1.850552463075     0.227121858250    -1.134037411023    12.000000000000
           C          0.428140536925     0.589729858250     0.411318588977    12.000000000000
           H          0.320233536925    -1.543121141750     0.755106588977     1.007825032070
           H          1.049538536925    -1.096645141750    -0.781423411023     1.007825032070
           C          1.762306536925     0.812578858250     1.125020588977    12.000000000000
           H         -0.386554463075     0.847494858250     1.085790588977     1.007825032070
           H          0.350391536925     1.258752858250    -0.440446411023     1.007825032070
           C          1.940291536925     2.250737858250     1.610020588977    12.000000000000
           H          1.837625536925     0.133172858250     1.971283588977     1.007825032070
           H          2.575900536925     0.554516858250     0.451197588977     1.007825032070
           H          1.159674536925     2.527685858250     2.312864588977     1.007825032070
           H          1.902137536925     2.951115858250     0.780890588977     1.007825032070
           H          2.895422536925     2.380033858250     2.109053588977     1.007825032070
           H         -2.689796463075    -0.016053141750    -1.770656411023     1.007825032070
           H         -1.218746463075     0.963904858250    -1.621339411023     1.007825032070
           H         -2.214826463075     0.675864858250    -0.213609411023     1.007825032070

  Charge       = 0
  Multiplicity = 1
  Basis Set: 6-31G*
  Basis Set:

    Orbital Energies (a.u.)
    -----------------------

    Doubly Occupied:

       1A    -20.545807     2A    -11.325062     3A    -11.231530
       4A    -11.229714     5A    -11.227073     6A    -11.226215
       7A    -11.217066     8A     -1.391888     9A     -1.097866
      10A     -1.030991    11A     -0.979554    12A     -0.894687
      13A     -0.810150    14A     -0.732488    15A     -0.667241
      16A     -0.650017    17A     -0.628339    18A     -0.612126
      19A     -0.585331    20A     -0.571308    21A     -0.548623
      22A     -0.535110    23A     -0.530038    24A     -0.488229
      25A     -0.486119    26A     -0.479483    27A     -0.467890
      28A     -0.396100

  @DF-RHF Final Energy:  -309.05740200017061

   => Energetics <=

    Nuclear Repulsion Energy =            303.4720092114792465
    One-Electron Energy =               -1019.8865275271131168
    Two-Electron Energy =                 407.3571163154640544
    DFT Exchange-Correlation Energy =       0.0000000000000000
    Empirical Dispersion Energy =           0.0000000000000000
    PCM Polarization Energy =               0.0000000000000000
    EFP Energy =                            0.0000000000000000
    Total Energy =                       -309.0574020001697590

  Mulliken Charges: (a.u.)
   Center  Symbol    Alpha    Beta     Spin     Total
       1     O     4.26315  4.26315  0.00000 -0.52630
       2     C     2.73479  2.73479  0.00000  0.53041
       3     C     3.20155  3.20155  0.00000 -0.40309
       4     C     3.29590  3.29590  0.00000 -0.59180
       5     C     3.16724  3.16724  0.00000 -0.33448
       6     H     0.39899  0.39899  0.00000  0.20202
       7     H     0.40065  0.40065  0.00000  0.19869
       8     C     3.15019  3.15019  0.00000 -0.30038
       9     H     0.41940  0.41940  0.00000  0.16119
      10     H     0.41989  0.41989  0.00000  0.16022
      11     C     3.23971  3.23971  0.00000 -0.47942
      12     H     0.42055  0.42055  0.00000  0.15890
      13     H     0.42119  0.42119  0.00000  0.15763
      14     H     0.42094  0.42094  0.00000  0.15811
      15     H     0.42118  0.42118  0.00000  0.15764
      16     H     0.41690  0.41690  0.00000  0.16621
      17     H     0.39473  0.39473  0.00000  0.21054
      18     H     0.40793  0.40793  0.00000  0.18415
      19     H     0.40511  0.40511  0.00000  0.18978

   Total alpha = 28.00000, Total beta = 28.00000, Total charge =  0.00000
