                              Psi4 1.0.54 Driver

  ==> Input File <==

--------------------------------------------------------------------------
set {
	reference rhf
	basis cc-pvtz
}

set_num_threads( 4 )
memory 2 gb

molecule MOL {
0 1

H	 -3.871902	 -0.588572	 0.450087
O	 -3.515113	 -0.019339	 -0.206321
C	 -2.302264	 0.528872	 0.237390
C	 -1.175688	 -0.398187	 -0.171891
H	 -2.148018	 1.514076	 -0.197759
H	 -2.310727	 0.646384	 1.319032
C	 0.196029	 0.106276	 0.266738
H	 -1.201873	 -0.515469	 -1.250677
H	 -1.365975	 -1.378728	 0.252664
C	 1.330220	 -0.826136	 -0.155230
H	 0.359542	 1.097229	 -0.145561
H	 0.212134	 0.218135	 1.348778
C	 2.719700	 -0.407669	 0.328325
H	 1.339388	 -0.911200	 -1.239363
H	 1.119001	 -1.821953	 0.224128
C	 3.241564	 0.893452	 -0.276737
H	 3.418299	 -1.204729	 0.093035
H	 2.711776	 -0.323368	 1.411960
H	 3.254204	 0.841071	 -1.360784
H	 2.634460	 1.745075	 0.005842
H	 4.254264	 1.092401	 0.054971

	symmetry c1
}
set optking {
	frozen_dihedral = ("
		1 2 3 5
	")
}

ee,wfn = optimize('scf', return_wfn=True)
oeprop( wfn, 'DIPOLE', 'QUADRUPOLE', 'MULLIKEN_CHARGES')
f=open( 'psi4out.xyz', 'w' )
f.write( "21  " )
f.write( str(ee) + "\n" )
f.write( MOL.save_string_xyz() )
f.close()
--------------------------------------------------------------------------

    Molecular point group: c1
  Charge       = 0
  Multiplicity = 1
  Basis Set: CC-PVTZ
  Basis Set:
  @DF-RHF Final Energy:  -310.33084955050072
    Total Energy =                       -310.3308495505007158
    Molecular point group: c1
  Basis Set: CC-PVTZ
  Basis Set:
  Basis Set: CC-PVTZ
  Basis Set:
  @DF-RHF Final Energy:  -310.01593587036234
    Total Energy =                       -310.0159358703625685
  Basis Set: CC-PVTZ
  Basis Set:
  Basis Set: CC-PVTZ
  Basis Set:
  @DF-RHF Final Energy:  -310.17376521194086
    Total Energy =                       -310.1737652119405766
  Basis Set: CC-PVTZ
  Basis Set:
  Basis Set: CC-PVTZ
  Basis Set:
  @DF-RHF Final Energy:  -310.30290154976791
    Total Energy =                       -310.3029015497680234
  Basis Set: CC-PVTZ
  Basis Set:
  @DF-RHF Final Energy:  -310.32952173293546
    Total Energy =                       -310.3295217329351772
  Basis Set: CC-PVTZ
  Basis Set:
  @DF-RHF Final Energy:  -310.33179944256136
    Total Energy =                       -310.3317994425611914
  Basis Set: CC-PVTZ
  Basis Set:
  Basis Set: CC-PVTZ
  Basis Set:
  @DF-RHF Final Energy:  -310.33212896294981
    Total Energy =                       -310.3321289629498665
  Basis Set: CC-PVTZ
  Basis Set:
  Basis Set: CC-PVTZ
  Basis Set:
  @DF-RHF Final Energy:  -310.33214679941295
    Total Energy =                       -310.3321467994128966
  Basis Set: CC-PVTZ
  Basis Set:
  Charge       = 0
  Multiplicity = 1
  Basis Set: CC-PVTZ
  Basis Set:

    Orbital Energies (a.u.)
    -----------------------

    Doubly Occupied:

       1A    -20.544993     2A    -11.265156     3A    -11.214927
       4A    -11.214437     5A    -11.213099     6A    -11.211009
       7A    -11.206916     8A     -1.362737     9A     -1.088775
      10A     -1.034979    11A     -0.955866    12A     -0.878968
      13A     -0.815227    14A     -0.780183    15A     -0.700639
      16A     -0.648751    17A     -0.620322    18A     -0.608741
      19A     -0.592307    20A     -0.574669    21A     -0.542574
      22A     -0.530053    23A     -0.503095    24A     -0.495634
      25A     -0.474328    26A     -0.467640    27A     -0.461283
      28A     -0.457243    29A     -0.423004

  @DF-RHF Final Energy:  -310.33214703578074

   => Energetics <=

    Nuclear Repulsion Energy =            312.5634384831137140
    One-Electron Energy =               -1040.0160560418000841
    Two-Electron Energy =                 417.1204705229059186
    DFT Exchange-Correlation Energy =       0.0000000000000000
    Empirical Dispersion Energy =           0.0000000000000000
    PCM Polarization Energy =               0.0000000000000000
    EFP Energy =                            0.0000000000000000
    Total Energy =                       -310.3321470357804515
    Molecular point group: c1
  Basis Set: CC-PVTZ
  Basis Set:

  -Total Gradient:
     Atom            X                  Y                   Z
    ------   -----------------  -----------------  -----------------
       1       -0.000794268147     0.000580365120     0.001062569059
       2        0.000875877249    -0.000691316111    -0.001077208023
       3        0.000533568002     0.000297506718    -0.001032952244
       4       -0.000011073675    -0.000011889749     0.000016133879
       5       -0.000613233439    -0.000194886180     0.001043354512
       6        0.000000153905     0.000001968470     0.000015261467
       7       -0.000020981150     0.000001661929    -0.000039578955
       8        0.000004131517     0.000002648810    -0.000004516236
       9       -0.000001676077    -0.000010472127    -0.000009966460
      10        0.000004628363     0.000052482525     0.000012522915
      11       -0.000025912472    -0.000035379417    -0.000023083172
      12        0.000012301167     0.000003865930     0.000018396825
      13       -0.000034423310    -0.000002581865     0.000039632283
      14       -0.000018001774     0.000022820727    -0.000006136278
      15        0.000008153786    -0.000000014681    -0.000019512289
      16        0.000029601017    -0.000010289066     0.000008719928
      17        0.000017025806    -0.000020226977     0.000005402433
      18        0.000002285103     0.000004612516     0.000027554323
      19       -0.000006095655     0.000020175876    -0.000018671348
      20        0.000046711221    -0.000001207585    -0.000000435169
      21       -0.000008771440    -0.000009844865    -0.000017487453

  **** Optimization is complete! (in 9 steps) ****
    Final optimized geometry and variables:
    Molecular point group: c1

    Geometry (in Angstrom), charge = 0, multiplicity = 1:

    H           -3.723257774917    -1.436023025554    -0.186666791334
    O           -3.494146368155    -0.553179510454    -0.407976877411
    C           -2.348886591921    -0.156344328480     0.300622168972
    C           -1.065997574102    -0.488812209578    -0.442484696048
    H           -2.432362876073     0.913316945976     0.449921613004
    H           -2.336446653185    -0.609601945012     1.289124645769
    C            0.184624959000    -0.009476953492     0.289020071931
    H           -1.115942252227    -0.040191908792    -1.429611330313
    H           -1.014353925300    -1.564461900745    -0.593746955557
    C            1.473949636243    -0.336889626192    -0.462042313851
    H            0.111302358943     1.061731200837     0.449036583999
    H            0.223650546493    -0.464062471918     1.276845946352
    C            2.760409826122     0.045987935774     0.271514019398
    H            1.456530624029     0.152346808764    -1.433061319215
    H            1.496712136672    -1.404581686863    -0.662097827065
    C            2.970131497500     1.547518496074     0.451761974916
    H            3.602746485268    -0.358186221949    -0.281503839912
    H            2.776833984693    -0.439483578064     1.243896421861
    H            2.949498344571     2.060952996920    -0.504251825997
    H            2.208773552187     1.991406889527     1.081716067836
    H            3.930457320624     1.748485968772     0.912643360836

  Mulliken Charges: (a.u.)
   Center  Symbol    Alpha    Beta     Spin     Total
       1     H     0.39447  0.39447  0.00000  0.21106
       2     O     4.20224  4.20224  0.00000 -0.40448
       3     C     2.97362  2.97362  0.00000  0.05276
       4     C     3.08510  3.08510  0.00000 -0.17020
       5     H     0.45504  0.45504  0.00000  0.08993
       6     H     0.47129  0.47129  0.00000  0.05742
       7     C     3.10335  3.10335  0.00000 -0.20670
       8     H     0.44993  0.44993  0.00000  0.10014
       9     H     0.46078  0.46078  0.00000  0.07844
      10     C     3.09409  3.09409  0.00000 -0.18819
      11     H     0.45159  0.45159  0.00000  0.09682
      12     H     0.45582  0.45582  0.00000  0.08837
      13     C     3.08995  3.08995  0.00000 -0.17991
      14     H     0.45270  0.45270  0.00000  0.09459
      15     H     0.44946  0.44946  0.00000  0.10108
      16     C     3.15230  3.15230  0.00000 -0.30461
      17     H     0.44838  0.44838  0.00000  0.10325
      18     H     0.45511  0.45511  0.00000  0.08979
      19     H     0.45447  0.45447  0.00000  0.09106
      20     H     0.45393  0.45393  0.00000  0.09213
      21     H     0.44637  0.44637  0.00000  0.10726

   Total alpha = 29.00000, Total beta = 29.00000, Total charge = -0.00000

*** Psi4 exiting successfully. Buy a developer a beer!
