  ==> Input File <==

--------------------------------------------------------------------------
set {
	reference rhf
	basis 6-31G*
}

set_num_threads( 1 )
memory 2 gb

molecule MOL {
0 1

H	 1.953160	 -0.880155	 1.223130
C	 1.948321	 -0.221690	 0.346088
C	 0.692068	 0.589600	 0.160137
O	 2.890269	 -0.184526	 -0.377432
C	 -0.558097	 -0.297372	 0.091132
H	 0.803019	 1.186927	 -0.737287
H	 0.606467	 1.268113	 1.008148
C	 -1.850991	 0.512573	 -0.019058
H	 -0.476753	 -0.965681	 -0.762987
H	 -0.604799	 -0.930658	 0.975228
C	 -3.096943	 -0.368295	 -0.099594
H	 -1.800724	 1.150330	 -0.898172
H	 -1.931651	 1.177355	 0.838044
H	 -3.060452	 -1.020287	 -0.967456
H	 -3.996858	 0.233488	 -0.175704
H	 -3.191959	 -0.995686	 0.782074

	symmetry c1
}
set optking {
	frozen_dihedral = ("
		9 5 8 12,
		4 2 3 6
	")
}

ee = energy('scf')
oeprop('DIPOLE', 'QUADRUPOLE', 'MULLIKEN_CHARGES')
f=open( 'psi4out.xyz', 'w' )
f.write( "16  " )
f.write( str(ee) + "\n" )
f.write( MOL.save_string_xyz() )
f.close()
--------------------------------------------------------------------------

    Molecular point group: c1

    Geometry (in Angstrom), charge = 0, multiplicity = 1:

       Center              X                  Y                   Z               Mass
    ------------   -----------------  -----------------  -----------------  -----------------
           H          1.952581483994    -0.878433339183     1.211482459294     1.007825032070
           C          1.947742483994    -0.219968339183     0.334440459294    12.000000000000
           C          0.691489483994     0.591321660817     0.148489459294    12.000000000000
           O          2.889690483994    -0.182804339183    -0.389079540706    15.994914619560
           C         -0.558675516006    -0.295650339183     0.079484459294    12.000000000000
           H          0.802440483994     1.188648660817    -0.748934540706     1.007825032070
           H          0.605888483994     1.269834660817     0.996500459294     1.007825032070
           C         -1.851569516006     0.514294660817    -0.030705540706    12.000000000000
           H         -0.477331516006    -0.963959339183    -0.774634540706     1.007825032070
           H         -0.605377516006    -0.928936339183     0.963580459294     1.007825032070
           C         -3.097521516006    -0.366573339183    -0.111241540706    12.000000000000
           H         -1.801302516006     1.152051660817    -0.909819540706     1.007825032070
           H         -1.932229516006     1.179076660817     0.826396459294     1.007825032070
           H         -3.061030516006    -1.018565339183    -0.979103540706     1.007825032070
           H         -3.997436516006     0.235209660817    -0.187351540706     1.007825032070
           H         -3.192537516006    -0.993964339183     0.770426459294     1.007825032070

  Charge       = 0
  Multiplicity = 1
  Basis Set: 6-31G*
  Basis Set:

    Orbital Energies (a.u.)
    -----------------------

    Doubly Occupied:

       1A    -20.562516     2A    -11.326601     3A    -11.236664
       4A    -11.235293     5A    -11.229403     6A    -11.218526
       7A     -1.402306     8A     -1.096590     9A     -1.018937
      10A     -0.906002    11A     -0.812185    12A     -0.793637
      13A     -0.677937    14A     -0.647516    15A     -0.630262
      16A     -0.602950    17A     -0.581885    18A     -0.550613
      19A     -0.527941    20A     -0.508629    21A     -0.487933
      22A     -0.482018    23A     -0.478648    24A     -0.409072

  @DF-RHF Final Energy:  -270.01992392038505

   => Energetics <=

    Nuclear Repulsion Energy =            228.8172092725809819
    One-Electron Energy =                -818.8262334174451098
    Two-Electron Energy =                 319.9891002244791025
    DFT Exchange-Correlation Energy =       0.0000000000000000
    Empirical Dispersion Energy =           0.0000000000000000
    PCM Polarization Energy =               0.0000000000000000
    EFP Energy =                            0.0000000000000000
    Total Energy =                       -270.0199239203850539

  Mulliken Charges: (a.u.)
   Center  Symbol    Alpha    Beta     Spin     Total
       1     H     0.43206  0.43206  0.00000  0.13587
       2     C     2.82982  2.82982  0.00000  0.34035
       3     C     3.20799  3.20799  0.00000 -0.41599
       4     O     4.23710  4.23710  0.00000 -0.47420
       5     C     3.16436  3.16436  0.00000 -0.32872
       6     H     0.39924  0.39924  0.00000  0.20152
       7     H     0.40979  0.40979  0.00000  0.18041
       8     C     3.15156  3.15156  0.00000 -0.30311
       9     H     0.41274  0.41274  0.00000  0.17451
      10     H     0.41936  0.41936  0.00000  0.16128
      11     C     3.24048  3.24048  0.00000 -0.48096
      12     H     0.41836  0.41836  0.00000  0.16328
      13     H     0.42091  0.42091  0.00000  0.15819
      14     H     0.41927  0.41927  0.00000  0.16147
      15     H     0.41640  0.41640  0.00000  0.16721
      16     H     0.42055  0.42055  0.00000  0.15889

   Total alpha = 24.00000, Total beta = 24.00000, Total charge = -0.00000
