                              Psi4 1.0.54 Driver

  ==> Input File <==

--------------------------------------------------------------------------
set {
	reference rhf
	basis cc-pvtz
}

set_num_threads( 4 )
memory 2 gb

molecule MOL {
0 1

O	 3.219313	 0.959291	 -0.614106
C	 2.698710	 0.058177	 -0.050237
C	 1.246364	 -0.005813	 0.348416
O	 3.344101	 -1.038700	 0.312317
C	 0.453207	 1.232821	 -0.049003
H	 0.839270	 -0.907818	 -0.092281
H	 1.216683	 -0.160521	 1.422434
C	 -0.998367	 1.217982	 0.432195
H	 0.481498	 1.345443	 -1.127236
H	 0.951413	 2.105557	 0.354893
C	 -1.882951	 0.151251	 -0.211235
H	 -1.429490	 2.193659	 0.228843
H	 -1.019755	 1.099323	 1.513279
C	 -3.342450	 0.243269	 0.226009
H	 -1.826223	 0.246578	 -1.293162
H	 -1.508033	 -0.839650	 0.027695
C	 -4.234517	 -0.821434	 -0.405970
H	 -3.730149	 1.228245	 -0.022691
H	 -3.398860	 0.159952	 1.308941
C	 -5.398771	 -0.235566	 -1.197834
H	 -3.635209	 -1.449753	 -1.059243
H	 -4.621238	 -1.473918	 0.372212
H	 -6.011423	 -1.017085	 -1.632427
H	 -5.044074	 0.394570	 -2.006677
H	 -6.037259	 0.370998	 -0.564097
C	 4.720529	 -1.114346	 0.001449
H	 4.874321	 -1.055557	 -1.065852
H	 5.057824	 -2.067950	 0.373977
H	 5.264321	 -0.313596	 0.480350

	symmetry c1
}
set optking {
	frozen_dihedral = ("
		21 17 14 11
	")
}

ee,wfn = optimize('scf', return_wfn=True)
oeprop( wfn, 'DIPOLE', 'QUADRUPOLE', 'MULLIKEN_CHARGES')
f=open( 'psi4out.xyz', 'w' )
f.write( "29  " )
f.write( str(ee) + "\n" )
f.write( MOL.save_string_xyz() )
f.close()
--------------------------------------------------------------------------

    Molecular point group: c1
  Charge       = 0
  Multiplicity = 1
  Basis Set: CC-PVTZ
  Basis Set:
  @DF-RHF Final Energy:  -501.21909279342867
    Total Energy =                       -501.2190927934285583
    Molecular point group: c1
  Basis Set: CC-PVTZ
  Basis Set:
  Basis Set: CC-PVTZ
  Basis Set:
  @DF-RHF Final Energy:  -501.21933036188182
    Total Energy =                       -501.2193303618818163
  Basis Set: CC-PVTZ
  Basis Set:
  Basis Set: CC-PVTZ
  Basis Set:
  @DF-RHF Final Energy:  -501.21938634230185
    Total Energy =                       -501.2193863423016182
  Basis Set: CC-PVTZ
  Basis Set:
  Basis Set: CC-PVTZ
  Basis Set:
  @DF-RHF Final Energy:  -501.21918166569776
    Total Energy =                       -501.2191816656984429
  Basis Set: CC-PVTZ
  Basis Set:
  Basis Set: CC-PVTZ
  Basis Set:
  @DF-RHF Final Energy:  -501.21939578158913
    Total Energy =                       -501.2193957815895828
  Basis Set: CC-PVTZ
  Basis Set:
  Charge       = 0
  Multiplicity = 1
  Basis Set: CC-PVTZ
  Basis Set:

    Orbital Energies (a.u.)
    -----------------------

    Doubly Occupied:

       1A    -20.596027     2A    -20.533878     3A    -11.364285
       4A    -11.278273     5A    -11.232969     6A    -11.217113
       7A    -11.215372     8A    -11.214200     9A    -11.213601
      10A    -11.212047    11A    -11.207505    12A     -1.471903
      13A     -1.365515    14A     -1.098700    15A     -1.066216
      16A     -1.020013    17A     -0.978015    18A     -0.928875
      19A     -0.862983    20A     -0.801193    21A     -0.790290
      22A     -0.765884    23A     -0.702857    24A     -0.685498
      25A     -0.676080    26A     -0.643422    27A     -0.632099
      28A     -0.603794    29A     -0.601702    30A     -0.582711
      31A     -0.565681    32A     -0.554187    33A     -0.532920
      34A     -0.524063    35A     -0.519206    36A     -0.516546
      37A     -0.496862    38A     -0.477178    39A     -0.473427
      40A     -0.461006    41A     -0.458205    42A     -0.455538
      43A     -0.443152    44A     -0.436625

  @DF-RHF Final Energy:  -501.21939538886329

   => Energetics <=

    Nuclear Repulsion Energy =            612.0768868973090093
    One-Electron Energy =               -1895.6373330018950583
    Two-Electron Energy =                 782.3410507157212805
    DFT Exchange-Correlation Energy =       0.0000000000000000
    Empirical Dispersion Energy =           0.0000000000000000
    PCM Polarization Energy =               0.0000000000000000
    EFP Energy =                            0.0000000000000000
    Total Energy =                       -501.2193953888646547
    Molecular point group: c1
  Basis Set: CC-PVTZ
  Basis Set:

  -Total Gradient:
     Atom            X                  Y                   Z
    ------   -----------------  -----------------  -----------------
       1       -0.000028038661     0.000058492266    -0.000002986575
       2        0.000012776229    -0.000017329103    -0.000034723127
       3        0.000029489597    -0.000006887166     0.000010203343
       4       -0.000014376530    -0.000049767130     0.000038036941
       5       -0.000002337896     0.000009586147    -0.000037751447
       6        0.000031148780     0.000017133090     0.000004781079
       7        0.000004630184    -0.000001422064     0.000004123943
       8       -0.000018148029     0.000002028483    -0.000013748813
       9        0.000006583953    -0.000003665838    -0.000002499367
      10        0.000006918397     0.000003649029    -0.000007916719
      11       -0.000094916850     0.000258082076    -0.000337320675
      12       -0.000001248804     0.000015260699     0.000018614807
      13        0.000002428680    -0.000018197183    -0.000009336375
      14        0.000157686256    -0.000560079163     0.000659833868
      15        0.000007531292    -0.000027746177    -0.000003820966
      16       -0.000022239390     0.000021165811     0.000017881969
      17       -0.000196850824     0.000694451452    -0.000830648619
      18       -0.000014466368     0.000005267644     0.000007141045
      19        0.000002433546    -0.000019504410    -0.000008234866
      20       -0.000018511846     0.000013741239    -0.000001253169
      21        0.000139540461    -0.000416323847     0.000519653834
      22        0.000013914093     0.000015944632     0.000006078886
      23        0.000005023077    -0.000009509120     0.000003850282
      24        0.000002173604     0.000001188740     0.000003940197
      25       -0.000000291002     0.000001843999    -0.000003073778
      26       -0.000001953636     0.000021955683    -0.000008124922
      27        0.000001105124    -0.000002374270     0.000003166456
      28       -0.000012995861    -0.000002358821     0.000004861086
      29        0.000002992443    -0.000004626701    -0.000000728313

  **** Optimization is complete! (in 6 steps) ****
    Final optimized geometry and variables:
    Molecular point group: c1

    Geometry (in Angstrom), charge = 0, multiplicity = 1:

    O            3.187499477620     0.929620419340    -0.502279375469
    C            2.675296194834     0.030168457229     0.071872850086
    C            1.223806774538    -0.042327707769     0.472177526610
    O            3.330569549364    -1.056955837848     0.445961055488
    C            0.419845094163     1.185524935444     0.063081381836
    H            0.824233568919    -0.952109568293     0.040657672236
    H            1.196042772273    -0.186741781400     1.547666830737
    C           -1.031437156379     1.163050188528     0.545270315551
    H            0.446717849155     1.287937083442    -1.016204065423
    H            0.910846531188     2.066356454041     0.458147973831
    C           -1.908658836351     0.086823753277    -0.091088325717
    H           -1.469706116575     2.134513165191     0.336695707811
    H           -1.051506053154     1.050563950849     1.627087484900
    C           -3.371126807981     0.174237836643     0.341418535185
    H           -1.852185375174     0.173105554106    -1.174048427149
    H           -1.529812075224    -0.900734511805     0.155702280849
    C           -4.273375673686    -0.896664778472    -0.305838849260
    H           -3.747521685279     1.162581056844     0.094189334565
    H           -3.424506724982     0.098882326307     1.422964261036
    C           -5.441467330032    -0.314850584230    -1.096433835078
    H           -3.678875697070    -1.523945601979    -0.962541407125
    H           -4.662540412163    -1.559916065535     0.459296863870
    H           -6.047422231130    -1.098096452233    -1.537878451437
    H           -5.088840056236     0.324430064019    -1.899306948136
    H           -6.084797908322     0.282808255007    -0.459263261049
    C            4.707404788466    -1.123897727438     0.134889968257
    H            4.859982990013    -1.075446538016    -0.933104235811
    H            5.053290896063    -2.070391132386     0.517559172382
    H            5.244497182919    -0.313246357355     0.604607708931

  Mulliken Charges: (a.u.)
   Center  Symbol    Alpha    Beta     Spin     Total
       1     O     4.19698  4.19698  0.00000 -0.39397
       2     C     2.80481  2.80481  0.00000  0.39038
       3     C     3.10161  3.10161  0.00000 -0.20321
       4     O     4.14720  4.14720  0.00000 -0.29440
       5     C     3.09250  3.09250  0.00000 -0.18501
       6     H     0.43910  0.43910  0.00000  0.12179
       7     H     0.43992  0.43992  0.00000  0.12017
       8     C     3.10483  3.10483  0.00000 -0.20967
       9     H     0.44627  0.44627  0.00000  0.10746
      10     H     0.43964  0.43964  0.00000  0.12073
      11     C     3.09365  3.09365  0.00000 -0.18731
      12     H     0.44481  0.44481  0.00000  0.11038
      13     H     0.45376  0.45376  0.00000  0.09247
      14     C     3.09407  3.09407  0.00000 -0.18814
      15     H     0.45250  0.45250  0.00000  0.09500
      16     H     0.45265  0.45265  0.00000  0.09469
      17     C     3.08878  3.08878  0.00000 -0.17757
      18     H     0.45331  0.45331  0.00000  0.09337
      19     H     0.44989  0.44989  0.00000  0.10022
      20     C     3.14709  3.14709  0.00000 -0.29418
      21     H     0.45484  0.45484  0.00000  0.09031
      22     H     0.45036  0.45036  0.00000  0.09929
      23     H     0.44963  0.44963  0.00000  0.10074
      24     H     0.45535  0.45535  0.00000  0.08930
      25     H     0.45446  0.45446  0.00000  0.09109
      26     C     3.03810  3.03810  0.00000 -0.07620
      27     H     0.45436  0.45436  0.00000  0.09129
      28     H     0.44528  0.44528  0.00000  0.10945
      29     H     0.45423  0.45423  0.00000  0.09153

   Total alpha = 44.00000, Total beta = 44.00000, Total charge =  0.00000

*** Psi4 exiting successfully. Buy a developer a beer!
