                              Psi4 1.0.54 Driver

  ==> Input File <==

--------------------------------------------------------------------------
set {
	reference rhf
	basis cc-pvtz
}

set_num_threads( 4 )
memory 2 gb

molecule MOL {
0 1

O	 -1.587036	 0.152864	 2.550730
C	 -0.703159	 0.837720	 2.149277
C	 0.561413	 0.227212	 1.578149
C	 -0.798059	 2.344840	 2.168024
C	 0.376695	 -0.140025	 0.100361
H	 0.781237	 -0.665672	 2.149591
H	 1.393333	 0.915051	 1.686101
C	 1.630207	 -0.772146	 -0.501001
H	 -0.464745	 -0.816743	 0.021246
H	 0.117839	 0.749558	 -0.468791
C	 2.907848	 -0.545876	 0.309149
H	 1.772784	 -0.391628	 -1.509394
H	 1.468529	 -1.842059	 -0.599744
C	 3.373802	 0.906639	 0.372125
H	 3.699140	 -1.146831	 -0.127906
H	 2.764321	 -0.923458	 1.318191
H	 3.519798	 1.311927	 -0.623875
H	 4.316899	 0.983758	 0.900700
H	 2.661122	 1.540651	 0.885346
H	 -0.079639	 2.738692	 2.879889
H	 -1.792699	 2.651458	 2.453059
H	 -0.545514	 2.756533	 1.197292

	symmetry c1
}
set optking {
	frozen_dihedral = ("
		3 5 8 12
	")
}

ee,wfn = optimize('scf', return_wfn=True)
oeprop( wfn, 'DIPOLE', 'QUADRUPOLE', 'MULLIKEN_CHARGES')
f=open( 'psi4out.xyz', 'w' )
f.write( "22  " )
f.write( str(ee) + "\n" )
f.write( MOL.save_string_xyz() )
f.close()
--------------------------------------------------------------------------

    Molecular point group: c1
  Charge       = 0
  Multiplicity = 1
  Basis Set: CC-PVTZ
  Basis Set:
  @DF-RHF Final Energy:  -348.20488998738801
    Total Energy =                       -348.2048899873884693
    Molecular point group: c1
  Basis Set: CC-PVTZ
  Basis Set:
  Basis Set: CC-PVTZ
  Basis Set:
  @DF-RHF Final Energy:  -348.21253005961648
    Total Energy =                       -348.2125300596164834
  Basis Set: CC-PVTZ
  Basis Set:
  Basis Set: CC-PVTZ
  Basis Set:
  @DF-RHF Final Energy:  -348.21366040689793
    Total Energy =                       -348.2136604068982138
  Basis Set: CC-PVTZ
  Basis Set:
  Basis Set: CC-PVTZ
  Basis Set:
  @DF-RHF Final Energy:  -348.21402323841539
    Total Energy =                       -348.2140232384152796
  Basis Set: CC-PVTZ
  Basis Set:
  @DF-RHF Final Energy:  -348.21194646533212
    Total Energy =                       -348.2119464653325736
  @DF-RHF Final Energy:  -348.21422223414260
    Total Energy =                       -348.2142222341426532
  @DF-RHF Final Energy:  -348.21424327887763
    Total Energy =                       -348.2142432788774045
  Basis Set: CC-PVTZ
  Basis Set:
  @DF-RHF Final Energy:  -348.21425208145536
    Total Energy =                       -348.2142520814556406
  Basis Set: CC-PVTZ
  Basis Set:
  Basis Set: CC-PVTZ
  Basis Set:
  @DF-RHF Final Energy:  -348.21425907347589
    Total Energy =                       -348.2142590734756027
  Basis Set: CC-PVTZ
  Basis Set:
  Basis Set: CC-PVTZ
  Basis Set:
  @DF-RHF Final Energy:  -348.21426047437598
    Total Energy =                       -348.2142604743761467
  Basis Set: CC-PVTZ
  Basis Set:
  Charge       = 0
  Multiplicity = 1
  Basis Set: CC-PVTZ
  Basis Set:

    Orbital Energies (a.u.)
    -----------------------

    Doubly Occupied:

       1A    -20.536587     2A    -11.319210     3A    -11.228826
       4A    -11.227218     5A    -11.226973     6A    -11.221352
       7A    -11.220198     8A    -11.214162     9A     -1.396850
      10A     -1.095179    11A     -1.043911    12A     -0.999440
      13A     -0.944477    14A     -0.863541    15A     -0.780414
      16A     -0.734944    17A     -0.664293    18A     -0.655878
      19A     -0.623505    20A     -0.613939    21A     -0.606305
      22A     -0.579863    23A     -0.562905    24A     -0.551303
      25A     -0.536078    26A     -0.522065    27A     -0.509731
      28A     -0.493054    29A     -0.467038    30A     -0.459687
      31A     -0.456334    32A     -0.399342

  @DF-RHF Final Energy:  -348.21426064114945

   => Energetics <=

    Nuclear Repulsion Energy =            380.7647945062041686
    One-Electron Energy =               -1226.4489092615140180
    Two-Electron Energy =                 497.4698541141606256
    DFT Exchange-Correlation Energy =       0.0000000000000000
    Empirical Dispersion Energy =           0.0000000000000000
    PCM Polarization Energy =               0.0000000000000000
    EFP Energy =                            0.0000000000000000
    Total Energy =                       -348.2142606411491670
    Molecular point group: c1
  Basis Set: CC-PVTZ
  Basis Set:

  -Total Gradient:
     Atom            X                  Y                   Z
    ------   -----------------  -----------------  -----------------
       1        0.000004686443     0.000009334462     0.000004739823
       2        0.000004529181    -0.000006469439    -0.000009745965
       3        0.001737369322     0.004946140617    -0.001084134094
       4       -0.000007994730    -0.000000121537    -0.000007243054
       5       -0.001659355360    -0.006037758661     0.002217145266
       6        0.000005568290     0.000005253636    -0.000003100599
       7        0.000003541485    -0.000000831391    -0.000003409013
       8       -0.003992737472    -0.004077913742    -0.004058994613
       9        0.000003969155    -0.000002010227     0.000000122867
      10       -0.000003571759    -0.000001293534    -0.000001544593
      11        0.000004896928    -0.000007580095    -0.000009723570
      12        0.003923843594     0.005181107566     0.002928393887
      13        0.000020396042     0.000000579571     0.000002375166
      14       -0.000021656550    -0.000019460744    -0.000001141122
      15       -0.000022810450     0.000008488951     0.000013839638
      16        0.000004798231     0.000023106365    -0.000024811920
      17       -0.000014744985    -0.000017846673     0.000013856381
      18        0.000021503336    -0.000002445277     0.000011616312
      19       -0.000012322957    -0.000000757770     0.000000126722
      20        0.000001135161     0.000000370619     0.000005340232
      21        0.000001246636     0.000002423172     0.000000055592
      22       -0.000002289542    -0.000002315869     0.000006236655

  **** Optimization is complete! (in 11 steps) ****
    Final optimized geometry and variables:
    Molecular point group: c1

    Geometry (in Angstrom), charge = 0, multiplicity = 1:

    O           -2.432329386194    -0.381075951769     1.377592995442
    C           -1.552359735081     0.361981077553     1.086832253155
    C           -0.214618318480    -0.160277788165     0.598816438805
    C           -1.720493602760     1.860358271141     1.174480421624
    C           -0.288660858059    -0.465319806450    -0.904941183193
    H           -0.001314193236    -1.063519711939     1.156273416331
    H            0.562312670159     0.561650482910     0.808622968857
    C            0.983604883640    -1.056061701245    -1.562623268927
    H           -1.116642790285    -1.142030436514    -1.071215292739
    H           -0.549890800885     0.455896781271    -1.417461864127
    C            2.321166104282    -0.848406234879    -0.839120732982
    H            1.102584403609    -0.594456701103    -2.537372867787
    H            0.838117274543    -2.118116769860    -1.716814572492
    C            2.877279792136     0.569877987259    -0.952363967538
    H            3.042963426979    -1.529648383225    -1.278175533985
    H            2.242976071738    -1.134434918555     0.203608507507
    H            3.061939670646     0.826457298924    -1.990222351345
    H            3.816044566029     0.663650374783    -0.418446125464
    H            2.197694544332     1.313089254471    -0.551946683132
    H           -1.087785177469     2.243577429253     1.968793554863
    H           -2.749873507315     2.107482457118     1.383843757770
    H           -1.403150318403     2.336958103255     0.253813800702

  Mulliken Charges: (a.u.)
   Center  Symbol    Alpha    Beta     Spin     Total
       1     O     4.17753  4.17753  0.00000 -0.35507
       2     C     2.85665  2.85665  0.00000  0.28670
       3     C     3.10643  3.10643  0.00000 -0.21286
       4     C     3.15748  3.15748  0.00000 -0.31497
       5     C     3.11263  3.11263  0.00000 -0.22525
       6     H     0.43736  0.43736  0.00000  0.12528
       7     H     0.44385  0.44385  0.00000  0.11230
       8     C     3.09790  3.09790  0.00000 -0.19580
       9     H     0.43396  0.43396  0.00000  0.13207
      10     H     0.44883  0.44883  0.00000  0.10234
      11     C     3.10199  3.10199  0.00000 -0.20398
      12     H     0.45116  0.45116  0.00000  0.09769
      13     H     0.44201  0.44201  0.00000  0.11597
      14     C     3.14926  3.14926  0.00000 -0.29852
      15     H     0.44178  0.44178  0.00000  0.11644
      16     H     0.45006  0.45006  0.00000  0.09989
      17     H     0.45242  0.45242  0.00000  0.09515
      18     H     0.44628  0.44628  0.00000  0.10744
      19     H     0.45823  0.45823  0.00000  0.08355
      20     H     0.44836  0.44836  0.00000  0.10328
      21     H     0.43550  0.43550  0.00000  0.12900
      22     H     0.45032  0.45032  0.00000  0.09936

   Total alpha = 32.00000, Total beta = 32.00000, Total charge =  0.00000

*** Psi4 exiting successfully. Buy a developer a beer!
