  ==> Input File <==

--------------------------------------------------------------------------
set {
	reference rhf
	basis 6-31G*
}

set_num_threads( 1 )
memory 2 gb

molecule MOL {
0 1

O	 3.091343	 1.150358	 0.212171
C	 2.701189	 0.057885	 -0.047330
C	 1.435612	 -0.268513	 -0.802691
O	 3.347903	 -1.046386	 0.304773
C	 0.661497	 0.972788	 -1.240905
H	 1.719401	 -0.889659	 -1.645800
H	 0.829194	 -0.900721	 -0.159055
C	 -0.677590	 0.658422	 -1.916563
H	 1.280560	 1.564279	 -1.908751
H	 0.482692	 1.594042	 -0.369989
C	 -0.567346	 -0.058446	 -3.265287
H	 -1.208769	 1.595903	 -2.063883
H	 -1.293762	 0.065769	 -1.241949
C	 -1.922375	 -0.250848	 -3.949304
H	 0.088575	 0.512124	 -3.921058
H	 -0.098445	 -1.031185	 -3.135353
C	 -1.824984	 -0.970836	 -5.295507
H	 -2.392787	 0.720056	 -4.095224
H	 -2.582296	 -0.812108	 -3.289613
C	 -3.182012	 -1.155570	 -5.973777
H	 -1.165105	 -0.411845	 -5.955606
H	 -1.358985	 -1.943334	 -5.151033
H	 -3.080149	 -1.668610	 -6.925102
H	 -3.658832	 -0.198121	 -6.163856
H	 -3.854320	 -1.740887	 -5.352745
C	 4.728119	 -1.109107	 -0.004993
H	 4.882018	 -1.033965	 -1.071845
H	 5.068212	 -2.067527	 0.355250
H	 5.265056	 -0.311663	 0.488280

	symmetry c1
}
set optking {
	frozen_dihedral = ("
		21 17 14 11,
		17 14 11 15,
		15 11 8 5,
		6 3 5 9,
		11 8 5 9,
		2 4 26 27,
		6 3 2 1
	")
}

ee = energy('scf')
oeprop('DIPOLE', 'QUADRUPOLE', 'MULLIKEN_CHARGES')
f=open( 'psi4out.xyz', 'w' )
f.write( "29  " )
f.write( str(ee) + "\n" )
f.write( MOL.save_string_xyz() )
f.close()
--------------------------------------------------------------------------

    Molecular point group: c1

    Geometry (in Angstrom), charge = 0, multiplicity = 1:

       Center              X                  Y                   Z               Mass
    ------------   -----------------  -----------------  -----------------  -----------------
           O          2.344275228232     1.345383854932     2.195966745703    15.994914619560
           C          1.954121228232     0.252910854932     1.936465745703    12.000000000000
           C          0.688544228232    -0.073487145068     1.181104745703    12.000000000000
           O          2.600835228232    -0.851360145068     2.288568745703    15.994914619560
           C         -0.085570771768     1.167813854932     0.742890745703    12.000000000000
           H          0.972333228232    -0.694633145068     0.337995745703     1.007825032070
           H          0.082126228232    -0.705695145068     1.824740745703     1.007825032070
           C         -1.424657771768     0.853447854932     0.067232745703    12.000000000000
           H          0.533492228232     1.759304854932     0.075044745703     1.007825032070
           H         -0.264375771768     1.789067854932     1.613806745703     1.007825032070
           C         -1.314413771768     0.136579854932    -1.281491254297    12.000000000000
           H         -1.955836771768     1.790928854932    -0.080087254297     1.007825032070
           H         -2.040829771768     0.260794854932     0.741846745703     1.007825032070
           C         -2.669442771768    -0.055822145068    -1.965508254297    12.000000000000
           H         -0.658492771768     0.707149854932    -1.937262254297     1.007825032070
           H         -0.845512771768    -0.836159145068    -1.151557254297     1.007825032070
           C         -2.572051771768    -0.775810145068    -3.311711254297    12.000000000000
           H         -3.139854771768     0.915081854932    -2.111428254297     1.007825032070
           H         -3.329363771768    -0.617082145068    -1.305817254297     1.007825032070
           C         -3.929079771768    -0.960544145068    -3.989981254297    12.000000000000
           H         -1.912172771768    -0.216819145068    -3.971810254297     1.007825032070
           H         -2.106052771768    -1.748308145068    -3.167237254297     1.007825032070
           H         -3.827216771768    -1.473584145068    -4.941306254297     1.007825032070
           H         -4.405899771768    -0.003095145068    -4.180060254297     1.007825032070
           H         -4.601387771768    -1.545861145068    -3.368949254297     1.007825032070
           C          3.981051228232    -0.914081145068     1.978802745703    12.000000000000
           H          4.134950228232    -0.838939145068     0.911950745703     1.007825032070
           H          4.321144228232    -1.872501145068     2.339045745703     1.007825032070
           H          4.517988228232    -0.116637145068     2.472075745703     1.007825032070

  Charge       = 0
  Multiplicity = 1
  Basis Set: 6-31G*
  Basis Set:

    Orbital Energies (a.u.)
    -----------------------

    Doubly Occupied:

       1A    -20.592701     2A    -20.549919     3A    -11.372795
       4A    -11.287061     5A    -11.235104     6A    -11.219066
       7A    -11.217904     8A    -11.216831     9A    -11.216649
      10A    -11.215169    11A    -11.209705    12A     -1.465832
      13A     -1.363894    14A     -1.098407    15A     -1.066756
      16A     -1.018229    17A     -0.978349    18A     -0.932151
      19A     -0.863496    20A     -0.800427    21A     -0.791436
      22A     -0.764223    23A     -0.700193    24A     -0.680572
      25A     -0.671438    26A     -0.652185    27A     -0.627705
      28A     -0.610766    29A     -0.596649    30A     -0.584892
      31A     -0.568807    32A     -0.547455    33A     -0.540235
      34A     -0.530251    35A     -0.515660    36A     -0.503830
      37A     -0.500150    38A     -0.478739    39A     -0.471277
      40A     -0.462985    41A     -0.462530    42A     -0.450959
      43A     -0.441200    44A     -0.432507

  @DF-RHF Final Energy:  -501.03217135236275

   => Energetics <=

    Nuclear Repulsion Energy =            611.5384531579246641
    One-Electron Energy =               -1894.1273964466392954
    Two-Electron Energy =                 781.5567719363492643
    DFT Exchange-Correlation Energy =       0.0000000000000000
    Empirical Dispersion Energy =           0.0000000000000000
    PCM Polarization Energy =               0.0000000000000000
    EFP Energy =                            0.0000000000000000
    Total Energy =                       -501.0321713523654807

  Mulliken Charges: (a.u.)
   Center  Symbol    Alpha    Beta     Spin     Total
       1     O     4.27306  4.27306  0.00000 -0.54611
       2     C     2.60623  2.60623  0.00000  0.78754
       3     C     3.21153  3.21153  0.00000 -0.42307
       4     O     4.31059  4.31059  0.00000 -0.62119
       5     C     3.15478  3.15478  0.00000 -0.30956
       6     H     0.40304  0.40304  0.00000  0.19393
       7     H     0.39980  0.39980  0.00000  0.20041
       8     C     3.15638  3.15638  0.00000 -0.31276
       9     H     0.41413  0.41413  0.00000  0.17174
      10     H     0.40799  0.40799  0.00000  0.18401
      11     C     3.15498  3.15498  0.00000 -0.30995
      12     H     0.41828  0.41828  0.00000  0.16343
      13     H     0.42356  0.42356  0.00000  0.15287
      14     C     3.15028  3.15028  0.00000 -0.30056
      15     H     0.42306  0.42306  0.00000  0.15388
      16     H     0.42414  0.42414  0.00000  0.15172
      17     C     3.15144  3.15144  0.00000 -0.30288
      18     H     0.42314  0.42314  0.00000  0.15371
      19     H     0.42375  0.42375  0.00000  0.15249
      20     C     3.23936  3.23936  0.00000 -0.47872
      21     H     0.42296  0.42296  0.00000  0.15407
      22     H     0.42364  0.42364  0.00000  0.15271
      23     H     0.41924  0.41924  0.00000  0.16152
      24     H     0.42143  0.42143  0.00000  0.15713
      25     H     0.42170  0.42170  0.00000  0.15661
      26     C     3.09505  3.09505  0.00000 -0.19011
      27     H     0.41832  0.41832  0.00000  0.16337
      28     H     0.40553  0.40553  0.00000  0.18894
      29     H     0.40259  0.40259  0.00000  0.19483

   Total alpha = 44.00000, Total beta = 44.00000, Total charge = -0.00000
