  ==> Input File <==

--------------------------------------------------------------------------
set {
	reference rhf
	basis 6-31G*
}

set_num_threads( 4 )
memory 2 gb

molecule MOL {
0 1

O	 0.625848	 1.349995	 -0.000749
C	 0.486307	 0.169203	 0.000779
C	 1.608116	 -0.841643	 0.000302
O	 -0.698257	 -0.426125	 0.001050
C	 2.990107	 -0.200498	 -0.000684
H	 1.468623	 -1.481519	 -0.865924
H	 1.469683	 -1.481289	 0.866878
H	 3.129736	 0.423364	 -0.875135
H	 3.757882	 -0.966877	 -0.001197
H	 3.130964	 0.423383	 0.873533
C	 -1.002191	 -1.285840	 1.094629
C	 -2.394414	 -1.835389	 0.866545
H	 -0.941276	 -0.720799	 2.014739
H	 -0.263400	 -2.074379	 1.139166
H	 -3.121754	 -1.032975	 0.818939
H	 -2.667670	 -2.498810	 1.680703
H	 -2.440264	 -2.394043	 -0.061388

	symmetry c1
}
set optking {
	frozen_dihedral = ("
		11 4 2 3
	")
}

ee = optimize('scf')
oeprop('DIPOLE', 'QUADRUPOLE', 'MULLIKEN_CHARGES')
f=open( 'psi4out.xyz', 'w' )
f.write( "17  " )
f.write( str(ee) + "\n" )
f.write( MOL.save_string_xyz() )
f.close()
--------------------------------------------------------------------------

    Molecular point group: c1
  Charge       = 0
  Multiplicity = 1
  Basis Set: 6-31G*
  Basis Set:
  @DF-RHF Final Energy:  -344.88711131724517
    Total Energy =                       -344.8871113172452283
    Molecular point group: c1
  Basis Set: 6-31G*
  Basis Set:
  Basis Set: 6-31G*
  Basis Set:
  @DF-RHF Final Energy:  -344.88945537260742
    Total Energy =                       -344.8894553726073582
  Basis Set: 6-31G*
  Basis Set:
  Basis Set: 6-31G*
  Basis Set:
  @DF-RHF Final Energy:  -344.89206534682165
    Total Energy =                       -344.8920653468214823
  Basis Set: 6-31G*
  Basis Set:
  Basis Set: 6-31G*
  Basis Set:
  @DF-RHF Final Energy:  -344.89235632939034
    Total Energy =                       -344.8923563293901680
  Basis Set: 6-31G*
  Basis Set:
  @DF-RHF Final Energy:  -344.89235337501549
    Total Energy =                       -344.8923533750156594
  Basis Set: 6-31G*
  Basis Set:
  @DF-RHF Final Energy:  -344.89249124922844
    Total Energy =                       -344.8924912492286694
  Basis Set: 6-31G*
  Basis Set:
  Basis Set: 6-31G*
  Basis Set:
  @DF-RHF Final Energy:  -344.89249491086122
    Total Energy =                       -344.8924949108616147
  Basis Set: 6-31G*
  Basis Set:
  Basis Set: 6-31G*
  Basis Set:
  @DF-RHF Final Energy:  -344.89249601401417
    Total Energy =                       -344.8924960140137728
  Basis Set: 6-31G*
  Basis Set:
  Charge       = 0
  Multiplicity = 1
  Basis Set: 6-31G*
  Basis Set:

    Orbital Energies (a.u.)
    -----------------------

    Doubly Occupied:

       1A    -20.587618     2A    -20.550927     3A    -11.373381
       4A    -11.298651     5A    -11.244091     6A    -11.225791
       7A    -11.219451     8A     -1.457825     9A     -1.366457
      10A     -1.063727    11A     -1.041493    12A     -0.901498
      13A     -0.873429    14A     -0.770206    15A     -0.702409
      16A     -0.687598    17A     -0.655030    18A     -0.638607
      19A     -0.600732    20A     -0.562881    21A     -0.559437
      22A     -0.537148    23A     -0.526934    24A     -0.517867
      25A     -0.509027    26A     -0.485723    27A     -0.450881
      28A     -0.433309

  @DF-RHF Final Energy:  -344.89249624671515

   => Energetics <=

    Nuclear Repulsion Energy =            314.5760292352938450
    One-Electron Energy =               -1093.2527915498967559
    Two-Electron Energy =                 433.7842660678879838
    DFT Exchange-Correlation Energy =       0.0000000000000000
    Empirical Dispersion Energy =           0.0000000000000000
    PCM Polarization Energy =               0.0000000000000000
    EFP Energy =                            0.0000000000000000
    Total Energy =                       -344.8924962467149271
    Molecular point group: c1
  Basis Set: 6-31G*
  Basis Set:

  -Total Gradient:
     Atom            X                  Y                   Z
    ------   -----------------  -----------------  -----------------
       1        0.000011764585    -0.000053081505    -0.000032703648
       2       -0.000626164657     0.001159759671     0.004286035225
       3        0.000118894392     0.000017577922    -0.002383669798
       4        0.001653702619    -0.003143206293    -0.003153026513
       5       -0.000018427734    -0.000004662453     0.000001235629
       6       -0.000014988351     0.000002282243    -0.000010028398
       7        0.000003835961     0.000000391959    -0.000012387352
       8       -0.000003607091    -0.000001175009    -0.000001225078
       9       -0.000003797355     0.000000446989     0.000003372521
      10        0.000006184222     0.000006479304     0.000005285251
      11       -0.001115167561     0.002010213417     0.001287254092
      12       -0.000003594182     0.000008548351     0.000007233520
      13       -0.000007054627     0.000001366279     0.000002041889
      14       -0.000004162906    -0.000003240071     0.000004566158
      15       -0.000002096329    -0.000000857884    -0.000001605534
      16        0.000002661313    -0.000001448376    -0.000001620050
      17        0.000002017704     0.000000605454    -0.000000757913

  **** Optimization is complete! (in 9 steps) ****
    Final optimized geometry and variables:
    Molecular point group: c1

    Geometry (in Angstrom), charge = 0, multiplicity = 1:

    O            0.357000093457     1.722992751305    -0.322537645080
    C            0.297930177137     0.545667486399    -0.236889109117
    C            1.512164438257    -0.358213359700    -0.185031368418
    O           -0.892598921945    -0.082261061970    -0.285542973213
    C            2.825213208280     0.399324347061    -0.343147944904
    H            1.389201518304    -1.104182264019    -0.965154123274
    H            1.503416660087    -0.904414129501     0.754598146790
    H            2.858737435491     0.925229276771    -1.289232771066
    H            3.661438629544    -0.290602582069    -0.304290610517
    H            2.948322652214     1.132015866824     0.444658259086
    C           -1.276945264422    -0.954494697520     0.764696728957
    C           -2.747909750647    -1.264532486031     0.583580545793
    H           -1.102300246439    -0.469853395281     1.719591377379
    H           -0.688383142177    -1.864935030362     0.730736552962
    H           -3.333447046875    -0.354382565083     0.626794912412
    H           -3.086811245546    -1.936521618821     1.365527156214
    H           -2.918390143546    -1.737050361199    -0.376716105736

  Mulliken Charges: (a.u.)
   Center  Symbol    Alpha    Beta     Spin     Total
       1     O     4.25442  4.25442  0.00000 -0.50885
       2     C     2.60997  2.60997  0.00000  0.78007
       3     C     3.22046  3.22046  0.00000 -0.44091
       4     O     4.31595  4.31595  0.00000 -0.63190
       5     C     3.23683  3.23683  0.00000 -0.47367
       6     H     0.40005  0.40005  0.00000  0.19991
       7     H     0.40624  0.40624  0.00000  0.18753
       8     H     0.40821  0.40821  0.00000  0.18357
       9     H     0.41860  0.41860  0.00000  0.16279
      10     H     0.40868  0.40868  0.00000  0.18264
      11     C     3.00411  3.00411  0.00000 -0.00823
      12     C     3.24536  3.24536  0.00000 -0.49072
      13     H     0.41715  0.41715  0.00000  0.16570
      14     H     0.42092  0.42092  0.00000  0.15816
      15     H     0.40564  0.40564  0.00000  0.18873
      16     H     0.41814  0.41814  0.00000  0.16372
      17     H     0.40927  0.40927  0.00000  0.18145

   Total alpha = 28.00000, Total beta = 28.00000, Total charge = -0.00000
