                              Psi4 1.0.54 Driver

  ==> Input File <==

--------------------------------------------------------------------------
set {
	reference rhf
	basis cc-pvtz
}

set_num_threads( 4 )
memory 2 gb

molecule MOL {
0 1

O	 2.922872	 1.262541	 0.448526
C	 2.841259	 0.166180	 -0.000295
C	 1.542794	 -0.614730	 -0.000853
C	 4.039797	 -0.528333	 -0.606415
C	 0.288398	 0.247429	 0.000314
H	 1.557171	 -1.273139	 -0.866508
H	 1.557484	 -1.274998	 0.863344
C	 -0.993089	 -0.581367	 -0.000217
H	 0.305153	 0.900562	 -0.864701
H	 0.305567	 0.898805	 0.866656
C	 -2.258482	 0.271340	 0.000669
H	 -1.002280	 -1.233920	 -0.870484
H	 -1.002061	 -1.235367	 0.868958
C	 -3.544441	 -0.550271	 -0.000253
H	 -2.250545	 0.925250	 -0.867923
H	 -2.250598	 0.923423	 0.870642
C	 -4.804551	 0.308747	 0.000556
H	 -3.553737	 -1.201524	 -0.870151
H	 -3.553831	 -1.203282	 0.868313
H	 -4.842050	 0.949078	 -0.874436
H	 -5.698404	 -0.304480	 -0.000254
H	 -4.842277	 0.947103	 0.876982
H	 3.839567	 -0.785657	 -1.640698
H	 4.902787	 0.117264	 -0.553082
H	 4.242656	 -1.453307	 -0.077913

	symmetry c1
}
set optking {
	frozen_dihedral = ("
		1 2 3 6
	")
}

ee,wfn = optimize('scf', return_wfn=True)
oeprop( wfn, 'DIPOLE', 'QUADRUPOLE', 'MULLIKEN_CHARGES')
f=open( 'psi4out.xyz', 'w' )
f.write( "25  " )
f.write( str(ee) + "\n" )
f.write( MOL.save_string_xyz() )
f.close()
--------------------------------------------------------------------------

    Molecular point group: c1
  Charge       = 0
  Multiplicity = 1
  Basis Set: CC-PVTZ
  Basis Set:
  @DF-RHF Final Energy:  -387.27373891711392
    Total Energy =                       -387.2737389171140876
    Molecular point group: c1
  Basis Set: CC-PVTZ
  Basis Set:
  Basis Set: CC-PVTZ
  Basis Set:
  @DF-RHF Final Energy:  -387.27266648508851
    Total Energy =                       -387.2726664850885072
  Basis Set: CC-PVTZ
  Basis Set:
  Basis Set: CC-PVTZ
  Basis Set:
  @DF-RHF Final Energy:  -387.27396449082670
    Total Energy =                       -387.2739644908275523
  Basis Set: CC-PVTZ
  Basis Set:
  Basis Set: CC-PVTZ
  Basis Set:
  @DF-RHF Final Energy:  -387.27413572765869
    Total Energy =                       -387.2741357276586314
  Basis Set: CC-PVTZ
  Basis Set:
  Basis Set: CC-PVTZ
  Basis Set:
  @DF-RHF Final Energy:  -387.27415365063820
    Total Energy =                       -387.2741536506380271
  Basis Set: CC-PVTZ
  Basis Set:
  Basis Set: CC-PVTZ
  Basis Set:
  @DF-RHF Final Energy:  -387.27416192626811
    Total Energy =                       -387.2741619262682207
  Basis Set: CC-PVTZ
  Basis Set:
  Basis Set: CC-PVTZ
  Basis Set:
  @DF-RHF Final Energy:  -387.27416331988871
    Total Energy =                       -387.2741633198887712
  Basis Set: CC-PVTZ
  Basis Set:
  Charge       = 0
  Multiplicity = 1
  Basis Set: CC-PVTZ
  Basis Set:

    Orbital Energies (a.u.)
    -----------------------

    Doubly Occupied:

       1A    -20.537840     2A    -11.320585     3A    -11.229947
       4A    -11.226950     5A    -11.216493     6A    -11.215389
       7A    -11.213850     8A    -11.211983     9A    -11.206711
      10A     -1.398317    11A     -1.095642    12A     -1.057843
      13A     -1.015772    14A     -0.970499    15A     -0.891967
      16A     -0.815214    17A     -0.791886    18A     -0.731194
      19A     -0.663801    20A     -0.652873    21A     -0.634645
      22A     -0.623593    23A     -0.598078    24A     -0.585547
      25A     -0.568623    26A     -0.560571    27A     -0.541587
      28A     -0.529476    29A     -0.513291    30A     -0.491847
      31A     -0.489749    32A     -0.473920    33A     -0.464389
      34A     -0.463569    35A     -0.453071    36A     -0.400131

  @DF-RHF Final Energy:  -387.27416337056593

   => Energetics <=

    Nuclear Repulsion Energy =            439.0535031394737189
    One-Electron Energy =               -1394.9416472313077975
    Two-Electron Energy =                 568.6139807212682626
    DFT Exchange-Correlation Energy =       0.0000000000000000
    Empirical Dispersion Energy =           0.0000000000000000
    PCM Polarization Energy =               0.0000000000000000
    EFP Energy =                            0.0000000000000000
    Total Energy =                       -387.2741633705658160
    Molecular point group: c1
  Basis Set: CC-PVTZ
  Basis Set:

  -Total Gradient:
     Atom            X                  Y                   Z
    ------   -----------------  -----------------  -----------------
       1        0.000306236732    -0.000496761933     0.001201335983
       2       -0.000297889133     0.000491588695    -0.001526494130
       3       -0.000570997181     0.000930727076    -0.000383844555
       4        0.000010015271    -0.000008557841     0.000001233430
       5       -0.000000105264     0.000005745036    -0.000008585821
       6        0.000565964905    -0.000927956728     0.000724032049
       7        0.000002081057     0.000000203057    -0.000001100883
       8       -0.000000426924    -0.000001997883    -0.000008384153
       9       -0.000000430836    -0.000000797593    -0.000001376302
      10       -0.000001294245     0.000001884321    -0.000002753687
      11       -0.000000153250     0.000001027322     0.000004500896
      12       -0.000000624135     0.000002400621    -0.000003530491
      13        0.000001049380    -0.000002600242    -0.000003138007
      14        0.000001556892    -0.000001155035     0.000007535576
      15        0.000001294947    -0.000003597323    -0.000000069072
      16       -0.000001663770     0.000004177439     0.000000070186
      17        0.000000255909     0.000001081657     0.000000585406
      18        0.000001355526     0.000001579259     0.000000330298
      19       -0.000001180222    -0.000001833158     0.000000224615
      20       -0.000000068697     0.000000403139    -0.000000115437
      21        0.000000751166    -0.000000059367    -0.000000367574
      22       -0.000000381007    -0.000000316781    -0.000000130771
      23        0.000010164647    -0.000001206162     0.000031735966
      24       -0.000028344953    -0.000024818113    -0.000011644418
      25        0.000002833188     0.000030840533    -0.000020049101

  **** Optimization is complete! (in 8 steps) ****
    Final optimized geometry and variables:
    Molecular point group: c1

    Geometry (in Angstrom), charge = 0, multiplicity = 1:

    O            2.918715422845     1.260887279618     0.342411726563
    C            2.840878870943     0.162528483496    -0.102324928880
    C            1.542620656874    -0.620435611914    -0.090264597856
    C            4.045957397735    -0.543565992801    -0.677827415375
    C            0.288774782218     0.242431755569    -0.030252509914
    H            1.521942905000    -1.292740233927    -0.942487326204
    H            1.595513493502    -1.266505903994     0.785213691863
    C           -0.991603273021    -0.584514283560     0.043239327954
    H            0.257622640654     0.886179787169    -0.904117467842
    H            0.355068673352     0.900790738907     0.826559767509
    C           -2.254567997432     0.269901522898     0.099353918416
    H           -1.046284855265    -1.247947770033    -0.817023857629
    H           -0.954938004464    -1.227108741292     0.920023860789
    C           -3.539121370599    -0.550055658348     0.178617152067
    H           -2.292960728265     0.911433361710    -0.777769450570
    H           -2.199713413998     0.934150506262     0.958267456583
    C           -4.796969243418     0.310458165000     0.234013263320
    H           -3.594976169316    -1.213837771685    -0.680019641417
    H           -3.502547880298    -1.190354639898     1.055848148923
    H           -4.880888114747     0.937974457861    -0.647064146423
    H           -5.689841716892    -0.301650275280     0.289902201833
    H           -4.787559242762     0.961587246667     1.101746459547
    H            3.919715715917    -0.652147226228    -1.750141472448
    H            4.940044043142     0.026485730525    -0.477509888144
    H            4.139187493201    -1.540843343777    -0.262587074742

  Mulliken Charges: (a.u.)
   Center  Symbol    Alpha    Beta     Spin     Total
       1     O     4.17295  4.17295  0.00000 -0.34591
       2     C     2.86071  2.86071  0.00000  0.27857
       3     C     3.11277  3.11277  0.00000 -0.22553
       4     C     3.15284  3.15284  0.00000 -0.30567
       5     C     3.08641  3.08641  0.00000 -0.17281
       6     H     0.44503  0.44503  0.00000  0.10993
       7     H     0.44461  0.44461  0.00000  0.11078
       8     C     3.08993  3.08993  0.00000 -0.17986
       9     H     0.45113  0.45113  0.00000  0.09775
      10     H     0.44012  0.44012  0.00000  0.11975
      11     C     3.08626  3.08626  0.00000 -0.17253
      12     H     0.45612  0.45612  0.00000  0.08775
      13     H     0.45504  0.45504  0.00000  0.08992
      14     C     3.08434  3.08434  0.00000 -0.16869
      15     H     0.45442  0.45442  0.00000  0.09116
      16     H     0.45322  0.45322  0.00000  0.09357
      17     C     3.15037  3.15037  0.00000 -0.30074
      18     H     0.45529  0.45529  0.00000  0.08942
      19     H     0.45489  0.45489  0.00000  0.09021
      20     H     0.45499  0.45499  0.00000  0.09001
      21     H     0.44861  0.44861  0.00000  0.10277
      22     H     0.45458  0.45458  0.00000  0.09084
      23     H     0.44895  0.44895  0.00000  0.10209
      24     H     0.43591  0.43591  0.00000  0.12817
      25     H     0.45048  0.45048  0.00000  0.09903

   Total alpha = 36.00000, Total beta = 36.00000, Total charge = -0.00000

*** Psi4 exiting successfully. Buy a developer a beer!
