  ==> Input File <==

--------------------------------------------------------------------------
set {
	reference rhf
	basis 6-31G*
}

set_num_threads( 4 )
memory 2 gb

molecule MOL {
0 1

H	 2.206950	 -0.603439	 0.525073
C	 1.885229	 -0.441293	 -0.510787
C	 0.609186	 0.344288	 -0.670522
O	 2.530041	 -0.873515	 -1.410526
C	 -0.558097	 -0.297372	 0.091132
H	 0.392058	 0.428260	 -1.728957
H	 0.785609	 1.346711	 -0.282121
C	 -1.850991	 0.512573	 -0.019058
H	 -0.727149	 -1.301244	 -0.291537
H	 -0.291447	 -0.407956	 1.140669
C	 -3.096943	 -0.368295	 -0.099594
H	 -1.800724	 1.150330	 -0.898172
H	 -1.931651	 1.177355	 0.838044
H	 -3.060452	 -1.020287	 -0.967456
H	 -3.996858	 0.233488	 -0.175704
H	 -3.191959	 -0.995686	 0.782074

	symmetry c1
}
set optking {
	frozen_dihedral = ("
		9 5 8 12
	")
}

ee = optimize('scf')
oeprop('DIPOLE', 'QUADRUPOLE', 'MULLIKEN_CHARGES')
f=open( 'psi4out.xyz', 'w' )
f.write( "16  " )
f.write( str(ee) + "\n" )
f.write( MOL.save_string_xyz() )
f.close()
--------------------------------------------------------------------------

    Molecular point group: c1
  Charge       = 0
  Multiplicity = 1
  Basis Set: 6-31G*
  Basis Set:
  @DF-RHF Final Energy:  -270.01599054844019
    Total Energy =                       -270.0159905484401293
    Molecular point group: c1
  Basis Set: 6-31G*
  Basis Set:
  Basis Set: 6-31G*
  Basis Set:
  @DF-RHF Final Energy:  -270.01619779720681
    Total Energy =                       -270.0161977972067575
  Basis Set: 6-31G*
  Basis Set:
  Basis Set: 6-31G*
  Basis Set:
  @DF-RHF Final Energy:  -270.01324350164009
    Total Energy =                       -270.0132435016400336
  Basis Set: 6-31G*
  Basis Set:
  Basis Set: 6-31G*
  Basis Set:
  @DF-RHF Final Energy:  -270.01632143608481
    Total Energy =                       -270.0163214360849224
  Basis Set: 6-31G*
  Basis Set:
  Basis Set: 6-31G*
  Basis Set:
  @DF-RHF Final Energy:  -270.01635858139014
    Total Energy =                       -270.0163585813901364
  Basis Set: 6-31G*
  Basis Set:
  Basis Set: 6-31G*
  Basis Set:
  @DF-RHF Final Energy:  -270.01629681796885
    Total Energy =                       -270.0162968179689074
  Basis Set: 6-31G*
  Basis Set:
  Basis Set: 6-31G*
  Basis Set:
  @DF-RHF Final Energy:  -270.01637234273329
    Total Energy =                       -270.0163723427334617
  Basis Set: 6-31G*
  Basis Set:
  Charge       = 0
  Multiplicity = 1
  Basis Set: 6-31G*
  Basis Set:

    Orbital Energies (a.u.)
    -----------------------

    Doubly Occupied:

       1A    -20.562606     2A    -11.326538     3A    -11.236380
       4A    -11.235691     5A    -11.229066     6A    -11.218556
       7A     -1.402379     8A     -1.094915     9A     -1.018826
      10A     -0.905861    11A     -0.813028    12A     -0.794410
      13A     -0.674636    14A     -0.649262    15A     -0.626511
      16A     -0.600850    17A     -0.587155    18A     -0.551404
      19A     -0.520015    20A     -0.516918    21A     -0.488482
      22A     -0.479809    23A     -0.474237    24A     -0.408962

  @DF-RHF Final Energy:  -270.01637234292673

   => Energetics <=

    Nuclear Repulsion Energy =            228.8301158092972400
    One-Electron Energy =                -818.8599842224211898
    Two-Electron Energy =                 320.0134960701969931
    DFT Exchange-Correlation Energy =       0.0000000000000000
    Empirical Dispersion Energy =           0.0000000000000000
    PCM Polarization Energy =               0.0000000000000000
    EFP Energy =                            0.0000000000000000
    Total Energy =                       -270.0163723429269567
    Molecular point group: c1
  Basis Set: 6-31G*
  Basis Set:

  -Total Gradient:
     Atom            X                  Y                   Z
    ------   -----------------  -----------------  -----------------
       1       -0.000010914867    -0.000005443326    -0.000003797292
       2        0.000047148117    -0.000010857095    -0.000050913894
       3       -0.000058987782    -0.000029184966    -0.000017346897
       4       -0.000023561824     0.000003093594     0.000036033073
       5        0.001828161759     0.002515076904    -0.004375657507
       6       -0.000002529410     0.000016928278     0.000003413577
       7       -0.000001438682     0.000012010784     0.000013940659
       8       -0.002519411814    -0.004321112946    -0.002078361769
       9       -0.001147450111    -0.001364957333     0.004018614074
      10        0.000004291234     0.000024314543     0.000039597536
      11        0.000025252988    -0.000005392735    -0.000004609096
      12        0.001866643467     0.003157152594     0.002393769528
      13       -0.000002140287     0.000002111414     0.000029125799
      14       -0.000024074223     0.000024021143    -0.000013721934
      15        0.000010409819     0.000003017433     0.000022442313
      16        0.000008601616    -0.000020778288    -0.000012528171

  **** Optimization is complete! (in 8 steps) ****
    Final optimized geometry and variables:
    Molecular point group: c1

    Geometry (in Angstrom), charge = 0, multiplicity = 1:

    H            2.271605005108    -0.387593185734     1.004452578313
    C            1.981054392080    -0.230809933358    -0.041259214194
    C            0.698237256072     0.533400606347    -0.243314705407
    O            2.660356997779    -0.654418078942    -0.919449860228
    C           -0.483111912462    -0.124283365914     0.478589162824
    H            0.513525772913     0.614888523332    -1.307943530004
    H            0.844741357479     1.538621366764     0.151032137572
    C           -1.782282626863     0.696143000394     0.388971992335
    H           -0.648488477080    -1.126826344651     0.091764620193
    H           -0.228144382960    -0.266438880830     1.527177640607
    C           -3.042794860478    -0.164516233958     0.365184501649
    H           -1.749991830959     1.345145552001    -0.482508584672
    H           -1.827564970873     1.372939780379     1.239077590015
    H           -3.064752443979    -0.801516407617    -0.514023641762
    H           -3.936944015331     0.450405334072     0.353554334659
    H           -3.093946986727    -0.806599315428     1.240034927577

  Mulliken Charges: (a.u.)
   Center  Symbol    Alpha    Beta     Spin     Total
       1     H     0.43205  0.43205  0.00000  0.13589
       2     C     2.83010  2.83010  0.00000  0.33979
       3     C     3.20900  3.20900  0.00000 -0.41801
       4     O     4.23703  4.23703  0.00000 -0.47406
       5     C     3.16701  3.16701  0.00000 -0.33403
       6     H     0.39885  0.39885  0.00000  0.20230
       7     H     0.40943  0.40943  0.00000  0.18115
       8     C     3.15346  3.15346  0.00000 -0.30691
       9     H     0.41146  0.41146  0.00000  0.17709
      10     H     0.41802  0.41802  0.00000  0.16397
      11     C     3.24094  3.24094  0.00000 -0.48187
      12     H     0.41792  0.41792  0.00000  0.16417
      13     H     0.41908  0.41908  0.00000  0.16184
      14     H     0.41858  0.41858  0.00000  0.16285
      15     H     0.41711  0.41711  0.00000  0.16578
      16     H     0.41998  0.41998  0.00000  0.16005

   Total alpha = 24.00000, Total beta = 24.00000, Total charge =  0.00000
