  ==> Input File <==

--------------------------------------------------------------------------
set {
	reference rhf
	basis 6-31G*
}

set_num_threads( 4 )
memory 2 gb

molecule MOL {
0 1

O	 1.846825	 1.296220	 0.000415
C	 1.705091	 0.115954	 0.001797
C	 0.381791	 -0.609817	 0.001258
O	 2.721346	 -0.737485	 -0.000216
C	 -0.823008	 0.326187	 0.001381
H	 0.371250	 -1.265087	 -0.865474
H	 0.370908	 -1.265746	 0.867490
C	 -0.484139	 1.708488	 -0.558506
H	 -1.202007	 0.421039	 1.014076
H	 -1.623491	 -0.121175	 -0.579483
C	 -1.681264	 2.660702	 -0.564960
H	 0.321585	 2.150299	 0.025967
H	 -0.102421	 1.606430	 -1.573275
C	 -1.342362	 4.041303	 -1.125618
H	 -2.062182	 2.765742	 0.448455
H	 -2.486656	 2.221151	 -1.149148
H	 -0.562944	 4.521749	 -0.540902
H	 -2.210659	 4.692795	 -1.117240
H	 -0.990328	 3.972759	 -2.151135
C	 4.024888	 -0.184556	 -0.001949
H	 4.179030	 0.422472	 -0.882452
H	 4.701782	 -1.024608	 -0.003642
H	 4.181981	 0.421185	 0.878906

	symmetry c1
}
set optking {
	frozen_dihedral = ("
		9 5 3 6
	")
}

ee = optimize('scf')
oeprop('DIPOLE', 'QUADRUPOLE', 'MULLIKEN_CHARGES')
f=open( 'psi4out.xyz', 'w' )
f.write( "23  " )
f.write( str(ee) + "\n" )
f.write( MOL.save_string_xyz() )
f.close()
--------------------------------------------------------------------------

    Molecular point group: c1
  Charge       = 0
  Multiplicity = 1
  Basis Set: 6-31G*
  Basis Set:
  @DF-RHF Final Energy:  -422.94345279168198
    Total Energy =                       -422.9434527916819206
    Molecular point group: c1
  Basis Set: 6-31G*
  Basis Set:
  Basis Set: 6-31G*
  Basis Set:
  @DF-RHF Final Energy:  -422.96154172246003
    Total Energy =                       -422.9615417224597422
  Basis Set: 6-31G*
  Basis Set:
  Basis Set: 6-31G*
  Basis Set:
  @DF-RHF Final Energy:  -422.96555709270552
    Total Energy =                       -422.9655570927060353
  Basis Set: 6-31G*
  Basis Set:
  Basis Set: 6-31G*
  Basis Set:
  @DF-RHF Final Energy:  -422.96447871110178
    Total Energy =                       -422.9644787111020605
  Basis Set: 6-31G*
  Basis Set:
  @DF-RHF Final Energy:  -422.96769104918712
    Total Energy =                       -422.9676910491874651
  @DF-RHF Final Energy:  -422.96796525084471
    Total Energy =                       -422.9679652508456229
  @DF-RHF Final Energy:  -422.96801819781780
    Total Energy =                       -422.9680181978178553
  @DF-RHF Final Energy:  -422.96815025328527
    Total Energy =                       -422.9681502532853301
  @DF-RHF Final Energy:  -422.96850993006848
    Total Energy =                       -422.9685099300684215
  @DF-RHF Final Energy:  -422.96911688825145
    Total Energy =                       -422.9691168882510510
  @DF-RHF Final Energy:  -422.96926087176098
    Total Energy =                       -422.9692608717612075
  @DF-RHF Final Energy:  -422.96929150407368
    Total Energy =                       -422.9692915040739081
  @DF-RHF Final Energy:  -422.96930148522029
    Total Energy =                       -422.9693014852207398
  Basis Set: 6-31G*
  Basis Set:
  @DF-RHF Final Energy:  -422.96930587125502
    Total Energy =                       -422.9693058712548464
  Basis Set: 6-31G*
  Basis Set:
  Basis Set: 6-31G*
  Basis Set:
  @DF-RHF Final Energy:  -422.96930959554589
    Total Energy =                       -422.9693095955453828
  Basis Set: 6-31G*
  Basis Set:
  Basis Set: 6-31G*
  Basis Set:
  @DF-RHF Final Energy:  -422.96931139851500
    Total Energy =                       -422.9693113985151740
  Basis Set: 6-31G*
  Basis Set:
  Charge       = 0
  Multiplicity = 1
  Basis Set: 6-31G*
  Basis Set:

    Orbital Energies (a.u.)
    -----------------------

    Doubly Occupied:

       1A    -20.605879     2A    -20.542635     3A    -11.372899
       4A    -11.280998     5A    -11.235081     6A    -11.225291
       7A    -11.214659     8A    -11.212229     9A    -11.207083
      10A     -1.470048    11A     -1.361858    12A     -1.089755
      13A     -1.040986    14A     -0.985493    15A     -0.932918
      16A     -0.845791    17A     -0.797241    18A     -0.767084
      19A     -0.694240    20A     -0.679639    21A     -0.670895
      22A     -0.646194    23A     -0.606698    24A     -0.601032
      25A     -0.570318    26A     -0.566219    27A     -0.548213
      28A     -0.527334    29A     -0.521979    30A     -0.505888
      31A     -0.485734    32A     -0.472270    33A     -0.462976
      34A     -0.453606    35A     -0.452466    36A     -0.431727

  @DF-RHF Final Energy:  -422.96931164709912

   => Energetics <=

    Nuclear Repulsion Energy =            465.5203074716354763
    One-Electron Energy =               -1498.8085286215900851
    Two-Electron Energy =                 610.3189095028552629
    DFT Exchange-Correlation Energy =       0.0000000000000000
    Empirical Dispersion Energy =           0.0000000000000000
    PCM Polarization Energy =               0.0000000000000000
    EFP Energy =                            0.0000000000000000
    Total Energy =                       -422.9693116470992891
    Molecular point group: c1
  Basis Set: 6-31G*
  Basis Set:

  -Total Gradient:
     Atom            X                  Y                   Z
    ------   -----------------  -----------------  -----------------
       1       -0.000014618116     0.000029128170     0.000013403742
       2        0.000019330277    -0.000012202921     0.000047033115
       3        0.003953357082     0.004354274294    -0.004597749550
       4        0.000005496696    -0.000042125474    -0.000032549430
       5        0.004410680365     0.005028605202     0.002256504126
       6       -0.003974841335    -0.004358996011     0.003443732572
       7       -0.000015986796    -0.000026051890    -0.000022007166
       8        0.000006211953    -0.000000881702     0.000015352910
       9       -0.004349854594    -0.004963141799    -0.001117450541
      10       -0.000007249368    -0.000018680692     0.000005811689
      11       -0.000023458271     0.000008055097    -0.000024188247
      12        0.000007101941     0.000003531715    -0.000000866672
      13       -0.000005404014     0.000002235073     0.000004334202
      14        0.000008557245    -0.000004868096     0.000015842797
      15        0.000007583655    -0.000000513198    -0.000004618927
      16       -0.000001597310    -0.000001499367    -0.000008300982
      17        0.000005903755     0.000000683072    -0.000001185946
      18       -0.000000183633    -0.000007057855     0.000009489232
      19       -0.000005160868    -0.000003597634    -0.000001963940
      20       -0.000017887167     0.000013281402     0.000000704850
      21        0.000003147077     0.000002601649     0.000001087758
      22       -0.000003188822    -0.000002088974    -0.000000721887
      23       -0.000007939756    -0.000000690062    -0.000001693702

  **** Optimization is complete! (in 17 steps) ****
    Final optimized geometry and variables:
    Molecular point group: c1

    Geometry (in Angstrom), charge = 0, multiplicity = 1:

    O            1.276889917374    -0.098184071462     1.313512013216
    C            1.001712998237    -0.944268474963     0.523070920839
    C           -0.380179992234    -1.515634159366     0.325694616453
    O            1.901423402423    -1.526931205056    -0.255842326640
    C           -1.535883076706    -0.493321508514     0.282114567746
    H           -0.403813452704    -2.173044407462    -0.533113461929
    H           -0.534761668394    -2.169462525268     1.181669047234
    C           -1.227629378225     0.854430038597    -0.372004695592
    H           -1.946129430362    -0.360676769676     1.277818177562
    H           -2.336882938323    -0.969248510926    -0.279447743426
    C           -2.475825807329     1.725409069124    -0.527347554889
    H           -0.487339237008     1.386608193721     0.213720879807
    H           -0.786941680658     0.684173718866    -1.354265197285
    C           -2.176966530022     3.081741664272    -1.164861075470
    H           -2.929053158996     1.879112339270     0.449663522950
    H           -3.214846746451     1.199206192341    -1.128016626075
    H           -1.466817114790     3.646613353144    -0.568020012408
    H           -3.078757540985     3.678712790585    -1.259844671802
    H           -1.752735024693     2.963221207250    -2.158023597597
    C            3.246057471359    -1.107302289439    -0.107035597712
    H            3.340989728356    -0.053902206983    -0.327377051990
    H            3.816547088750    -1.690634073179    -0.812800572718
    H            3.592335741071    -1.292400282457     0.899545140969

  Mulliken Charges: (a.u.)
   Center  Symbol    Alpha    Beta     Spin     Total
       1     O     4.28853  4.28853  0.00000 -0.57706
       2     C     2.60529  2.60529  0.00000  0.78943
       3     C     3.21290  3.21290  0.00000 -0.42580
       4     O     4.30391  4.30391  0.00000 -0.60782
       5     C     3.15044  3.15044  0.00000 -0.30088
       6     H     0.39889  0.39889  0.00000  0.20223
       7     H     0.39871  0.39871  0.00000  0.20259
       8     C     3.16434  3.16434  0.00000 -0.32869
       9     H     0.41274  0.41274  0.00000  0.17452
      10     H     0.41886  0.41886  0.00000  0.16229
      11     C     3.15257  3.15257  0.00000 -0.30514
      12     H     0.40178  0.40178  0.00000  0.19644
      13     H     0.42544  0.42544  0.00000  0.14911
      14     C     3.23948  3.23948  0.00000 -0.47895
      15     H     0.42155  0.42155  0.00000  0.15690
      16     H     0.42431  0.42431  0.00000  0.15139
      17     H     0.41959  0.41959  0.00000  0.16082
      18     H     0.41956  0.41956  0.00000  0.16088
      19     H     0.42230  0.42230  0.00000  0.15539
      20     C     3.09323  3.09323  0.00000 -0.18646
      21     H     0.40848  0.40848  0.00000  0.18304
      22     H     0.40834  0.40834  0.00000  0.18333
      23     H     0.40879  0.40879  0.00000  0.18243

   Total alpha = 36.00000, Total beta = 36.00000, Total charge = -0.00000
