                              Psi4 1.0.54 Driver

  ==> Input File <==

--------------------------------------------------------------------------
set {
	reference rhf
	basis cc-pvtz
}

set_num_threads( 4 )
memory 2 gb

molecule MOL {
0 1

H	 -3.034039	 -0.667848	 0.004703
O	 -2.240597	 -1.171748	 0.000934
C	 -1.159675	 -0.364500	 0.000370
C	 -0.034452	 -0.634700	 -0.751481
C	 -1.213824	 0.769382	 0.796255
H	 0.010437	 -1.514149	 -1.367608
C	 1.036084	 0.241213	 -0.697109
H	 -2.102264	 0.949118	 1.370105
C	 -0.146312	 1.642983	 0.847447
H	 1.914447	 0.032804	 -1.278330
C	 0.988988	 1.368621	 0.091268
C	 -0.214386	 2.888513	 1.694598
H	 1.829084	 2.036174	 0.124012
H	 0.712821	 3.044234	 2.232054
H	 -1.018111	 2.831088	 2.416037
H	 -0.384536	 3.762761	 1.075418

	symmetry c1
}
set optking {
	frozen_dihedral = ("
		5 3 2 1
	")
}

ee,wfn = optimize('scf', return_wfn=True)
oeprop( wfn, 'DIPOLE', 'QUADRUPOLE', 'MULLIKEN_CHARGES')
f=open( 'psi4out.xyz', 'w' )
f.write( "16  " )
f.write( str(ee) + "\n" )
f.write( MOL.save_string_xyz() )
f.close()
--------------------------------------------------------------------------

    Molecular point group: c1
  Charge       = 0
  Multiplicity = 1
  Basis Set: CC-PVTZ
  Basis Set:
  @DF-RHF Final Energy:  -344.71712232309835
    Total Energy =                       -344.7171223230983514
    Molecular point group: c1
  Basis Set: CC-PVTZ
  Basis Set:
  Basis Set: CC-PVTZ
  Basis Set:
  @DF-RHF Final Energy:  -344.71865887582413
    Total Energy =                       -344.7186588758241328
  Basis Set: CC-PVTZ
  Basis Set:
  Basis Set: CC-PVTZ
  Basis Set:
  @DF-RHF Final Energy:  -344.71877351775402
    Total Energy =                       -344.7187735177541299
  Basis Set: CC-PVTZ
  Basis Set:
  Basis Set: CC-PVTZ
  Basis Set:
  @DF-RHF Final Energy:  -344.71878609276501
    Total Energy =                       -344.7187860927649581
  Basis Set: CC-PVTZ
  Basis Set:
  @DF-RHF Final Energy:  -344.71879073290518
    Total Energy =                       -344.7187907329055747
  @DF-RHF Final Energy:  -344.71879267583671
    Total Energy =                       -344.7187926758364256
  @DF-RHF Final Energy:  -344.71879646071761
    Total Energy =                       -344.7187964607174422
  @DF-RHF Final Energy:  -344.71879261374687
    Total Energy =                       -344.7187926137471550
  @DF-RHF Final Energy:  -344.71880263318110
    Total Energy =                       -344.7188026331814399
  @DF-RHF Final Energy:  -344.71086910646835
    Total Energy =                       -344.7108691064681807
  @DF-RHF Final Energy:  -344.71850292802964
    Total Energy =                       -344.7185029280300341
  @DF-RHF Final Energy:  -344.71881458817819
    Total Energy =                       -344.7188145881784749
  @DF-RHF Final Energy:  -344.71881788553048
    Total Energy =                       -344.7188178855304841
  @DF-RHF Final Energy:  -344.71882017086767
    Total Energy =                       -344.7188201708676161
  @DF-RHF Final Energy:  -344.71882501738691
    Total Energy =                       -344.7188250173868482
  @DF-RHF Final Energy:  -344.71882937163707
    Total Energy =                       -344.7188293716371845
  @DF-RHF Final Energy:  -344.71883365523337
    Total Energy =                       -344.7188336552333681
  @DF-RHF Final Energy:  -344.71883758484518
    Total Energy =                       -344.7188375848452893
  Basis Set: CC-PVTZ
  Basis Set:
  @DF-RHF Final Energy:  -344.71884071434090
    Total Energy =                       -344.7188407143409563
  Basis Set: CC-PVTZ
  Basis Set:
  Basis Set: CC-PVTZ
  Basis Set:
  @DF-RHF Final Energy:  -344.71884213618836
    Total Energy =                       -344.7188421361884139
  Basis Set: CC-PVTZ
  Basis Set:
  Basis Set: CC-PVTZ
  Basis Set:
  @DF-RHF Final Energy:  -344.71884366400866
    Total Energy =                       -344.7188436640083182
  Basis Set: CC-PVTZ
  Basis Set:
  Charge       = 0
  Multiplicity = 1
  Basis Set: CC-PVTZ
  Basis Set:

    Orbital Energies (a.u.)
    -----------------------

    Doubly Occupied:

       1A    -20.577581     2A    -11.291973     3A    -11.241743
       4A    -11.230781     5A    -11.221615     6A    -11.219299
       7A    -11.216017     8A    -11.215375     9A     -1.406723
      10A     -1.154711    11A     -1.047485    12A     -1.006895
      13A     -0.940461    14A     -0.841258    15A     -0.803669
      16A     -0.730069    17A     -0.682630    18A     -0.652824
      19A     -0.614421    20A     -0.595872    21A     -0.579147
      22A     -0.569837    23A     -0.560932    24A     -0.530476
      25A     -0.506254    26A     -0.485080    27A     -0.471041
      28A     -0.333466    29A     -0.315110

  @DF-RHF Final Energy:  -344.71884426750273

   => Energetics <=

    Nuclear Repulsion Energy =            346.2047045919375705
    One-Electron Energy =               -1153.7616007418689605
    Two-Electron Energy =                 462.8380518824285446
    DFT Exchange-Correlation Energy =       0.0000000000000000
    Empirical Dispersion Energy =           0.0000000000000000
    PCM Polarization Energy =               0.0000000000000000
    EFP Energy =                            0.0000000000000000
    Total Energy =                       -344.7188442675028455
    Molecular point group: c1
  Basis Set: CC-PVTZ
  Basis Set:

  -Total Gradient:
     Atom            X                  Y                   Z
    ------   -----------------  -----------------  -----------------
       1        0.000160027823     0.000056092977    -0.002691915606
       2        0.000313663445    -0.000643730500     0.004231401790
       3       -0.001362183176     0.001774172376    -0.003283063387
       4        0.000077938686    -0.000030556184     0.000079760328
       5        0.000800608221    -0.001134217420     0.001609626285
       6       -0.000000261573    -0.000024337431     0.000039891219
       7       -0.000024799037    -0.000013063615    -0.000024206893
       8        0.000029381860    -0.000023865231     0.000030415548
       9        0.000036733179     0.000004963265    -0.000004213181
      10       -0.000007042997     0.000000620043     0.000005957062
      11       -0.000019148458     0.000017912293     0.000002857937
      12        0.000009728498    -0.000004611073    -0.000009963634
      13       -0.000005552872     0.000004203076     0.000009582068
      14        0.000012040316    -0.000000955280     0.000008394036
      15       -0.000017470908    -0.000000089642     0.000008828355
      16       -0.000003663007     0.000017462348    -0.000013351927

  **** Optimization is complete! (in 22 steps) ****
    Final optimized geometry and variables:
    Molecular point group: c1

    Geometry (in Angstrom), charge = 0, multiplicity = 1:

    H           -2.619638970106    -1.297523054428    -0.354893439205
    O           -1.803219247317    -1.763641658317    -0.348886349636
    C           -0.756907622067    -0.902396631967    -0.285693919119
    C            0.387295018656    -1.216503592396    -0.996072532688
    C           -0.795283551783     0.223295259142     0.513588353094
    H            0.404640263197    -2.101828763638    -1.600141500668
    C            1.480249181802    -0.382171397186    -0.903626128233
    H           -1.683157403893     0.433865656881     1.082600468419
    C            0.299212698647     1.072418857705     0.595217715606
    H            2.372964544329    -0.620076739202    -1.450546121089
    C            1.441566669281     0.757499928920    -0.119658781626
    C            0.229636402569     2.317296813237     1.443516971065
    H            2.302548735811     1.395783311377    -0.062236909295
    H            1.218616483635     2.693851035898     1.667367911798
    H           -0.278109131410     2.124887855237     2.380574570711
    H           -0.315723980351     3.102220923620     0.930133059183

  Mulliken Charges: (a.u.)
   Center  Symbol    Alpha    Beta     Spin     Total
       1     H     0.38589  0.38589  0.00000  0.22822
       2     O     4.18242  4.18242  0.00000 -0.36483
       3     C     2.85055  2.85055  0.00000  0.29890
       4     C     3.12333  3.12333  0.00000 -0.24666
       5     C     3.14977  3.14977  0.00000 -0.29955
       6     H     0.41799  0.41799  0.00000  0.16403
       7     C     3.05137  3.05137  0.00000 -0.10273
       8     H     0.43048  0.43048  0.00000  0.13904
       9     C     2.94466  2.94466  0.00000  0.11068
      10     H     0.42291  0.42291  0.00000  0.15419
      11     C     3.12006  3.12006  0.00000 -0.24012
      12     C     3.14710  3.14710  0.00000 -0.29419
      13     H     0.42690  0.42690  0.00000  0.14619
      14     H     0.44954  0.44954  0.00000  0.10092
      15     H     0.44939  0.44939  0.00000  0.10123
      16     H     0.44765  0.44765  0.00000  0.10471

   Total alpha = 29.00000, Total beta = 29.00000, Total charge = -0.00000

*** Psi4 exiting successfully. Buy a developer a beer!
