  ==> Input File <==

--------------------------------------------------------------------------
set {
	reference rhf
	basis cc-pvtz
}

set_num_threads( 4 )
memory 2 gb

molecule MOL {
0 1

H	 2.059722	 -0.980386	 0.880486
C	 1.958961	 -0.215654	 0.099021
C	 0.692262	 0.592428	 0.156232
O	 2.811434	 -0.079749	 -0.708725
C	 -0.554654	 -0.292621	 0.086567
H	 0.709043	 1.313984	 -0.649939
H	 0.695994	 1.137179	 1.098098
C	 -1.846385	 0.513195	 -0.016346
H	 -0.473986	 -0.956115	 -0.769708
H	 -0.597929	 -0.929215	 0.966651
C	 -3.089953	 -0.365049	 -0.098564
H	 -1.798267	 1.154820	 -0.891143
H	 -1.925398	 1.173265	 0.842889
H	 -3.055079	 -1.012299	 -0.968245
H	 -3.988403	 0.236438	 -0.170014
H	 -3.183055	 -0.995885	 0.779079

	symmetry c1
}
set optking {
	frozen_dihedral = ("
		6 3 5 9
	")
}

ee = optimize('scf')
oeprop('DIPOLE', 'QUADRUPOLE', 'MULLIKEN_CHARGES')
f=open( 'psi4out.xyz', 'w' )
f.write( "16  " )
f.write( str(ee) + "\n" )
f.write( MOL.save_string_xyz() )
f.close()
--------------------------------------------------------------------------

    Molecular point group: c1
  Charge       = 0
  Multiplicity = 1
  Basis Set: CC-PVTZ
  Basis Set:
  @DF-RHF Final Energy:  -270.11895645344975
    Total Energy =                       -270.1189564534499254
    Molecular point group: c1
  Basis Set: CC-PVTZ
  Basis Set:
  Basis Set: CC-PVTZ
  Basis Set:
  @DF-RHF Final Energy:  -270.11896018256994
    Total Energy =                       -270.1189601825700493
  Basis Set: CC-PVTZ
  Basis Set:
  Basis Set: CC-PVTZ
  Basis Set:
  @DF-RHF Final Energy:  -270.11877855448540
    Total Energy =                       -270.1187785544854023
  Basis Set: CC-PVTZ
  Basis Set:
  Basis Set: CC-PVTZ
  Basis Set:
  @DF-RHF Final Energy:  -270.11899129162202
    Total Energy =                       -270.1189912916218532
  Basis Set: CC-PVTZ
  Basis Set:
  Basis Set: CC-PVTZ
  Basis Set:
  @DF-RHF Final Energy:  -270.11899547772066
    Total Energy =                       -270.1189954777208868
  Basis Set: CC-PVTZ
  Basis Set:
  Charge       = 0
  Multiplicity = 1
  Basis Set: CC-PVTZ
  Basis Set:

    Orbital Energies (a.u.)
    -----------------------

    Doubly Occupied:

       1A    -20.551978     2A    -11.321390     3A    -11.234685
       4A    -11.233927     5A    -11.227597     6A    -11.216723
       7A     -1.406744     8A     -1.097927     9A     -1.020243
      10A     -0.906955    11A     -0.812679    12A     -0.794200
      13A     -0.680889    14A     -0.648547    15A     -0.635062
      16A     -0.604435    17A     -0.583911    18A     -0.550717
      19A     -0.530118    20A     -0.510933    21A     -0.488617
      22A     -0.483552    23A     -0.479103    24A     -0.411746

  @DF-RHF Final Energy:  -270.11899642235278

   => Energetics <=

    Nuclear Repulsion Energy =            229.3670857099888565
    One-Electron Energy =                -820.1068110843834802
    Two-Electron Energy =                 320.6207289520419863
    DFT Exchange-Correlation Energy =       0.0000000000000000
    Empirical Dispersion Energy =           0.0000000000000000
    PCM Polarization Energy =               0.0000000000000000
    EFP Energy =                            0.0000000000000000
    Total Energy =                       -270.1189964223526658
    Molecular point group: c1
  Basis Set: CC-PVTZ
  Basis Set:

  -Total Gradient:
     Atom            X                  Y                   Z
    ------   -----------------  -----------------  -----------------
       1        0.000005563325     0.000045615139     0.000021665550
       2       -0.000074494909    -0.000028610132    -0.000092583416
       3        0.001227963967    -0.001524230727    -0.000915583737
       4        0.000022586452    -0.000011398410     0.000002132363
       5       -0.001098655507     0.001599723225    -0.000829930761
       6       -0.000780805556     0.001026823745     0.000915313231
       7       -0.000037057503    -0.000020749355     0.000027286261
       8        0.000023636037    -0.000011733854    -0.000053943909
       9        0.000712925835    -0.001049727310     0.000895683782
      10        0.000000974686    -0.000023854150     0.000034434531
      11       -0.000004296375     0.000001816950     0.000004623710
      12       -0.000011432421     0.000010853571    -0.000006292552
      13        0.000013618362    -0.000017895987    -0.000005710807
      14        0.000000834296     0.000006557134     0.000000583953
      15       -0.000004156849    -0.000001589481     0.000003714308
      16        0.000002796164    -0.000001600359    -0.000001392506

  **** Optimization is complete! (in 6 steps) ****
    Final optimized geometry and variables:
    Molecular point group: c1

    Geometry (in Angstrom), charge = 0, multiplicity = 1:

    H            2.044594999551    -1.015826843244     0.962536485698
    C            1.965304041838    -0.236901155447     0.192742173152
    C            0.697425912270     0.568886491778     0.228964948296
    O            2.840636801988    -0.085353445143    -0.587397101602
    C           -0.550297841804    -0.315247298772     0.147300677847
    H            0.720773124477     1.296230517429    -0.571927894081
    H            0.686313301598     1.115823139630     1.169751705331
    C           -1.842030183650     0.491008615721     0.058761356552
    H           -0.469909982953    -0.975616600988    -0.711821279108
    H           -0.589733542089    -0.962057960124     1.020143804862
    C           -3.087382754926    -0.386244636196    -0.004731581108
    H           -1.804468755636     1.130111953565    -0.818228164359
    H           -1.909086179641     1.153595946882     0.917172124958
    H           -3.063080445711    -1.037697515177    -0.871654498885
    H           -3.985866836728     0.215993903155    -0.068933449270
    H           -3.171195026091    -1.012639129397     0.876977764933

  Mulliken Charges: (a.u.)
   Center  Symbol    Alpha    Beta     Spin     Total
       1     H     0.46519  0.46519  0.00000  0.06962
       2     C     2.90996  2.90996  0.00000  0.18009
       3     C     3.07653  3.07653  0.00000 -0.15306
       4     O     4.16413  4.16413  0.00000 -0.32826
       5     C     3.10193  3.10193  0.00000 -0.20386
       6     H     0.44290  0.44290  0.00000  0.11419
       7     H     0.44968  0.44968  0.00000  0.10064
       8     C     3.08431  3.08431  0.00000 -0.16862
       9     H     0.44668  0.44668  0.00000  0.10665
      10     H     0.45187  0.45187  0.00000  0.09626
      11     C     3.14903  3.14903  0.00000 -0.29807
      12     H     0.45021  0.45021  0.00000  0.09959
      13     H     0.45319  0.45319  0.00000  0.09362
      14     H     0.45324  0.45324  0.00000  0.09352
      15     H     0.44659  0.44659  0.00000  0.10681
      16     H     0.45456  0.45456  0.00000  0.09088

   Total alpha = 24.00000, Total beta = 24.00000, Total charge = -0.00000
