                              Psi4 1.0.54 Driver

  ==> Input File <==

--------------------------------------------------------------------------
set {
	reference rhf
	basis cc-pvtz
}

set_num_threads( 4 )
memory 2 gb

molecule MOL {
0 1

H	 -3.436473	 1.252944	 -1.023892
O	 -3.458596	 0.315260	 -0.960865
C	 -3.176635	 -0.080824	 0.355601
C	 -1.763371	 0.265266	 0.799691
H	 -3.321825	 -1.153438	 0.379502
H	 -3.895468	 0.357385	 1.043382
C	 -0.681785	 -0.176652	 -0.181738
H	 -1.696781	 1.340260	 0.960370
H	 -1.591481	 -0.197011	 1.768784
C	 0.726890	 0.207538	 0.263237
H	 -0.885761	 0.253638	 -1.155985
H	 -0.738119	 -1.255310	 -0.307557
C	 1.805048	 -0.242058	 -0.720881
H	 0.772588	 1.284063	 0.397010
H	 0.929431	 -0.229954	 1.238652
C	 3.240668	 0.048851	 -0.280183
H	 1.625989	 0.224972	 -1.686630
H	 1.704508	 -1.312180	 -0.880099
C	 3.595879	 1.531620	 -0.200412
H	 3.917985	 -0.433125	 -0.978550
H	 3.420592	 -0.416912	 0.685277
H	 3.420200	 2.025442	 -1.150861
H	 4.642301	 1.663247	 0.050420
H	 3.013950	 2.048494	 0.553117

	symmetry c1
}
set optking {
	frozen_dihedral = ("
		7 4 3 2
	")
}

ee,wfn = optimize('scf', return_wfn=True)
oeprop( wfn, 'DIPOLE', 'QUADRUPOLE', 'MULLIKEN_CHARGES')
f=open( 'psi4out.xyz', 'w' )
f.write( "24  " )
f.write( str(ee) + "\n" )
f.write( MOL.save_string_xyz() )
f.close()
--------------------------------------------------------------------------

    Molecular point group: c1
  Charge       = 0
  Multiplicity = 1
  Basis Set: CC-PVTZ
  Basis Set:
  @DF-RHF Final Energy:  -349.37960350395502
    Total Energy =                       -349.3796035039551384
    Molecular point group: c1
  Basis Set: CC-PVTZ
  Basis Set:
  Basis Set: CC-PVTZ
  Basis Set:
  @DF-RHF Final Energy:  -349.37952395095215
    Total Energy =                       -349.3795239509519774
  Basis Set: CC-PVTZ
  Basis Set:
  Basis Set: CC-PVTZ
  Basis Set:
  @DF-RHF Final Energy:  -349.37970790531739
    Total Energy =                       -349.3797079053175025
  Basis Set: CC-PVTZ
  Basis Set:
  Basis Set: CC-PVTZ
  Basis Set:
  @DF-RHF Final Energy:  -349.37971363318303
    Total Energy =                       -349.3797136331832576
  Basis Set: CC-PVTZ
  Basis Set:
  Charge       = 0
  Multiplicity = 1
  Basis Set: CC-PVTZ
  Basis Set:

    Orbital Energies (a.u.)
    -----------------------

    Doubly Occupied:

       1A    -20.546768     2A    -11.265624     3A    -11.214793
       4A    -11.211941     5A    -11.209888     6A    -11.209160
       7A    -11.208573     8A    -11.205244     9A     -1.364462
      10A     -1.089404    11A     -1.048824    12A     -0.986567
      13A     -0.916514    14A     -0.851317    15A     -0.799732
      16A     -0.776507    17A     -0.682500    18A     -0.654829
      19A     -0.626949    20A     -0.619815    21A     -0.598375
      22A     -0.586454    23A     -0.556644    24A     -0.543898
      25A     -0.514969    26A     -0.506820    27A     -0.502289
      28A     -0.471683    29A     -0.467698    30A     -0.460708
      31A     -0.455767    32A     -0.450540    33A     -0.422249

  @DF-RHF Final Energy:  -349.37971376093634

   => Energetics <=

    Nuclear Repulsion Energy =            385.3070501633429217
    One-Electron Energy =               -1237.3185201901078472
    Two-Electron Energy =                 502.6317562658282441
    DFT Exchange-Correlation Energy =       0.0000000000000000
    Empirical Dispersion Energy =           0.0000000000000000
    PCM Polarization Energy =               0.0000000000000000
    EFP Energy =                            0.0000000000000000
    Total Energy =                       -349.3797137609367383
    Molecular point group: c1
  Basis Set: CC-PVTZ
  Basis Set:

  -Total Gradient:
     Atom            X                  Y                   Z
    ------   -----------------  -----------------  -----------------
       1       -0.000000043664     0.000009741947    -0.000015012227
       2        0.000908444639    -0.002405992255    -0.000673468464
       3       -0.001290536210     0.004116225830     0.000400479679
       4        0.000607181207    -0.003768718168     0.001681888232
       5       -0.000003743055    -0.000018872341     0.000017263555
       6        0.000010355833     0.000016983976    -0.000017514480
       7       -0.000229983959     0.002029315025    -0.001374659650
       8        0.000013865268     0.000020334619     0.000004538974
       9       -0.000013899309    -0.000009595917    -0.000002266317
      10       -0.000014563443     0.000012033457     0.000006377164
      11       -0.000015347555     0.000009151789    -0.000007520078
      12        0.000013569709    -0.000009010525    -0.000016754513
      13        0.000008557638     0.000004655998    -0.000009562933
      14       -0.000021560146    -0.000016979792    -0.000011124233
      15        0.000003322430     0.000011938927     0.000010852647
      16       -0.000012500077    -0.000010743149     0.000032820926
      17       -0.000002826614     0.000013230741     0.000000819717
      18        0.000004944846    -0.000005958248    -0.000015758224
      19        0.000007465345     0.000012200554    -0.000010636223
      20        0.000005546697    -0.000017475282    -0.000002146799
      21       -0.000000660341    -0.000004037043     0.000015690005
      22       -0.000002082108     0.000012373428    -0.000007176437
      23        0.000002179430    -0.000002207036    -0.000008269810
      24        0.000022313444     0.000001403464     0.000001139487

  **** Optimization is complete! (in 5 steps) ****
    Final optimized geometry and variables:
    Molecular point group: c1

    Geometry (in Angstrom), charge = 0, multiplicity = 1:

    H           -3.495094165146     0.873175392511    -0.990100716356
    O           -3.471554669224    -0.053082905867    -0.830260519081
    C           -3.154688800884    -0.301858226062     0.513473882715
    C           -1.740306591524     0.111907705240     0.899133359799
    H           -3.269858591492    -1.370943639264     0.642197153628
    H           -3.872228508184     0.180355021614     1.172062864350
    C           -0.657606016871    -0.407275301578    -0.042586214793
    H           -1.684927541377     1.199124336994     0.938150429014
    H           -1.555349980895    -0.235624592688     1.912312932687
    C            0.750428614302    -0.005734649566     0.389619524329
    H           -0.848560821262    -0.042178641969    -1.044762749287
    H           -0.721956559525    -1.491404060183    -0.099964397699
    C            1.832540857302    -0.519182241050    -0.558390713277
    H            0.802323659078     1.076592627911     0.460157968498
    H            0.943611299930    -0.385984053287     1.390494027491
    C            3.267168055387    -0.214852402377    -0.123376574099
    H            1.664943132430    -0.106911613743    -1.550817890118
    H            1.724323999232    -1.595795765902    -0.657082759987
    C            3.635002263833     1.267045755533    -0.127568651564
    H            3.945724818685    -0.742579368396    -0.786622898648
    H            3.435397296081    -0.624827017555     0.869131599945
    H            3.468779724410     1.706468314335    -1.106049918767
    H            4.681202440305     1.404174938122     0.121250386582
    H            3.053700842342     1.831697403323     0.591366686080

  Mulliken Charges: (a.u.)
   Center  Symbol    Alpha    Beta     Spin     Total
       1     H     0.39519  0.39519  0.00000  0.20962
       2     O     4.20287  4.20287  0.00000 -0.40574
       3     C     2.98019  2.98019  0.00000  0.03961
       4     C     3.10863  3.10863  0.00000 -0.21727
       5     H     0.45732  0.45732  0.00000  0.08536
       6     H     0.45965  0.45965  0.00000  0.08071
       7     C     3.08161  3.08161  0.00000 -0.16323
       8     H     0.45734  0.45734  0.00000  0.08533
       9     H     0.45267  0.45267  0.00000  0.09465
      10     C     3.09131  3.09131  0.00000 -0.18261
      11     H     0.44851  0.44851  0.00000  0.10298
      12     H     0.45479  0.45479  0.00000  0.09042
      13     C     3.09447  3.09447  0.00000 -0.18894
      14     H     0.45381  0.45381  0.00000  0.09237
      15     H     0.45594  0.45594  0.00000  0.08812
      16     C     3.09014  3.09014  0.00000 -0.18027
      17     H     0.45394  0.45394  0.00000  0.09212
      18     H     0.44948  0.44948  0.00000  0.10103
      19     C     3.15253  3.15253  0.00000 -0.30507
      20     H     0.44861  0.44861  0.00000  0.10278
      21     H     0.45518  0.45518  0.00000  0.08965
      22     H     0.45504  0.45504  0.00000  0.08992
      23     H     0.44661  0.44661  0.00000  0.10678
      24     H     0.45417  0.45417  0.00000  0.09167

   Total alpha = 33.00000, Total beta = 33.00000, Total charge = -0.00000

*** Psi4 exiting successfully. Buy a developer a beer!
