  ==> Input File <==

--------------------------------------------------------------------------
set {
	reference rhf
	basis 6-31G*
}

set_num_threads( 4 )
memory 2 gb

molecule MOL {
0 1

H	 -2.798360	 -0.862255	 -0.071053
N	 -1.863561	 -0.715187	 0.256814
C	 -1.344686	 0.554728	 -0.219830
H	 -1.300452	 -1.461917	 -0.101532
C	 -1.667440	 1.650837	 0.773906
H	 -0.267346	 0.552233	 -0.391099
H	 -1.824045	 0.792806	 -1.164455
O	 -0.983812	 1.379219	 1.963849
H	 -1.361285	 2.619312	 0.378985
H	 -2.740053	 1.678065	 0.952776
C	 -1.258514	 2.267672	 2.999591
H	 -0.677348	 1.960238	 3.858328
H	 -0.981230	 3.286333	 2.734215
H	 -2.313668	 2.255204	 3.264739

	symmetry c1
}
set optking {
	frozen_dihedral = ("
		6 3 2 4
	")
}

ee = optimize('scf')
oeprop('DIPOLE', 'QUADRUPOLE', 'MULLIKEN_CHARGES')
f=open( 'psi4out.xyz', 'w' )
f.write( "14  " )
f.write( str(ee) + "\n" )
f.write( MOL.save_string_xyz() )
f.close()
--------------------------------------------------------------------------

    Molecular point group: c1
  Charge       = 0
  Multiplicity = 1
  Basis Set: 6-31G*
  Basis Set:
  @DF-RHF Final Energy:  -248.11663776536125
    Total Energy =                       -248.1166377653611335
    Molecular point group: c1
  Basis Set: 6-31G*
  Basis Set:
  Basis Set: 6-31G*
  Basis Set:
  @DF-RHF Final Energy:  -248.11877744150192
    Total Energy =                       -248.1187774415020613
  Basis Set: 6-31G*
  Basis Set:
  Basis Set: 6-31G*
  Basis Set:
  @DF-RHF Final Energy:  -248.11910845859401
    Total Energy =                       -248.1191084585938142
  Basis Set: 6-31G*
  Basis Set:
  Basis Set: 6-31G*
  Basis Set:
  @DF-RHF Final Energy:  -248.11913637476988
    Total Energy =                       -248.1191363747697096
  Basis Set: 6-31G*
  Basis Set:
  Charge       = 0
  Multiplicity = 1
  Basis Set: 6-31G*
  Basis Set:

    Orbital Energies (a.u.)
    -----------------------

    Doubly Occupied:

       1A    -20.547199     2A    -15.531059     3A    -11.262014
       4A    -11.259166     5A    -11.242878     6A     -1.373808
       7A     -1.174159     8A     -0.996945     9A     -0.901227
      10A     -0.815958    11A     -0.680331    12A     -0.666647
      13A     -0.640723    14A     -0.622698    15A     -0.597105
      16A     -0.538247    17A     -0.518861    18A     -0.504238
      19A     -0.463511    20A     -0.408927    21A     -0.378688

  @DF-RHF Final Energy:  -248.11913785882780

   => Energetics <=

    Nuclear Repulsion Energy =            193.1897963579186808
    One-Electron Energy =                -720.3690870202319729
    Two-Electron Energy =                 279.0601528034853800
    DFT Exchange-Correlation Energy =       0.0000000000000000
    Empirical Dispersion Energy =           0.0000000000000000
    PCM Polarization Energy =               0.0000000000000000
    EFP Energy =                            0.0000000000000000
    Total Energy =                       -248.1191378588279122
    Molecular point group: c1
  Basis Set: 6-31G*
  Basis Set:

  -Total Gradient:
     Atom            X                  Y                   Z
    ------   -----------------  -----------------  -----------------
       1        0.000004960030     0.000005681078    -0.000003309192
       2       -0.000845200941    -0.000113278386    -0.001472336182
       3        0.000289493639     0.000441765867     0.001520649386
       4        0.000634886469     0.000037282640     0.000982347598
       5       -0.000096675836    -0.000105955825     0.000075063840
       6       -0.000039932150    -0.000295256487    -0.001029957672
       7       -0.000002693021    -0.000039641945     0.000034702013
       8        0.000030296483     0.000026368610    -0.000108685470
       9        0.000050277434     0.000002259961     0.000054715241
      10       -0.000037301003     0.000016914751    -0.000044237349
      11        0.000024018650     0.000049367457    -0.000010601857
      12       -0.000004518743    -0.000009545493    -0.000008458961
      13       -0.000003977332     0.000001023216     0.000019559531
      14       -0.000003633679    -0.000016985446    -0.000009450927

  **** Optimization is complete! (in 5 steps) ****
    Final optimized geometry and variables:
    Molecular point group: c1

    Geometry (in Angstrom), charge = 0, multiplicity = 1:

    H           -1.404081863122    -1.891777922461    -1.331603622438
    N           -0.480322681698    -1.765827929199    -0.968981417038
    C            0.079070850424    -0.481746195519    -1.360179933499
    H            0.082359211534    -2.525871354124    -1.292140142739
    C           -0.246979872393     0.605921239583    -0.353049795940
    H            1.157043591269    -0.572772928851    -1.422547709471
    H           -0.266468738006    -0.153200973833    -2.341942082915
    O            0.492950114057     0.398418522517     0.807962179828
    H           -0.008321902143     1.582407839394    -0.778248260518
    H           -1.314708500104     0.596476455414    -0.133122497424
    C            0.189391632347     1.274920770166     1.843167274715
    H            0.826174076546     1.024952245731     2.680805338283
    H            0.372677839145     2.310766928786     1.559781012474
    H           -0.850167930402     1.182066222208     2.152294967830

  Mulliken Charges: (a.u.)
   Center  Symbol    Alpha    Beta     Spin     Total
       1     H     0.33412  0.33412  0.00000  0.33176
       2     N     3.91965  3.91965  0.00000 -0.83930
       3     C     3.07573  3.07573  0.00000 -0.15145
       4     H     0.32936  0.32936  0.00000  0.34127
       5     C     2.97712  2.97712  0.00000  0.04576
       6     H     0.41152  0.41152  0.00000  0.17695
       7     H     0.43124  0.43124  0.00000  0.13752
       8     O     4.29872  4.29872  0.00000 -0.59744
       9     H     0.43523  0.43523  0.00000  0.12954
      10     H     0.43380  0.43380  0.00000  0.13240
      11     C     3.07814  3.07814  0.00000 -0.15628
      12     H     0.41256  0.41256  0.00000  0.17488
      13     H     0.43310  0.43310  0.00000  0.13379
      14     H     0.42970  0.42970  0.00000  0.14059

   Total alpha = 21.00000, Total beta = 21.00000, Total charge = -0.00000
