  ==> Input File <==

--------------------------------------------------------------------------
set {
	reference rhf
	basis cc-pvtz
}

set_num_threads( 4 )
memory 2 gb

molecule MOL {
0 1

H	 -0.939693	 0.000281	 1.681345
O	 -0.046262	 -0.000157	 1.387678
C	 -0.000837	 0.000006	 -0.025491
C	 -1.085933	 0.925839	 -0.571887
C	 1.381612	 0.451420	 -0.492618
C	 -0.264765	 -1.441610	 -0.438135
H	 -1.099331	 0.918915	 -1.655661
H	 -0.917231	 1.948874	 -0.249381
H	 -2.059337	 0.615683	 -0.213068
H	 1.458555	 0.427068	 -1.573485
H	 1.584267	 1.467949	 -0.169089
H	 2.146657	 -0.192936	 -0.077917
H	 -0.249721	 -1.543796	 -1.516847
H	 -1.231940	 -1.764411	 -0.074015
H	 0.489426	 -2.095402	 -0.018652

	symmetry c1
}
set optking {
	frozen_dihedral = ("
		4 3 2 1
	")
}

ee = optimize('scf')
oeprop('DIPOLE', 'QUADRUPOLE', 'MULLIKEN_CHARGES')
f=open( 'psi4out.xyz', 'w' )
f.write( "15  " )
f.write( str(ee) + "\n" )
f.write( MOL.save_string_xyz() )
f.close()
--------------------------------------------------------------------------

    Molecular point group: c1
  Charge       = 0
  Multiplicity = 1
  Basis Set: CC-PVTZ
  Basis Set:
  @DF-RHF Final Energy:  -232.24455417051223
    Total Energy =                       -232.2445541705122878
    Molecular point group: c1
  Basis Set: CC-PVTZ
  Basis Set:
  Basis Set: CC-PVTZ
  Basis Set:
  @DF-RHF Final Energy:  -232.24592089243308
    Total Energy =                       -232.2459208924330483
  Basis Set: CC-PVTZ
  Basis Set:
  Basis Set: CC-PVTZ
  Basis Set:
  @DF-RHF Final Energy:  -232.24625713923163
    Total Energy =                       -232.2462571392319433
  Basis Set: CC-PVTZ
  Basis Set:
  Basis Set: CC-PVTZ
  Basis Set:
  @DF-RHF Final Energy:  -232.24625878208371
    Total Energy =                       -232.2462587820836575
  Basis Set: CC-PVTZ
  Basis Set:
  Basis Set: CC-PVTZ
  Basis Set:
  @DF-RHF Final Energy:  -232.24626372007654
    Total Energy =                       -232.2462637200765130
  Basis Set: CC-PVTZ
  Basis Set:
  Charge       = 0
  Multiplicity = 1
  Basis Set: CC-PVTZ
  Basis Set:

    Orbital Energies (a.u.)
    -----------------------

    Doubly Occupied:

       1A    -20.541713     2A    -11.280898     3A    -11.212846
       4A    -11.206033     5A    -11.203825     6A     -1.364413
       7A     -1.065359     8A     -0.944069     9A     -0.938640
      10A     -0.778540    11A     -0.672475    12A     -0.624518
      13A     -0.622671    14A     -0.576220    15A     -0.557379
      16A     -0.533413    17A     -0.517064    18A     -0.511415
      19A     -0.504128    20A     -0.459059    21A     -0.427889

  @DF-RHF Final Energy:  -232.24626384257633

   => Energetics <=

    Nuclear Repulsion Energy =            200.6516095056762481
    One-Electron Energy =                -712.7106145591154700
    Two-Electron Energy =                 279.8127412108631233
    DFT Exchange-Correlation Energy =       0.0000000000000000
    Empirical Dispersion Energy =           0.0000000000000000
    PCM Polarization Energy =               0.0000000000000000
    EFP Energy =                            0.0000000000000000
    Total Energy =                       -232.2462638425761270
    Molecular point group: c1
  Basis Set: CC-PVTZ
  Basis Set:

  -Total Gradient:
     Atom            X                  Y                   Z
    ------   -----------------  -----------------  -----------------
       1        0.000040637558     0.001609519516    -0.000062883245
       2       -0.000295136821    -0.002266451703     0.000120737956
       3        0.000902834799     0.001397801367    -0.000032778694
       4       -0.000663334563    -0.000759325060     0.000021027866
       5        0.000001775901    -0.000012928596    -0.000025670731
       6        0.000006247766     0.000015884434    -0.000007737148
       7       -0.000011888537     0.000002662256    -0.000008191034
       8        0.000016234231    -0.000008949308    -0.000006833829
       9        0.000000346889     0.000006431803     0.000006937888
      10        0.000006826781    -0.000001637505     0.000006175092
      11       -0.000015186416     0.000001108516    -0.000001709379
      12        0.000007982909    -0.000001902211     0.000006789525
      13       -0.000003316959    -0.000006434703    -0.000016390375
      14        0.000009499115     0.000011689699     0.000001988706
      15       -0.000003522655     0.000012531493    -0.000001462596

  **** Optimization is complete! (in 6 steps) ****
    Final optimized geometry and variables:
    Molecular point group: c1

    Geometry (in Angstrom), charge = 0, multiplicity = 1:

    H           -0.862588601664     0.090608540159     1.721982617250
    O            0.015342994737     0.055721211984     1.388454277884
    C            0.000400162052    -0.001688186345    -0.025247875879
    C           -1.082781121498     0.926735599139    -0.569013076425
    C            1.382739811456     0.454889929207    -0.471177799734
    C           -0.259528361870    -1.442218812872    -0.463638718619
    H           -1.094183311537     0.921831724378    -1.652321829582
    H           -0.914867391062     1.942932837271    -0.233054893878
    H           -2.065291637571     0.613096478217    -0.228291105974
    H            1.477526394631     0.407344134130    -1.549706044261
    H            1.564137419648     1.473306193613    -0.151510246203
    H            2.143514598798    -0.177414894514    -0.030913136191
    H           -0.243697642815    -1.535143766801    -1.543808051349
    H           -1.228839034099    -1.779744049997    -0.111907156157
    H            0.494623093890    -2.099578462689    -0.049783632917

  Mulliken Charges: (a.u.)
   Center  Symbol    Alpha    Beta     Spin     Total
       1     H     0.39477  0.39477  0.00000  0.21045
       2     O     4.21224  4.21224  0.00000 -0.42447
       3     C     2.87855  2.87855  0.00000  0.24290
       4     C     3.15456  3.15456  0.00000 -0.30912
       5     C     3.14206  3.14206  0.00000 -0.28413
       6     C     3.14637  3.14637  0.00000 -0.29273
       7     H     0.45340  0.45340  0.00000  0.09320
       8     H     0.44563  0.44563  0.00000  0.10875
       9     H     0.45592  0.45592  0.00000  0.08817
      10     H     0.45890  0.45890  0.00000  0.08219
      11     H     0.45013  0.45013  0.00000  0.09975
      12     H     0.44726  0.44726  0.00000  0.10549
      13     H     0.45732  0.45732  0.00000  0.08535
      14     H     0.45516  0.45516  0.00000  0.08969
      15     H     0.44774  0.44774  0.00000  0.10452

   Total alpha = 21.00000, Total beta = 21.00000, Total charge = -0.00000
