  ==> Input File <==

--------------------------------------------------------------------------
set {
	reference rhf
	basis 6-31G*
}

set_num_threads( 1 )
memory 2 gb

molecule MOL {
0 1

H	 0.716789	 2.689732	 4.778233
C	 0.827966	 2.215382	 3.819371
C	 0.224727	 2.769069	 2.700138
C	 1.573789	 1.052637	 3.706658
H	 -0.353419	 3.670860	 2.788936
C	 0.368131	 2.158574	 1.467574
H	 2.040674	 0.624889	 4.575367
C	 1.718702	 0.439788	 2.473860
H	 -0.091549	 2.572862	 0.590800
C	 1.115364	 0.992216	 1.350218
H	 2.294953	 -0.460112	 2.382025
C	 1.239129	 0.373821	 0.000060
O	 1.970282	 -0.730723	 0.000018
O	 0.736665	 0.818381	 -0.984194
C	 3.377318	 -0.566646	 -0.000065
H	 3.695437	 -0.028981	 -0.881264
H	 3.789299	 -1.563704	 0.000236
H	 3.695516	 -0.028316	 0.880770

	symmetry c1
}
set optking {
	frozen_dihedral = ("
		12 13 15 16,
		13 12 10 6
	")
}

ee = energy('scf')
oeprop('DIPOLE', 'QUADRUPOLE', 'MULLIKEN_CHARGES')
f=open( 'psi4out.xyz', 'w' )
f.write( "18  " )
f.write( str(ee) + "\n" )
f.write( MOL.save_string_xyz() )
f.close()
--------------------------------------------------------------------------

    Molecular point group: c1

    Geometry (in Angstrom), charge = 0, multiplicity = 1:

       Center              X                  Y                   Z               Mass
    ------------   -----------------  -----------------  -----------------  -----------------
           H         -0.639674372889     1.791872886105     3.413278792541     1.007825032070
           C         -0.528497372889     1.317522886105     2.454416792541    12.000000000000
           C         -1.131736372889     1.871209886105     1.335183792541    12.000000000000
           C          0.217325627111     0.154777886105     2.341703792541    12.000000000000
           H         -1.709882372889     2.773000886105     1.423981792541     1.007825032070
           C         -0.988332372889     1.260714886105     0.102619792541    12.000000000000
           H          0.684210627111    -0.272970113895     3.210412792541     1.007825032070
           C          0.362238627111    -0.458071113895     1.108905792541    12.000000000000
           H         -1.448012372889     1.675002886105    -0.774154207459     1.007825032070
           C         -0.241099372889     0.094356886105    -0.014736207459    12.000000000000
           H          0.938489627111    -1.357971113895     1.017070792541     1.007825032070
           C         -0.117334372889    -0.524038113895    -1.364894207459    12.000000000000
           O          0.613818627111    -1.628582113895    -1.364936207459    15.994914619560
           O         -0.619798372889    -0.079478113895    -2.349148207459    15.994914619560
           C          2.020854627111    -1.464505113895    -1.365019207459    12.000000000000
           H          2.338973627111    -0.926840113895    -2.246218207459     1.007825032070
           H          2.432835627111    -2.461563113895    -1.364718207459     1.007825032070
           H          2.339052627111    -0.926175113895    -0.484184207459     1.007825032070

  Charge       = 0
  Multiplicity = 1
  Basis Set: 6-31G*
  Basis Set:

    Orbital Energies (a.u.)
    -----------------------

    Doubly Occupied:

       1A    -20.591071     2A    -20.553254     3A    -11.378565
       4A    -11.294881     5A    -11.251193     6A    -11.250114
       7A    -11.247157     8A    -11.245097     9A    -11.243323
      10A    -11.241125    11A     -1.466483    12A     -1.368538
      13A     -1.169658    14A     -1.046213    15A     -1.030004
      16A     -0.983952    17A     -0.872262    18A     -0.841960
      19A     -0.782515    20A     -0.740271    21A     -0.687608
      22A     -0.675968    23A     -0.667721    24A     -0.643039
      25A     -0.628040    26A     -0.609674    27A     -0.594378
      28A     -0.563035    29A     -0.531892    30A     -0.522079
      31A     -0.505102    32A     -0.489948    33A     -0.465050
      34A     -0.442521    35A     -0.349057    36A     -0.345808

  @DF-RHF Final Energy:  -457.32689418575092

   => Energetics <=

    Nuclear Repulsion Energy =            499.1251405700022588
    One-Electron Energy =               -1612.2669847316483356
    Two-Electron Energy =                 655.8149499758959564
    DFT Exchange-Correlation Energy =       0.0000000000000000
    Empirical Dispersion Energy =           0.0000000000000000
    PCM Polarization Energy =               0.0000000000000000
    EFP Energy =                            0.0000000000000000
    Total Energy =                       -457.3268941857501204

  Mulliken Charges: (a.u.)
   Center  Symbol    Alpha    Beta     Spin     Total
       1     H     0.39430  0.39430  0.00000  0.21140
       2     C     3.09043  3.09043  0.00000 -0.18086
       3     C     3.10633  3.10633  0.00000 -0.21265
       4     C     3.10673  3.10673  0.00000 -0.21346
       5     H     0.39432  0.39432  0.00000  0.21136
       6     C     3.08477  3.08477  0.00000 -0.16955
       7     H     0.39560  0.39560  0.00000  0.20881
       8     C     3.09585  3.09585  0.00000 -0.19170
       9     H     0.37513  0.37513  0.00000  0.24974
      10     C     3.07700  3.07700  0.00000 -0.15401
      11     H     0.38385  0.38385  0.00000  0.23230
      12     C     2.59286  2.59286  0.00000  0.81429
      13     O     4.31552  4.31552  0.00000 -0.63104
      14     O     4.26432  4.26432  0.00000 -0.52864
      15     C     3.09876  3.09876  0.00000 -0.19752
      16     H     0.40588  0.40588  0.00000  0.18824
      17     H     0.40100  0.40100  0.00000  0.19800
      18     H     0.41735  0.41735  0.00000  0.16531

   Total alpha = 36.00000, Total beta = 36.00000, Total charge =  0.00000
