  ==> Input File <==

--------------------------------------------------------------------------
set {
	reference rhf
	basis 6-31G*
}

set_num_threads( 4 )
memory 2 gb

molecule MOL {
0 1

H	 -2.548981	 -0.326532	 1.783257
C	 -2.487351	 -0.668080	 0.751905
O	 -1.196369	 -0.539910	 0.249634
H	 -2.749380	 -1.716438	 0.714113
H	 -3.206054	 -0.104547	 0.158336
C	 -0.719715	 0.768384	 0.229244
C	 0.719720	 0.768376	 -0.229267
H	 -1.313612	 1.376560	 -0.454207
H	 -0.781021	 1.218155	 1.218159
O	 1.392611	 -0.295398	 0.366430
H	 0.750534	 0.687200	 -1.313918
H	 1.185043	 1.714359	 0.050526
C	 2.706965	 -0.449871	 -0.062409
H	 2.756559	 -0.644779	 -1.131878
H	 3.305899	 0.433456	 0.155466
H	 3.125548	 -1.294566	 0.467107

	symmetry c1
}
set optking {
	frozen_dihedral = ("
		3 6 7 11
	")
}

ee = optimize('scf')
oeprop('DIPOLE', 'QUADRUPOLE', 'MULLIKEN_CHARGES')
f=open( 'psi4out.xyz', 'w' )
f.write( "16  " )
f.write( str(ee) + "\n" )
f.write( MOL.save_string_xyz() )
f.close()
--------------------------------------------------------------------------

    Molecular point group: c1
  Charge       = 0
  Multiplicity = 1
  Basis Set: 6-31G*
  Basis Set:
  @DF-RHF Final Energy:  -306.97231536105215
    Total Energy =                       -306.9723153610520967
    Molecular point group: c1
  Basis Set: 6-31G*
  Basis Set:
  Basis Set: 6-31G*
  Basis Set:
  @DF-RHF Final Energy:  -306.97314563305525
    Total Energy =                       -306.9731456330552533
  Basis Set: 6-31G*
  Basis Set:
  Basis Set: 6-31G*
  Basis Set:
  @DF-RHF Final Energy:  -306.97333620114068
    Total Energy =                       -306.9733362011405688
  Basis Set: 6-31G*
  Basis Set:
  Basis Set: 6-31G*
  Basis Set:
  @DF-RHF Final Energy:  -306.97334421813463
    Total Energy =                       -306.9733442181344572
  Basis Set: 6-31G*
  Basis Set:
  Charge       = 0
  Multiplicity = 1
  Basis Set: 6-31G*
  Basis Set:

    Orbital Energies (a.u.)
    -----------------------

    Doubly Occupied:

       1A    -20.554075     2A    -20.552099     3A    -11.270592
       4A    -11.269941     5A    -11.263696     6A    -11.262773
       7A     -1.390057     8A     -1.370201     9A     -1.029423
      10A     -0.935170    11A     -0.896491    12A     -0.820500
      13A     -0.685972    14A     -0.677481    15A     -0.658527
      16A     -0.641306    17A     -0.623883    18A     -0.594419
      19A     -0.564300    20A     -0.523559    21A     -0.508677
      22A     -0.474352    23A     -0.465745    24A     -0.415507
      25A     -0.409575

  @DF-RHF Final Energy:  -306.97334452113307

   => Energetics <=

    Nuclear Repulsion Energy =            259.6317531119063915
    One-Electron Energy =                -933.4935552145863085
    Two-Electron Energy =                 366.8884575815470726
    DFT Exchange-Correlation Energy =       0.0000000000000000
    Empirical Dispersion Energy =           0.0000000000000000
    PCM Polarization Energy =               0.0000000000000000
    EFP Energy =                            0.0000000000000000
    Total Energy =                       -306.9733445211328444
    Molecular point group: c1
  Basis Set: 6-31G*
  Basis Set:

  -Total Gradient:
     Atom            X                  Y                   Z
    ------   -----------------  -----------------  -----------------
       1        0.000002449167    -0.000000359935     0.000001000371
       2       -0.000004959193     0.000011071547     0.000003641260
       3        0.002078812374    -0.000789095912     0.005907319091
       4        0.000010438457    -0.000001410475    -0.000001450294
       5        0.000008154438     0.000001596023    -0.000004031097
       6       -0.002721224843     0.003075310512    -0.007908008149
       7        0.000612112699    -0.010318444505     0.002372670091
       8       -0.000012973748    -0.000006322504    -0.000000216328
       9        0.000008466759    -0.000000678542    -0.000005573367
      10        0.000050211119    -0.000031153991     0.000019910524
      11       -0.000011341255     0.008052512947    -0.000405826458
      12        0.000003430369     0.000004404126     0.000015863101
      13       -0.000016990462     0.000007818196     0.000002875556
      14        0.000000029289    -0.000004493420    -0.000006869920
      15       -0.000001183773     0.000001318666     0.000005738136
      16       -0.000005431394    -0.000002072731     0.000002957484

  **** Optimization is complete! (in 5 steps) ****
    Final optimized geometry and variables:
    Molecular point group: c1

    Geometry (in Angstrom), charge = 0, multiplicity = 1:

    H           -2.677076491223    -0.179281719805     1.557023540053
    C           -2.615069849761    -0.539985097741     0.531721464464
    O           -1.313421549361    -0.472136557478     0.046860794811
    H           -2.917981010025    -1.577572780328     0.507117711824
    H           -3.302864819696     0.042195880254    -0.080060969596
    C           -0.781761426723     0.811573785685     0.034640093868
    C            0.649197167529     0.786424532957    -0.471507790750
    H           -1.367675175302     1.478849009017    -0.597993363873
    H           -0.796764933622     1.220149698467     1.044678339172
    O            1.363955516227    -0.239266646583     0.125052975031
    H            0.668480838203     0.732232048389    -1.559836826213
    H            1.095935477370     1.752835209491    -0.224424739683
    C            2.692296657968    -0.314218876182    -0.281713183359
    H            2.771366753359    -0.487073370266    -1.353323289022
    H            3.237605463367     0.596467875563    -0.038025740604
    H            3.145856720494    -1.144548588214     0.241352107399

  Mulliken Charges: (a.u.)
   Center  Symbol    Alpha    Beta     Spin     Total
       1     H     0.42959  0.42959  0.00000  0.14082
       2     C     3.07988  3.07988  0.00000 -0.15976
       3     O     4.29502  4.29502  0.00000 -0.59003
       4     H     0.41063  0.41063  0.00000  0.17875
       5     H     0.43201  0.43201  0.00000  0.13597
       6     C     2.99233  2.99233  0.00000  0.01534
       7     C     2.99410  2.99410  0.00000  0.01179
       8     H     0.43182  0.43182  0.00000  0.13635
       9     H     0.42826  0.42826  0.00000  0.14349
      10     O     4.29325  4.29325  0.00000 -0.58650
      11     H     0.42807  0.42807  0.00000  0.14386
      12     H     0.43410  0.43410  0.00000  0.13179
      13     C     3.08022  3.08022  0.00000 -0.16045
      14     H     0.42878  0.42878  0.00000  0.14243
      15     H     0.43158  0.43158  0.00000  0.13684
      16     H     0.41034  0.41034  0.00000  0.17931

   Total alpha = 25.00000, Total beta = 25.00000, Total charge = -0.00000
