  ==> Input File <==

--------------------------------------------------------------------------
set {
	reference rhf
	basis cc-pvtz
}

set_num_threads( 4 )
memory 2 gb

molecule MOL {
0 1

H	 -2.123894	 -0.667238	 -0.609809
O	 -2.041679	 -0.058866	 0.103463
C	 -0.959304	 0.780994	 -0.094939
C	 0.354905	 0.037902	 -0.006215
H	 -0.985899	 1.279578	 -1.057596
H	 -0.969809	 1.529522	 0.682889
F	 1.157872	 0.376448	 -0.999403
F	 0.970406	 0.330152	 1.120437
F	 0.200005	 -1.263526	 -0.053799

	symmetry c1
}
set optking {
	frozen_dihedral = ("
		7 4 3 5
	")
}

ee = optimize('scf')
oeprop('DIPOLE', 'QUADRUPOLE', 'MULLIKEN_CHARGES')
f=open( 'psi4out.xyz', 'w' )
f.write( "9  " )
f.write( str(ee) + "\n" )
f.write( MOL.save_string_xyz() )
f.close()
--------------------------------------------------------------------------

    Molecular point group: c1
  Charge       = 0
  Multiplicity = 1
  Basis Set: CC-PVTZ
  Basis Set:
  @DF-RHF Final Energy:  -450.84021075419747
    Total Energy =                       -450.8402107541973578
    Molecular point group: c1
  Basis Set: CC-PVTZ
  Basis Set:
  Basis Set: CC-PVTZ
  Basis Set:
  @DF-RHF Final Energy:  -450.84077382162070
    Total Energy =                       -450.8407738216206440
  Basis Set: CC-PVTZ
  Basis Set:
  Basis Set: CC-PVTZ
  Basis Set:
  @DF-RHF Final Energy:  -450.84117032428333
    Total Energy =                       -450.8411703242833823
  Basis Set: CC-PVTZ
  Basis Set:
  Basis Set: CC-PVTZ
  Basis Set:
  @DF-RHF Final Energy:  -450.84120411104959
    Total Energy =                       -450.8412041110498194
  Basis Set: CC-PVTZ
  Basis Set:
  Basis Set: CC-PVTZ
  Basis Set:
  @DF-RHF Final Energy:  -450.84121085704692
    Total Energy =                       -450.8412108570469741
  Basis Set: CC-PVTZ
  Basis Set:
  Charge       = 0
  Multiplicity = 1
  Basis Set: CC-PVTZ
  Basis Set:

    Orbital Energies (a.u.)
    -----------------------

    Doubly Occupied:

       1A    -26.339164     2A    -26.337855     3A    -26.337681
       4A    -20.583087     5A    -11.496106     6A    -11.309831
       7A     -1.748523     8A     -1.644570     9A     -1.643063
      10A     -1.406739    11A     -1.045836    12A     -0.930495
      13A     -0.837609    14A     -0.835255    15A     -0.815416
      16A     -0.728913    17A     -0.719316    18A     -0.705204
      19A     -0.671175    20A     -0.666711    21A     -0.648944
      22A     -0.631632    23A     -0.617872    24A     -0.529088
      25A     -0.484081

  @DF-RHF Final Energy:  -450.84121138472210

   => Energetics <=

    Nuclear Repulsion Energy =            276.7820653193510907
    One-Electron Energy =               -1175.8182194453852389
    Two-Electron Energy =                 448.1949427413122748
    DFT Exchange-Correlation Energy =       0.0000000000000000
    Empirical Dispersion Energy =           0.0000000000000000
    PCM Polarization Energy =               0.0000000000000000
    EFP Energy =                            0.0000000000000000
    Total Energy =                       -450.8412113847218734
    Molecular point group: c1
  Basis Set: CC-PVTZ
  Basis Set:

  -Total Gradient:
     Atom            X                  Y                   Z
    ------   -----------------  -----------------  -----------------
       1       -0.000019512336    -0.000004447236     0.000006584345
       2        0.000075364177     0.000032898089    -0.000019866162
       3       -0.002758181108    -0.005336109321    -0.002902658074
       4        0.002174872241     0.004373151911     0.003264651107
       5        0.001876163714     0.003659568541     0.001884780890
       6        0.000009702276     0.000017053914    -0.000004008858
       7       -0.001277680725    -0.002695883195    -0.002180593930
       8       -0.000054890026    -0.000018465792    -0.000112219020
       9       -0.000025838216    -0.000027766911     0.000063329701

  **** Optimization is complete! (in 6 steps) ****
    Final optimized geometry and variables:
    Molecular point group: c1

    Geometry (in Angstrom), charge = 0, multiplicity = 1:

    H           -2.119151784195    -0.716228056193    -0.547766672565
    O           -2.075639236733    -0.030165234092     0.094342975469
    C           -0.976134547845     0.778093715826    -0.119026732216
    C            0.360920844893     0.036168790586    -0.005749043023
    H           -0.989651846089     1.285758220557    -1.076152627196
    H           -0.986356850758     1.537845713382     0.647594499622
    F            1.178910356467     0.392307976299    -0.977729808405
    F            0.972701052329     0.274847987704     1.132065101709
    F            0.201714895734    -1.267865705773    -0.103159095660

  Mulliken Charges: (a.u.)
   Center  Symbol    Alpha    Beta     Spin     Total
       1     H     0.38662  0.38662  0.00000  0.22675
       2     O     4.18601  4.18601  0.00000 -0.37202
       3     C     3.00512  3.00512  0.00000 -0.01025
       4     C     2.67749  2.67749  0.00000  0.64502
       5     H     0.46201  0.46201  0.00000  0.07598
       6     H     0.44932  0.44932  0.00000  0.10135
       7     F     4.61216  4.61216  0.00000 -0.22432
       8     F     4.60830  4.60830  0.00000 -0.21660
       9     F     4.61296  4.61296  0.00000 -0.22592

   Total alpha = 25.00000, Total beta = 25.00000, Total charge =  0.00000
