  ==> Input File <==

--------------------------------------------------------------------------
set {
	reference rhf
	basis 6-31G*
}

set_num_threads( 4 )
memory 2 gb

molecule MOL {
0 1

H	 -2.324303	 -0.340251	 -0.364213
O	 -1.422729	 -0.573567	 -0.196946
C	 -0.731407	 0.539437	 0.309156
C	 0.680193	 0.672443	 -0.251532
H	 -1.319765	 1.404033	 0.030086
H	 -0.700012	 0.506517	 1.397677
C	 1.599139	 -0.492137	 0.118598
H	 0.616402	 0.758534	 -1.332349
H	 1.107032	 1.602637	 0.117369
H	 1.239738	 -1.428634	 -0.297334
H	 2.601428	 -0.335055	 -0.265730
H	 1.674954	 -0.608418	 1.197020

	symmetry c1
}
set optking {
	frozen_dihedral = ("
		1 2 3 4
	")
}

ee = optimize('scf')
oeprop('DIPOLE', 'QUADRUPOLE', 'MULLIKEN_CHARGES')
f=open( 'psi4out.xyz', 'w' )
f.write( "12  " )
f.write( str(ee) + "\n" )
f.write( MOL.save_string_xyz() )
f.close()
--------------------------------------------------------------------------

    Molecular point group: c1
  Charge       = 0
  Multiplicity = 1
  Basis Set: 6-31G*
  Basis Set:
  @DF-RHF Final Energy:  -193.10729638130678
    Total Energy =                       -193.1072963813069236
    Molecular point group: c1
  Basis Set: 6-31G*
  Basis Set:
  Basis Set: 6-31G*
  Basis Set:
  @DF-RHF Final Energy:  -193.10853883984441
    Total Energy =                       -193.1085388398444138
  Basis Set: 6-31G*
  Basis Set:
  Basis Set: 6-31G*
  Basis Set:
  @DF-RHF Final Energy:  -193.10892441048335
    Total Energy =                       -193.1089244104834108
  Basis Set: 6-31G*
  Basis Set:
  Basis Set: 6-31G*
  Basis Set:
  @DF-RHF Final Energy:  -193.10892921946561
    Total Energy =                       -193.1089292194655513
  Basis Set: 6-31G*
  Basis Set:
  Charge       = 0
  Multiplicity = 1
  Basis Set: 6-31G*
  Basis Set:

    Orbital Energies (a.u.)
    -----------------------

    Doubly Occupied:

       1A    -20.551915     2A    -11.268384     3A    -11.213860
       4A    -11.202078     5A     -1.358603     6A     -1.045881
       7A     -0.917478     8A     -0.799747     9A     -0.702647
      10A     -0.641447    11A     -0.589445    12A     -0.570526
      13A     -0.538063    14A     -0.501533    15A     -0.479458
      16A     -0.464506    17A     -0.430095

  @DF-RHF Final Energy:  -193.10893011651183

   => Energetics <=

    Nuclear Repulsion Energy =            133.1910396664915197
    One-Electron Energy =                -526.0486092559125382
    Two-Electron Energy =                 199.7486394729091899
    DFT Exchange-Correlation Energy =       0.0000000000000000
    Empirical Dispersion Energy =           0.0000000000000000
    PCM Polarization Energy =               0.0000000000000000
    EFP Energy =                            0.0000000000000000
    Total Energy =                       -193.1089301165118286
    Molecular point group: c1
  Basis Set: 6-31G*
  Basis Set:

  -Total Gradient:
     Atom            X                  Y                   Z
    ------   -----------------  -----------------  -----------------
       1        0.000414148132     0.000446827904    -0.001431100006
       2       -0.000587254474    -0.000280148564     0.001506881156
       3        0.000534601669    -0.000638215825     0.000669157926
       4       -0.000353093569     0.000466353630    -0.000758645574
       5        0.000003935067     0.000007124025     0.000001234582
       6        0.000022682282    -0.000026708094    -0.000016618478
       7        0.000000627058    -0.000010480649     0.000025997237
       8       -0.000014487895    -0.000007181625    -0.000004470020
       9       -0.000015146138     0.000018483481    -0.000012509615
      10        0.000003701634     0.000016207803    -0.000004274602
      11       -0.000018152759     0.000021462192     0.000010818416
      12        0.000008438991    -0.000013724276     0.000013528978

  **** Optimization is complete! (in 5 steps) ****
    Final optimized geometry and variables:
    Molecular point group: c1

    Geometry (in Angstrom), charge = 0, multiplicity = 1:

    H           -2.246921915956    -0.432717652361    -0.395141692958
    O           -1.341146988523    -0.610995582365    -0.193998846401
    C           -0.723300223541     0.543662424575     0.324031375105
    C            0.684009435459     0.667897382917    -0.238176526780
    H           -1.295720545413     1.431180006240     0.064830789866
    H           -0.690536610564     0.483826159328     1.409850144436
    C            1.580788798075    -0.514300864032     0.126117348299
    H            0.615698976230     0.759593518911    -1.318459797432
    H            1.120927399088     1.592221009783     0.134292998697
    H            1.166002481951    -1.442338274308    -0.248225556956
    H            2.573437149430    -0.391679256953    -0.295917738990
    H            1.687736298237    -0.605285017893     1.203756696300

  Mulliken Charges: (a.u.)
   Center  Symbol    Alpha    Beta     Spin     Total
       1     H     0.27931  0.27931  0.00000  0.44138
       2     O     4.37188  4.37188  0.00000 -0.74377
       3     C     2.99749  2.99749  0.00000  0.00502
       4     C     3.15597  3.15597  0.00000 -0.31193
       5     H     0.43050  0.43050  0.00000  0.13900
       6     H     0.42777  0.42777  0.00000  0.14446
       7     C     3.24222  3.24222  0.00000 -0.48444
       8     H     0.41863  0.41863  0.00000  0.16274
       9     H     0.42504  0.42504  0.00000  0.14992
      10     H     0.40606  0.40606  0.00000  0.18788
      11     H     0.42123  0.42123  0.00000  0.15753
      12     H     0.42390  0.42390  0.00000  0.15220

   Total alpha = 17.00000, Total beta = 17.00000, Total charge = -0.00000
