  ==> Input File <==

--------------------------------------------------------------------------
set {
	reference rhf
	basis 6-31G*
}

set_num_threads( 4 )
memory 2 gb

molecule MOL {
0 1

H	 -1.293510	 1.368411	 1.958559
C	 -1.007494	 0.755919	 1.126421
C	 -1.926035	 0.445256	 0.069399
C	 0.230409	 0.252256	 1.040768
H	 -2.927843	 0.834907	 0.109358
C	 -1.545253	 -0.323004	 -0.961254
H	 0.976802	 0.437557	 1.789744
N	 0.640212	 -0.532897	 -0.000111
H	 -2.204134	 -0.575989	 -1.768861
C	 -0.198134	 -0.870913	 -1.054245
C	 2.010177	 -1.032049	 0.000042
O	 0.182998	 -1.565119	 -1.963653
H	 2.187698	 -1.635381	 -0.882279
H	 2.677579	 -0.189247	 -0.001871
H	 2.188882	 -1.632203	 0.884288

	symmetry c1
}
set optking {
	frozen_dihedral = ("
		10 8 11 13
	")
}

ee = optimize('scf')
oeprop('DIPOLE', 'QUADRUPOLE', 'MULLIKEN_CHARGES')
f=open( 'psi4out.xyz', 'w' )
f.write( "15  " )
f.write( str(ee) + "\n" )
f.write( MOL.save_string_xyz() )
f.close()
--------------------------------------------------------------------------

    Molecular point group: c1
  Charge       = 0
  Multiplicity = 1
  Basis Set: 6-31G*
  Basis Set:
  @DF-RHF Final Energy:  -360.59548439993790
    Total Energy =                       -360.5954843999379023
    Molecular point group: c1
  Basis Set: 6-31G*
  Basis Set:
  Basis Set: 6-31G*
  Basis Set:
  @DF-RHF Final Energy:  -360.59576828476821
    Total Energy =                       -360.5957682847680985
  Basis Set: 6-31G*
  Basis Set:
  Basis Set: 6-31G*
  Basis Set:
  @DF-RHF Final Energy:  -360.59581420501843
    Total Energy =                       -360.5958142050187689
  Basis Set: 6-31G*
  Basis Set:
  Basis Set: 6-31G*
  Basis Set:
  @DF-RHF Final Energy:  -360.59580097051418
    Total Energy =                       -360.5958009705142331
  Basis Set: 6-31G*
  Basis Set:
  Charge       = 0
  Multiplicity = 1
  Basis Set: 6-31G*
  Basis Set:

    Orbital Energies (a.u.)
    -----------------------

    Doubly Occupied:

       1A    -20.508659     2A    -15.621126     3A    -11.343596
       4A    -11.296512     5A    -11.264031     6A    -11.260467
       7A    -11.233874     8A    -11.229276     9A     -1.384258
      10A     -1.281032    11A     -1.114816    12A     -1.025747
      13A     -0.969908    14A     -0.872076    15A     -0.835284
      16A     -0.715369    17A     -0.698633    18A     -0.660622
      19A     -0.647829    20A     -0.621584    21A     -0.606745
      22A     -0.571909    23A     -0.553684    24A     -0.546928
      25A     -0.525959    26A     -0.476014    27A     -0.413486
      28A     -0.406107    29A     -0.305334

  @DF-RHF Final Energy:  -360.59581611961568

   => Energetics <=

    Nuclear Repulsion Energy =            357.5634433310969484
    One-Electron Energy =               -1198.3367847343890844
    Two-Electron Energy =                 480.1775252836764025
    DFT Exchange-Correlation Energy =       0.0000000000000000
    Empirical Dispersion Energy =           0.0000000000000000
    PCM Polarization Energy =               0.0000000000000000
    EFP Energy =                            0.0000000000000000
    Total Energy =                       -360.5958161196156766
    Molecular point group: c1
  Basis Set: 6-31G*
  Basis Set:

  -Total Gradient:
     Atom            X                  Y                   Z
    ------   -----------------  -----------------  -----------------
       1       -0.000000181340     0.000000718220    -0.000001530433
       2       -0.000020394282     0.000014122438    -0.000002332178
       3        0.000009533024     0.000002984323     0.000012864089
       4        0.000019145785    -0.000022733420     0.000003956273
       5       -0.000001376914    -0.000000584196    -0.000002633705
       6        0.000009799004    -0.000004798588    -0.000003382673
       7       -0.000002483163     0.000002565858    -0.000002341028
       8       -0.000022524971     0.000012142908     0.000000536467
       9       -0.000003304314     0.000003625159     0.000000471562
      10       -0.000003751870    -0.000009682171    -0.000007036310
      11        0.000014862497     0.000009066116    -0.000000813745
      12        0.000002353229     0.000003838586     0.000006269893
      13        0.000004512820    -0.000010080404     0.000008000970
      14       -0.000001060989     0.000010790971    -0.000004432070
      15       -0.000005128513    -0.000011975801    -0.000007597112

  **** Optimization is complete! (in 5 steps) ****
    Final optimized geometry and variables:
    Molecular point group: c1

    Geometry (in Angstrom), charge = 0, multiplicity = 1:

    H           -1.152914543561     1.764091101179     2.201268715518
    C           -0.865465032452     1.151482872949     1.369768168083
    C           -1.783265351905     0.838700499576     0.312576499181
    C            0.373217252667     0.649726386695     1.284972062908
    H           -2.785604153268     1.226963324659     0.352091633397
    C           -1.401007786309     0.070341754707    -0.717357766987
    H            1.119100480172     0.836647875708     2.033974589500
    N            0.784654742538    -0.135452337137     0.244656443939
    H           -2.059136447188    -0.184304973902    -1.525169810385
    C           -0.052826805539    -0.475556878929    -0.809320263164
    C            2.155537331683    -0.632386710744     0.245646551538
    O            0.329543404415    -1.169898168210    -1.718098027701
    H            2.301207288832    -1.225773336938    -0.638913466345
    H            2.853321894345     0.196533908428     0.243440794647
    H            2.330755392769    -1.243408731217     1.123118106634

  Mulliken Charges: (a.u.)
   Center  Symbol    Alpha    Beta     Spin     Total
       1     H     0.39282  0.39282  0.00000  0.21437
       2     C     3.16144  3.16144  0.00000 -0.32288
       3     C     3.05827  3.05827  0.00000 -0.11653
       4     C     2.92077  2.92077  0.00000  0.15846
       5     H     0.39083  0.39083  0.00000  0.21833
       6     C     3.16972  3.16972  0.00000 -0.33944
       7     H     0.38787  0.38787  0.00000  0.22425
       8     N     3.86569  3.86569  0.00000 -0.73138
       9     H     0.38632  0.38632  0.00000  0.22735
      10     C     2.59377  2.59377  0.00000  0.81246
      11     C     3.15655  3.15655  0.00000 -0.31310
      12     O     4.32205  4.32205  0.00000 -0.64409
      13     H     0.37306  0.37306  0.00000  0.25389
      14     H     0.41042  0.41042  0.00000  0.17916
      15     H     0.41042  0.41042  0.00000  0.17916

   Total alpha = 29.00000, Total beta = 29.00000, Total charge = -0.00000
