  ==> Input File <==

--------------------------------------------------------------------------
set {
	reference rhf
	basis 6-31G*
}

set_num_threads( 1 )
memory 2 gb

molecule MOL {
0 1

H	 -0.123880	 -1.801629	 0.224068
C	 -1.175608	 -1.523530	 0.249960
O	 -1.392607	 -0.295399	 -0.366433
H	 -1.747202	 -2.265251	 -0.290661
H	 -1.504590	 -1.514448	 1.288284
C	 -0.719715	 0.768384	 0.229244
C	 0.719720	 0.768376	 -0.229267
H	 -1.185038	 1.714362	 -0.050570
H	 -0.750528	 0.687237	 1.313896
O	 1.392611	 -0.295398	 0.366430
H	 0.750534	 0.687200	 -1.313918
H	 1.185043	 1.714359	 0.050526
C	 2.706965	 -0.449871	 -0.062409
H	 2.756559	 -0.644779	 -1.131878
H	 3.305899	 0.433456	 0.155466
H	 3.125548	 -1.294566	 0.467107

	symmetry c1
}
set optking {
	frozen_dihedral = ("
		3 6 7 11,
		7 10 13 14
	")
}

ee = energy('scf')
oeprop('DIPOLE', 'QUADRUPOLE', 'MULLIKEN_CHARGES')
f=open( 'psi4out.xyz', 'w' )
f.write( "16  " )
f.write( str(ee) + "\n" )
f.write( MOL.save_string_xyz() )
f.close()
--------------------------------------------------------------------------

    Molecular point group: c1

    Geometry (in Angstrom), charge = 0, multiplicity = 1:

       Center              X                  Y                   Z               Mass
    ------------   -----------------  -----------------  -----------------  -----------------
           H         -0.392945743204    -1.612978686921     0.191113129011     1.007825032070
           C         -1.444673743204    -1.334879686921     0.217005129011    12.000000000000
           O         -1.661672743204    -0.106748686921    -0.399387870989    15.994914619560
           H         -2.016267743204    -2.076600686921    -0.323615870989     1.007825032070
           H         -1.773655743204    -1.325797686921     1.255329129011     1.007825032070
           C         -0.988780743204     0.957034313079     0.196289129011    12.000000000000
           C          0.450654256796     0.957026313079    -0.262221870989    12.000000000000
           H         -1.454103743204     1.903012313079    -0.083524870989     1.007825032070
           H         -1.019593743204     0.875887313079     1.280941129011     1.007825032070
           O          1.123545256796    -0.106747686921     0.333475129011    15.994914619560
           H          0.481468256796     0.875850313079    -1.346872870989     1.007825032070
           H          0.915977256796     1.903009313079     0.017571129011     1.007825032070
           C          2.437899256796    -0.261220686921    -0.095363870989    12.000000000000
           H          2.487493256796    -0.456128686921    -1.164832870989     1.007825032070
           H          3.036833256796     0.622106313079     0.122511129011     1.007825032070
           H          2.856482256796    -1.105915686921     0.434152129011     1.007825032070

  Charge       = 0
  Multiplicity = 1
  Basis Set: 6-31G*
  Basis Set:

    Orbital Energies (a.u.)
    -----------------------

    Doubly Occupied:

       1A    -20.563111     2A    -20.548087     3A    -11.270997
       4A    -11.268822     5A    -11.267922     6A    -11.246857
       7A     -1.395956     8A     -1.369331     9A     -1.028603
      10A     -0.943433    11A     -0.886896    12A     -0.823447
      13A     -0.694756    14A     -0.682103    15A     -0.658605
      16A     -0.630230    17A     -0.623924    18A     -0.594263
      19A     -0.552100    20A     -0.528387    21A     -0.520997
      22A     -0.487084    23A     -0.461193    24A     -0.427813
      25A     -0.394303

  @DF-RHF Final Energy:  -306.97293626720102

   => Energetics <=

    Nuclear Repulsion Energy =            267.6734855324007185
    One-Electron Energy =                -949.5542322015658101
    Two-Electron Energy =                 374.9078104019637863
    DFT Exchange-Correlation Energy =       0.0000000000000000
    Empirical Dispersion Energy =           0.0000000000000000
    PCM Polarization Energy =               0.0000000000000000
    EFP Energy =                            0.0000000000000000
    Total Energy =                       -306.9729362672013053

  Mulliken Charges: (a.u.)
   Center  Symbol    Alpha    Beta     Spin     Total
       1     H     0.40631  0.40631  0.00000  0.18739
       2     C     3.08799  3.08799  0.00000 -0.17599
       3     O     4.30473  4.30473  0.00000 -0.60946
       4     H     0.41893  0.41893  0.00000  0.16215
       5     H     0.43344  0.43344  0.00000  0.13313
       6     C     3.00655  3.00655  0.00000 -0.01311
       7     C     2.99545  2.99545  0.00000  0.00911
       8     H     0.41462  0.41462  0.00000  0.17075
       9     H     0.42253  0.42253  0.00000  0.15494
      10     O     4.30566  4.30566  0.00000 -0.61131
      11     H     0.42258  0.42258  0.00000  0.15484
      12     H     0.43354  0.43354  0.00000  0.13292
      13     C     3.08101  3.08101  0.00000 -0.16203
      14     H     0.42686  0.42686  0.00000  0.14629
      15     H     0.42835  0.42835  0.00000  0.14330
      16     H     0.41145  0.41145  0.00000  0.17709

   Total alpha = 25.00000, Total beta = 25.00000, Total charge =  0.00000
