  ==> Input File <==

--------------------------------------------------------------------------
set {
	reference rhf
	basis 6-31G*
}

set_num_threads( 1 )
memory 2 gb

molecule MOL {
0 1

O	 1.821245	 1.341205	 -0.214570
C	 1.631557	 0.245308	 -0.634269
C	 0.309946	 -0.483430	 -0.621979
O	 2.583982	 -0.495851	 -1.186271
C	 -0.823008	 0.326187	 0.001381
H	 0.080281	 -0.756611	 -1.648303
H	 0.461000	 -1.420846	 -0.093630
C	 -2.149452	 -0.435131	 -0.000098
H	 -0.933600	 1.261149	 -0.538808
H	 -0.553073	 0.595290	 1.017761
C	 -3.368779	 0.488503	 -0.000883
H	 -2.193746	 -1.087250	 -0.871175
H	 -2.195311	 -1.087803	 0.870418
C	 -4.693822	 -0.272754	 -0.001129
H	 -3.325798	 1.139422	 -0.871284
H	 -3.326423	 1.139959	 0.869145
H	 -4.781274	 -0.907928	 -0.878124
H	 -5.538651	 0.408946	 -0.001420
H	 -4.781694	 -0.907783	 0.875984
C	 3.878243	 0.073393	 -1.262462
H	 3.861512	 0.977571	 -1.853824
H	 4.500608	 -0.670740	 -1.734482
H	 4.251656	 0.302031	 -0.274639

	symmetry c1
}
set optking {
	frozen_dihedral = ("
		15 11 8 12,
		1 2 3 6,
		9 5 3 6,
		1 2 4 20
	")
}

ee = energy('scf')
oeprop('DIPOLE', 'QUADRUPOLE', 'MULLIKEN_CHARGES')
f=open( 'psi4out.xyz', 'w' )
f.write( "23  " )
f.write( str(ee) + "\n" )
f.write( MOL.save_string_xyz() )
f.close()
--------------------------------------------------------------------------

    Molecular point group: c1

    Geometry (in Angstrom), charge = 0, multiplicity = 1:

       Center              X                  Y                   Z               Mass
    ------------   -----------------  -----------------  -----------------  -----------------
           O          1.872823468704     1.250476321210     0.229799084427    15.994914619560
           C          1.683135468704     0.154579321210    -0.189899915573    12.000000000000
           C          0.361524468704    -0.574158678790    -0.177609915573    12.000000000000
           O          2.635560468704    -0.586579678790    -0.741901915573    15.994914619560
           C         -0.771429531296     0.235458321210     0.445750084427    12.000000000000
           H          0.131859468704    -0.847339678790    -1.203933915573     1.007825032070
           H          0.512578468704    -1.511574678790     0.350739084427     1.007825032070
           C         -2.097873531296    -0.525859678790     0.444271084427    12.000000000000
           H         -0.882021531296     1.170420321210    -0.094438915573     1.007825032070
           H         -0.501494531296     0.504561321210     1.462130084427     1.007825032070
           C         -3.317200531296     0.397774321210     0.443486084427    12.000000000000
           H         -2.142167531296    -1.177978678790    -0.426805915573     1.007825032070
           H         -2.143732531296    -1.178531678790     1.314787084427     1.007825032070
           C         -4.642243531296    -0.363482678790     0.443240084427    12.000000000000
           H         -3.274219531296     1.048693321210    -0.426914915573     1.007825032070
           H         -3.274844531296     1.049230321210     1.313514084427     1.007825032070
           H         -4.729695531296    -0.998656678790    -0.433754915573     1.007825032070
           H         -5.487072531296     0.318217321210     0.442949084427     1.007825032070
           H         -4.730115531296    -0.998511678790     1.320353084427     1.007825032070
           C          3.929821468704    -0.017335678790    -0.818092915573    12.000000000000
           H          3.913090468704     0.886842321210    -1.409454915573     1.007825032070
           H          4.552186468704    -0.761468678790    -1.290112915573     1.007825032070
           H          4.303234468704     0.211302321210     0.169730084427     1.007825032070

  Charge       = 0
  Multiplicity = 1
  Basis Set: 6-31G*
  Basis Set:

    Orbital Energies (a.u.)
    -----------------------

    Doubly Occupied:

       1A    -20.603546     2A    -20.545349     3A    -11.372029
       4A    -11.280803     5A    -11.235673     6A    -11.218576
       7A    -11.217290     8A    -11.216608     9A    -11.209519
      10A     -1.469242    11A     -1.362672    12A     -1.093284
      13A     -1.043518    14A     -0.986956    15A     -0.932016
      16A     -0.843703    17A     -0.795182    18A     -0.767370
      19A     -0.697780    20A     -0.683334    21A     -0.671723
      22A     -0.648835    23A     -0.611119    24A     -0.599211
      25A     -0.572565    26A     -0.558962    27A     -0.556677
      28A     -0.525218    29A     -0.521070    30A     -0.505735
      31A     -0.486369    32A     -0.470252    33A     -0.464899
      34A     -0.460166    35A     -0.454851    36A     -0.435106

  @DF-RHF Final Energy:  -422.97402359388224

   => Energetics <=

    Nuclear Repulsion Energy =            452.5338954968191842
    One-Electron Energy =               -1472.7814692074182403
    Two-Electron Energy =                 597.2735501167159100
    DFT Exchange-Correlation Energy =       0.0000000000000000
    Empirical Dispersion Energy =           0.0000000000000000
    PCM Polarization Energy =               0.0000000000000000
    EFP Energy =                            0.0000000000000000
    Total Energy =                       -422.9740235938830892

  Mulliken Charges: (a.u.)
   Center  Symbol    Alpha    Beta     Spin     Total
       1     O     4.28605  4.28605  0.00000 -0.57209
       2     C     2.60516  2.60516  0.00000  0.78968
       3     C     3.20942  3.20942  0.00000 -0.41883
       4     O     4.30740  4.30740  0.00000 -0.61480
       5     C     3.15329  3.15329  0.00000 -0.30658
       6     H     0.40051  0.40051  0.00000  0.19898
       7     H     0.40049  0.40049  0.00000  0.19902
       8     C     3.15420  3.15420  0.00000 -0.30840
       9     H     0.41106  0.41106  0.00000  0.17788
      10     H     0.41043  0.41043  0.00000  0.17915
      11     C     3.15263  3.15263  0.00000 -0.30526
      12     H     0.42438  0.42438  0.00000  0.15124
      13     H     0.42139  0.42139  0.00000  0.15722
      14     C     3.23987  3.23987  0.00000 -0.47975
      15     H     0.42177  0.42177  0.00000  0.15646
      16     H     0.42074  0.42074  0.00000  0.15852
      17     H     0.42193  0.42193  0.00000  0.15613
      18     H     0.41857  0.41857  0.00000  0.16287
      19     H     0.42164  0.42164  0.00000  0.15672
      20     C     3.09244  3.09244  0.00000 -0.18488
      21     H     0.40907  0.40907  0.00000  0.18186
      22     H     0.40846  0.40846  0.00000  0.18309
      23     H     0.40910  0.40910  0.00000  0.18179

   Total alpha = 36.00000, Total beta = 36.00000, Total charge =  0.00000
