                              Psi4 1.0.54 Driver

  ==> Input File <==

--------------------------------------------------------------------------
set {
	reference rhf
	basis cc-pvtz
}

set_num_threads( 4 )
memory 2 gb

molecule MOL {
0 1

H	 -3.230159	 -0.886199	 -0.555000
O	 -2.321472	 -0.864941	 -0.318626
C	 -2.021813	 0.336996	 0.342658
C	 -0.669613	 0.837286	 -0.127252
H	 -2.780861	 1.084746	 0.127159
H	 -2.006390	 0.184138	 1.420053
C	 0.490865	 -0.082543	 0.241244
H	 -0.708709	 0.967192	 -1.204587
H	 -0.507562	 1.822272	 0.303070
C	 1.839800	 0.429565	 -0.255472
H	 0.305636	 -1.070211	 -0.165276
H	 0.527397	 -0.195943	 1.322876
C	 3.001144	 -0.485193	 0.119072
H	 1.804373	 0.541073	 -1.335756
H	 2.020437	 1.423114	 0.146921
H	 2.866892	 -1.477297	 -0.298806
H	 3.943543	 -0.095749	 -0.249061
H	 3.085064	 -0.590459	 1.195790

	symmetry c1
}
set optking {
	frozen_dihedral = ("
		1 2 3 4
	")
}

ee,wfn = optimize('scf', return_wfn=True)
oeprop( wfn, 'DIPOLE', 'QUADRUPOLE', 'MULLIKEN_CHARGES')
f=open( 'psi4out.xyz', 'w' )
f.write( "18  " )
f.write( str(ee) + "\n" )
f.write( MOL.save_string_xyz() )
f.close()
--------------------------------------------------------------------------

    Molecular point group: c1
  Charge       = 0
  Multiplicity = 1
  Basis Set: CC-PVTZ
  Basis Set:
  @DF-RHF Final Energy:  -271.28543586610033
    Total Energy =                       -271.2854358661002152
    Molecular point group: c1
  Basis Set: CC-PVTZ
  Basis Set:
  Basis Set: CC-PVTZ
  Basis Set:
  @DF-RHF Final Energy:  -271.28554489072098
    Total Energy =                       -271.2855448907208711
  Basis Set: CC-PVTZ
  Basis Set:
  Basis Set: CC-PVTZ
  Basis Set:
  @DF-RHF Final Energy:  -271.28557584675366
    Total Energy =                       -271.2855758467535452
  Basis Set: CC-PVTZ
  Basis Set:
  Charge       = 0
  Multiplicity = 1
  Basis Set: CC-PVTZ
  Basis Set:

    Orbital Energies (a.u.)
    -----------------------

    Doubly Occupied:

       1A    -20.545276     2A    -11.266236     3A    -11.210154
       4A    -11.208967     5A    -11.204619     6A    -11.202441
       7A     -1.362954     8A     -1.076334     9A     -1.009962
      10A     -0.914363    11A     -0.819540    12A     -0.786102
      13A     -0.704503    14A     -0.649551    15A     -0.618782
      16A     -0.583982    17A     -0.576149    18A     -0.553130
      19A     -0.519319    20A     -0.514459    21A     -0.489504
      22A     -0.467449    23A     -0.458980    24A     -0.443888
      25A     -0.432413

  @DF-RHF Final Energy:  -271.28557620004756

   => Energetics <=

    Nuclear Repulsion Energy =            249.1825737207995815
    One-Electron Energy =                -861.6981792413445191
    Two-Electron Energy =                 341.2300293204976924
    DFT Exchange-Correlation Energy =       0.0000000000000000
    Empirical Dispersion Energy =           0.0000000000000000
    PCM Polarization Energy =               0.0000000000000000
    EFP Energy =                            0.0000000000000000
    Total Energy =                       -271.2855762000472168
    Molecular point group: c1
  Basis Set: CC-PVTZ
  Basis Set:

  -Total Gradient:
     Atom            X                  Y                   Z
    ------   -----------------  -----------------  -----------------
       1        0.000337224974     0.000539278343    -0.001231235062
       2       -0.000551927955    -0.000556582946     0.001238458079
       3        0.000589484617    -0.000435942325     0.000591768659
       4       -0.000398100899     0.000422276532    -0.000602431683
       5        0.000010846662     0.000006677504    -0.000001872050
       6        0.000034632255     0.000043465530    -0.000019328152
       7       -0.000000968027     0.000009221113     0.000022069364
       8       -0.000020920234    -0.000003297846     0.000012191318
       9       -0.000007111253    -0.000014493817     0.000008585425
      10        0.000013095361    -0.000002833713    -0.000007509273
      11        0.000006447156    -0.000006839766     0.000015574661
      12       -0.000010966669     0.000009416366    -0.000005396295
      13       -0.000002777037    -0.000008473838    -0.000018672402
      14        0.000006324125     0.000010197584    -0.000005307652
      15       -0.000005501205    -0.000008520018     0.000007794428
      16        0.000005077249    -0.000005819524     0.000002806915
      17       -0.000001015260    -0.000003106002    -0.000003376468
      18       -0.000003843857     0.000005376822    -0.000004119812

  **** Optimization is complete! (in 4 steps) ****
    Final optimized geometry and variables:
    Molecular point group: c1

    Geometry (in Angstrom), charge = 0, multiplicity = 1:

    H           -3.220477306854    -0.929480321854    -0.519039764719
    O           -2.315181243186    -0.893062193998    -0.277750508492
    C           -2.020830700676     0.335748105988     0.341215019790
    C           -0.669069770347     0.844886427498    -0.124106817383
    H           -2.782807880857     1.071427729643     0.102034519040
    H           -2.020806987183     0.207234860841     1.420693972280
    C            0.490616205086    -0.077566775162     0.240522875924
    H           -0.704823564488     0.981968679554    -1.200767701114
    H           -0.507804915197     1.826305525036     0.315706733154
    C            1.840076135148     0.432711137642    -0.256470188817
    H            0.302818130165    -1.063965400766    -0.168414984798
    H            0.527418900624    -0.194272712656     1.321599794242
    C            2.999268522055    -0.487918435072     0.110107819086
    H            1.802580705413     0.550434628106    -1.336077843540
    H            2.024774604789     1.423375451407     0.151104748806
    H            2.859871257488    -1.477733783281    -0.311419940436
    H            3.941849903102    -0.100363361232    -0.259564980750
    H            3.086266774594    -0.598081189073     1.186024388280

  Mulliken Charges: (a.u.)
   Center  Symbol    Alpha    Beta     Spin     Total
       1     H     0.39279  0.39279  0.00000  0.21442
       2     O     4.20284  4.20284  0.00000 -0.40567
       3     C     2.97419  2.97419  0.00000  0.05162
       4     C     3.08446  3.08446  0.00000 -0.16892
       5     H     0.46629  0.46629  0.00000  0.06742
       6     H     0.47146  0.47146  0.00000  0.05708
       7     C     3.08906  3.08906  0.00000 -0.17812
       8     H     0.45593  0.45593  0.00000  0.08814
       9     H     0.45632  0.45632  0.00000  0.08735
      10     C     3.08336  3.08336  0.00000 -0.16672
      11     H     0.44416  0.44416  0.00000  0.11167
      12     H     0.45825  0.45825  0.00000  0.08350
      13     C     3.14968  3.14968  0.00000 -0.29936
      14     H     0.45472  0.45472  0.00000  0.09056
      15     H     0.45681  0.45681  0.00000  0.08638
      16     H     0.45436  0.45436  0.00000  0.09127
      17     H     0.44955  0.44955  0.00000  0.10091
      18     H     0.45577  0.45577  0.00000  0.08846

   Total alpha = 25.00000, Total beta = 25.00000, Total charge =  0.00000

*** Psi4 exiting successfully. Buy a developer a beer!
