  ==> Input File <==

--------------------------------------------------------------------------
set {
	reference rhf
	basis cc-pvtz
}

set_num_threads( 4 )
memory 2 gb

molecule MOL {
0 1

H	 -1.088256	 -1.364742	 0.152233
O	 -1.432053	 -0.565244	 -0.200812
C	 -0.727158	 0.534527	 0.310686
C	 0.680222	 0.664433	 -0.252229
H	 -1.306802	 1.408001	 0.044211
H	 -0.690821	 0.490158	 1.397609
C	 0.845363	 0.070429	 -1.647913
H	 0.951958	 1.714762	 -0.266351
H	 1.362370	 0.169796	 0.433816
H	 0.222258	 0.580684	 -2.374208
H	 1.869979	 0.158454	 -1.988450
H	 0.583603	 -0.983268	 -1.660619

	symmetry c1
}
set optking {
	frozen_dihedral = ("
		8 4 3 2
	")
}

ee = optimize('scf')
oeprop('DIPOLE', 'QUADRUPOLE', 'MULLIKEN_CHARGES')
f=open( 'psi4out.xyz', 'w' )
f.write( "12  " )
f.write( str(ee) + "\n" )
f.write( MOL.save_string_xyz() )
f.close()
--------------------------------------------------------------------------

    Molecular point group: c1
  Charge       = 0
  Multiplicity = 1
  Basis Set: CC-PVTZ
  Basis Set:
  @DF-RHF Final Energy:  -193.18558339718675
    Total Energy =                       -193.1855833971868321
    Molecular point group: c1
  Basis Set: CC-PVTZ
  Basis Set:
  Basis Set: CC-PVTZ
  Basis Set:
  @DF-RHF Final Energy:  -193.18637671383718
    Total Energy =                       -193.1863767138370065
  Basis Set: CC-PVTZ
  Basis Set:
  Basis Set: CC-PVTZ
  Basis Set:
  @DF-RHF Final Energy:  -193.18664740761997
    Total Energy =                       -193.1866474076200575
  Basis Set: CC-PVTZ
  Basis Set:
  Basis Set: CC-PVTZ
  Basis Set:
  @DF-RHF Final Energy:  -193.18665746301556
    Total Energy =                       -193.1866574630154787
  Basis Set: CC-PVTZ
  Basis Set:
  Charge       = 0
  Multiplicity = 1
  Basis Set: CC-PVTZ
  Basis Set:

    Orbital Energies (a.u.)
    -----------------------

    Doubly Occupied:

       1A    -20.547257     2A    -11.266308     3A    -11.216952
       4A    -11.205880     5A     -1.364823     6A     -1.046445
       7A     -0.924062     8A     -0.809992     9A     -0.686130
      10A     -0.637663    11A     -0.625954    12A     -0.571603
      13A     -0.528012    14A     -0.513100    15A     -0.487495
      16A     -0.463366    17A     -0.434327

  @DF-RHF Final Energy:  -193.18665841064194

   => Energetics <=

    Nuclear Repulsion Energy =            133.5542740701665707
    One-Electron Energy =                -526.8231302187557503
    Two-Electron Energy =                 200.0821977379471832
    DFT Exchange-Correlation Energy =       0.0000000000000000
    Empirical Dispersion Energy =           0.0000000000000000
    PCM Polarization Energy =               0.0000000000000000
    EFP Energy =                            0.0000000000000000
    Total Energy =                       -193.1866584106419964
    Molecular point group: c1
  Basis Set: CC-PVTZ
  Basis Set:

  -Total Gradient:
     Atom            X                  Y                   Z
    ------   -----------------  -----------------  -----------------
       1       -0.000007347401    -0.000004174041     0.000003815105
       2       -0.001625933676     0.002784167685    -0.003777000378
       3        0.001797166112    -0.003754682919     0.004033021910
       4        0.002032810632     0.000609963202     0.005507679898
       5        0.000018842564     0.000017526805     0.000009508852
       6       -0.000031976613    -0.000065208425    -0.000015636501
       7        0.000045415261     0.000001600332     0.000020823250
       8       -0.002170770430     0.000418845879    -0.005766075472
       9       -0.000037055508    -0.000004714409     0.000001553917
      10       -0.000007422141     0.000001425973    -0.000005957208
      11       -0.000011305273     0.000000157061    -0.000025731771
      12       -0.000002423526    -0.000004907143     0.000013998398

  **** Optimization is complete! (in 5 steps) ****
    Final optimized geometry and variables:
    Molecular point group: c1

    Geometry (in Angstrom), charge = 0, multiplicity = 1:

    H           -0.941402385686    -1.498519654245     0.622985518143
    O           -1.273884097360    -0.696396155668     0.262765367871
    C           -0.537749978506     0.397147985456     0.741707510333
    C            0.893451255671     0.490807144426     0.198767764196
    H           -1.095502132456     1.266369884746     0.418427705190
    H           -0.528689869248     0.410055503591     1.827764377141
    C            1.051010226706    -0.055287002593    -1.219567065706
    H            1.162798673084     1.541927089760     0.169548425464
    H            1.590527696286    -0.010876545428     0.862734560244
    H            0.361781312427     0.427953390375    -1.902546008368
    H            2.058467247747     0.120051652147    -1.579175831816
    H            0.860011633871    -1.119085710260    -1.266917673674

  Mulliken Charges: (a.u.)
   Center  Symbol    Alpha    Beta     Spin     Total
       1     H     0.39529  0.39529  0.00000  0.20942
       2     O     4.20073  4.20073  0.00000 -0.40145
       3     C     2.97686  2.97686  0.00000  0.04628
       4     C     3.10429  3.10429  0.00000 -0.20858
       5     H     0.45701  0.45701  0.00000  0.08598
       6     H     0.46186  0.46186  0.00000  0.07628
       7     C     3.13556  3.13556  0.00000 -0.27113
       8     H     0.45421  0.45421  0.00000  0.09158
       9     H     0.45328  0.45328  0.00000  0.09345
      10     H     0.45292  0.45292  0.00000  0.09417
      11     H     0.45116  0.45116  0.00000  0.09768
      12     H     0.45684  0.45684  0.00000  0.08633

   Total alpha = 17.00000, Total beta = 17.00000, Total charge =  0.00000
