  ==> Input File <==

--------------------------------------------------------------------------
set {
	reference rhf
	basis 6-31G*
}

set_num_threads( 4 )
memory 2 gb

molecule MOL {
0 1

H	 -0.000158	 1.970498	 0.756846
O	 -0.000074	 1.880206	 -0.189275
C	 -0.000015	 0.544847	 -0.545111
C	 -0.861203	 0.338598	 -1.786805
C	 -0.417288	 -0.309936	 0.647042
H	 1.012612	 0.272019	 -0.802508
F	 -0.378459	 1.050151	 -2.782895
F	 -0.896567	 -0.921362	 -2.165762
F	 -2.103712	 0.739189	 -1.569333
F	 0.427903	 -0.127910	 1.639038
F	 -0.435964	 -1.593895	 0.358113
F	 -1.621622	 0.034514	 1.074255

	symmetry c1
}
set optking {
	frozen_dihedral = ("
		6 3 2 1
	")
}

ee = optimize('scf')
oeprop('DIPOLE', 'QUADRUPOLE', 'MULLIKEN_CHARGES')
f=open( 'psi4out.xyz', 'w' )
f.write( "12  " )
f.write( str(ee) + "\n" )
f.write( MOL.save_string_xyz() )
f.close()
--------------------------------------------------------------------------

    Molecular point group: c1
  Charge       = 0
  Multiplicity = 1
  Basis Set: 6-31G*
  Basis Set:
  @DF-RHF Final Energy:  -786.27188720533763
    Total Energy =                       -786.2718872053374071
    Molecular point group: c1
  Basis Set: 6-31G*
  Basis Set:
  Basis Set: 6-31G*
  Basis Set:
  @DF-RHF Final Energy:  -786.27357863497025
    Total Energy =                       -786.2735786349713862
  Basis Set: 6-31G*
  Basis Set:
  Basis Set: 6-31G*
  Basis Set:
  @DF-RHF Final Energy:  -786.27395471674186
    Total Energy =                       -786.2739547167414003
  Basis Set: 6-31G*
  Basis Set:
  Basis Set: 6-31G*
  Basis Set:
  @DF-RHF Final Energy:  -786.27405190804791
    Total Energy =                       -786.2740519080480226
  Basis Set: 6-31G*
  Basis Set:
  Basis Set: 6-31G*
  Basis Set:
  @DF-RHF Final Energy:  -786.27406886255062
    Total Energy =                       -786.2740688625510757
  Basis Set: 6-31G*
  Basis Set:
  Basis Set: 6-31G*
  Basis Set:
  @DF-RHF Final Energy:  -786.27407295709634
    Total Energy =                       -786.2740729570971325
  Basis Set: 6-31G*
  Basis Set:
  Charge       = 0
  Multiplicity = 1
  Basis Set: 6-31G*
  Basis Set:

    Orbital Energies (a.u.)
    -----------------------

    Doubly Occupied:

       1A    -26.371268     2A    -26.367777     3A    -26.365986
       4A    -26.355276     5A    -26.351386     6A    -26.351210
       7A    -20.613777     8A    -11.533302     9A    -11.520066
      10A    -11.349249    11A     -1.769739    12A     -1.753597
      13A     -1.666851    14A     -1.664456    15A     -1.650708
      16A     -1.649003    17A     -1.432185    18A     -1.103815
      19A     -0.998116    20A     -0.936224    21A     -0.869903
      22A     -0.861819    23A     -0.856501    24A     -0.841069
      25A     -0.830665    26A     -0.792959    27A     -0.749333
      28A     -0.734901    29A     -0.718395    30A     -0.717192
      31A     -0.707499    32A     -0.689171    33A     -0.685304
      34A     -0.669045    35A     -0.667573    36A     -0.663952
      37A     -0.652253    38A     -0.648338    39A     -0.615242
      40A     -0.546809    41A     -0.502888

  @DF-RHF Final Energy:  -786.27407386960328

   => Energetics <=

    Nuclear Repulsion Energy =            670.7703016314061415
    One-Electron Energy =               -2428.4391497009601153
    Two-Electron Energy =                 971.3947741999505752
    DFT Exchange-Correlation Energy =       0.0000000000000000
    Empirical Dispersion Energy =           0.0000000000000000
    PCM Polarization Energy =               0.0000000000000000
    EFP Energy =                            0.0000000000000000
    Total Energy =                       -786.2740738696032849
    Molecular point group: c1
  Basis Set: 6-31G*
  Basis Set:

  -Total Gradient:
     Atom            X                  Y                   Z
    ------   -----------------  -----------------  -----------------
       1       -0.002212137441     0.000003564777     0.000090141649
       2        0.002677561384     0.000070591488    -0.000671373570
       3       -0.000001946777    -0.000505484564     0.002330624971
       4       -0.000079557015     0.000022511230    -0.000018803005
       5       -0.000028534189    -0.000018679704     0.000011147365
       6       -0.000409802436     0.000472263203    -0.001799364718
       7        0.000036266489     0.000026771855    -0.000030257545
       8        0.000032455299    -0.000056387421     0.000000873507
       9       -0.000021577364     0.000014247808     0.000039765607
      10       -0.000041023071     0.000003113904     0.000030258971
      11       -0.000020717495    -0.000018898087     0.000002095985
      12        0.000069012610    -0.000013614496     0.000014890802

  **** Optimization is complete! (in 7 steps) ****
    Final optimized geometry and variables:
    Molecular point group: c1

    Geometry (in Angstrom), charge = 0, multiplicity = 1:

    H            0.733592504441     1.858938112136     1.243039075185
    O            0.697990691162     1.724120951008     0.305554040503
    C            0.672808377571     0.378643418562    -0.019494147381
    C           -0.228473539648     0.232248062819    -1.239905757864
    C            0.227409711281    -0.476864432339     1.160371839534
    H            1.653466682266     0.026183695511    -0.318871702526
    F            0.277278905000     0.918532579701    -2.243220157709
    F           -0.302495677580    -1.034336521112    -1.609871326801
    F           -1.448012621098     0.666656731873    -1.018471800321
    F            0.964008637559    -0.150888719908     2.216206926222
    F            0.401720419496    -1.756898760592     0.923602761964
    F           -1.031067670761    -0.279274657316     1.488029271059

  Mulliken Charges: (a.u.)
   Center  Symbol    Alpha    Beta     Spin     Total
       1     H     0.26255  0.26255  0.00000  0.47490
       2     O     4.37208  4.37208  0.00000 -0.74417
       3     C     3.02637  3.02637  0.00000 -0.05273
       4     C     2.43737  2.43737  0.00000  1.12527
       5     C     2.46095  2.46095  0.00000  1.07811
       6     H     0.38585  0.38585  0.00000  0.22830
       7     F     4.67655  4.67655  0.00000 -0.35309
       8     F     4.67941  4.67941  0.00000 -0.35881
       9     F     4.67196  4.67196  0.00000 -0.34392
      10     F     4.68540  4.68540  0.00000 -0.37081
      11     F     4.67092  4.67092  0.00000 -0.34184
      12     F     4.67060  4.67060  0.00000 -0.34119

   Total alpha = 41.00000, Total beta = 41.00000, Total charge = -0.00000
