  ==> Input File <==

--------------------------------------------------------------------------
set {
	reference rhf
	basis 6-31G*
}

set_num_threads( 4 )
memory 2 gb

molecule MOL {
0 1

O	 -2.401811	 -1.061819	 0.800546
C	 -1.900747	 -0.002343	 0.603779
C	 -2.609235	 1.320791	 0.711982
O	 -0.632575	 0.154573	 0.251549
H	 -2.567124	 1.837688	 -0.239854
H	 -3.637224	 1.159113	 0.999969
H	 -2.111369	 1.943707	 1.446054
C	 0.160891	 -1.019931	 0.106212
C	 1.589627	 -0.672828	 0.480843
H	 0.089836	 -1.367806	 -0.916050
H	 -0.238459	 -1.792301	 0.749618
C	 2.246377	 0.346236	 -0.452210
H	 2.163194	 -1.597435	 0.473358
H	 1.604769	 -0.303424	 1.502885
C	 3.691736	 0.652107	 -0.061850
H	 2.219579	 -0.032311	 -1.472055
H	 1.666466	 1.263317	 -0.447249
H	 4.134505	 1.377213	 -0.737283
H	 4.305508	 -0.243868	 -0.089969
H	 3.748266	 1.059562	 0.943567

	symmetry c1
}
set optking {
	frozen_dihedral = ("
		2 4 8 10
	")
}

ee = optimize('scf')
oeprop('DIPOLE', 'QUADRUPOLE', 'MULLIKEN_CHARGES')
f=open( 'psi4out.xyz', 'w' )
f.write( "20  " )
f.write( str(ee) + "\n" )
f.write( MOL.save_string_xyz() )
f.close()
--------------------------------------------------------------------------

    Molecular point group: c1
  Charge       = 0
  Multiplicity = 1
  Basis Set: 6-31G*
  Basis Set:
  @DF-RHF Final Energy:  -383.94413461682700
    Total Energy =                       -383.9441346168271139
    Molecular point group: c1
  Basis Set: 6-31G*
  Basis Set:
  Basis Set: 6-31G*
  Basis Set:
  @DF-RHF Final Energy:  -383.94423132582523
    Total Energy =                       -383.9442313258251716
  Basis Set: 6-31G*
  Basis Set:
  Basis Set: 6-31G*
  Basis Set:
  @DF-RHF Final Energy:  -383.94419532178210
    Total Energy =                       -383.9441953217819901
  Basis Set: 6-31G*
  Basis Set:
  Basis Set: 6-31G*
  Basis Set:
  @DF-RHF Final Energy:  -383.94445018367304
    Total Energy =                       -383.9444501836729842
  Basis Set: 6-31G*
  Basis Set:
  Basis Set: 6-31G*
  Basis Set:
  @DF-RHF Final Energy:  -383.94445159933684
    Total Energy =                       -383.9444515993371851
  Basis Set: 6-31G*
  Basis Set:
  Charge       = 0
  Multiplicity = 1
  Basis Set: 6-31G*
  Basis Set:

    Orbital Energies (a.u.)
    -----------------------

    Doubly Occupied:

       1A    -20.601356     2A    -20.543823     3A    -11.375426
       4A    -11.281724     5A    -11.233166     6A    -11.225454
       7A    -11.220315     8A    -11.213348     9A     -1.466643
      10A     -1.362640    11A     -1.085914    12A     -1.028210
      13A     -0.981179    14A     -0.881167    15A     -0.814510
      16A     -0.769800    17A     -0.693010    18A     -0.684385
      19A     -0.663784    20A     -0.630819    21A     -0.599612
      22A     -0.592864    23A     -0.571071    24A     -0.556836
      25A     -0.543184    26A     -0.527914    27A     -0.515301
      28A     -0.487091    29A     -0.474951    30A     -0.465968
      31A     -0.448787    32A     -0.438004

  @DF-RHF Final Energy:  -383.94445197854697

   => Energetics <=

    Nuclear Repulsion Energy =            384.6615970638334261
    One-Electron Energy =               -1285.2555829854723015
    Two-Electron Energy =                 516.6495339430924787
    DFT Exchange-Correlation Energy =       0.0000000000000000
    Empirical Dispersion Energy =           0.0000000000000000
    PCM Polarization Energy =               0.0000000000000000
    EFP Energy =                            0.0000000000000000
    Total Energy =                       -383.9444519785464536
    Molecular point group: c1
  Basis Set: 6-31G*
  Basis Set:

  -Total Gradient:
     Atom            X                  Y                   Z
    ------   -----------------  -----------------  -----------------
       1        0.000110475119     0.000047470890    -0.000035890693
       2        0.000355336392     0.000015971573     0.001389700926
       3        0.000024698493     0.000028180282    -0.000013052661
       4       -0.000287250504     0.000022644883    -0.002025717312
       5       -0.000003383581     0.000008731067    -0.000000514255
       6       -0.000002297399    -0.000006346910    -0.000003806178
       7        0.000002670600    -0.000010069021    -0.000005659705
       8       -0.001451842199    -0.001114849681     0.001112650136
       9        0.000024106505     0.000010492887    -0.000008957939
      10        0.001257717129     0.000911616908    -0.000441119068
      11       -0.000005457193     0.000076518390     0.000003910345
      12       -0.000022780910     0.000045522556     0.000014379559
      13       -0.000007167045     0.000000014443     0.000007478466
      14       -0.000004788815     0.000010181716     0.000013524161
      15        0.000002270645    -0.000031213076    -0.000012784531
      16       -0.000010198688    -0.000000674500    -0.000000241297
      17        0.000015996112    -0.000007587332     0.000010806880
      18        0.000000123926    -0.000008022233    -0.000007355465
      19        0.000008343794    -0.000001733305     0.000009163955
      20       -0.000006572376     0.000003150468    -0.000006515324

  **** Optimization is complete! (in 6 steps) ****
    Final optimized geometry and variables:
    Molecular point group: c1

    Geometry (in Angstrom), charge = 0, multiplicity = 1:

    O           -2.453297566884    -1.019155896184     0.455621382728
    C           -1.917342113950     0.026948481389     0.281532683466
    C           -2.590174125078     1.367786371110     0.402846409742
    O           -0.640510685979     0.161125610212    -0.050090680559
    H           -2.522303987072     1.897027476443    -0.540663898604
    H           -3.625702148610     1.230200525682     0.675950167568
    H           -2.083904337581     1.965628725151     1.151817922049
    C            0.165389097353    -1.008631939132    -0.173678160437
    C            1.596165786884    -0.647658708508     0.185065564328
    H            0.102532975581    -1.351179705595    -1.200098082421
    H           -0.223503095511    -1.778852493732     0.473055982502
    C            2.231015081236     0.385995231818    -0.746780356526
    H            2.179943970178    -1.565900904199     0.163332506097
    H            1.619284845215    -0.286406210444     1.210083381575
    C            3.678463501333     0.702221772615    -0.372650056854
    H            2.194714952068     0.015637399242    -1.769376019366
    H            1.642037171101     1.297038382582    -0.727419590330
    H            4.106665438083     1.434725176598    -1.049515861110
    H            4.299735620454    -0.188170690579    -0.412900609653
    H            3.744023021293     1.104902215944     0.634161242532

  Mulliken Charges: (a.u.)
   Center  Symbol    Alpha    Beta     Spin     Total
       1     O     4.28301  4.28301  0.00000 -0.56603
       2     C     2.61933  2.61933  0.00000  0.76134
       3     C     3.28203  3.28203  0.00000 -0.56406
       4     O     4.30933  4.30933  0.00000 -0.61866
       5     H     0.40043  0.40043  0.00000  0.19913
       6     H     0.39698  0.39698  0.00000  0.20604
       7     H     0.40108  0.40108  0.00000  0.19784
       8     C     3.00735  3.00735  0.00000 -0.01471
       9     C     3.16325  3.16325  0.00000 -0.32649
      10     H     0.41577  0.41577  0.00000  0.16846
      11     H     0.39704  0.39704  0.00000  0.20592
      12     C     3.15495  3.15495  0.00000 -0.30991
      13     H     0.41885  0.41885  0.00000  0.16230
      14     H     0.41587  0.41587  0.00000  0.16826
      15     C     3.24033  3.24033  0.00000 -0.48067
      16     H     0.42318  0.42318  0.00000  0.15364
      17     H     0.41113  0.41113  0.00000  0.17774
      18     H     0.41762  0.41762  0.00000  0.16477
      19     H     0.42174  0.42174  0.00000  0.15653
      20     H     0.42072  0.42072  0.00000  0.15857

   Total alpha = 32.00000, Total beta = 32.00000, Total charge = -0.00000
