  ==> Input File <==

--------------------------------------------------------------------------
set {
	reference rhf
	basis cc-pvtz
}

set_num_threads( 4 )
memory 2 gb

molecule MOL {
0 1

H	 -3.525828	 0.117825	 0.670102
O	 -3.100036	 -0.268502	 -0.074081
C	 -1.771228	 -0.094630	 -0.020832
C	 -1.156563	 0.579874	 1.026864
C	 -1.015473	 -0.615569	 -1.057963
H	 -1.749626	 0.981210	 1.827884
C	 0.209881	 0.729873	 1.032028
H	 -1.509237	 -1.132240	 -1.856253
C	 0.351789	 -0.456775	 -1.037804
H	 0.696109	 1.248190	 1.834549
C	 0.981121	 0.213562	 0.000000
H	 0.939094	 -0.860520	 -1.841906
C	 2.447402	 0.371303	 0.000000
O	 3.227427	 -0.521847	 0.000000
H	 2.796538	 1.409525	 0.000000

	symmetry c1
}
set optking {
	frozen_dihedral = ("
		7 11 13 14
	")
}

ee = optimize('scf')
oeprop('DIPOLE', 'QUADRUPOLE', 'MULLIKEN_CHARGES')
f=open( 'psi4out.xyz', 'w' )
f.write( "15  " )
f.write( str(ee) + "\n" )
f.write( MOL.save_string_xyz() )
f.close()
--------------------------------------------------------------------------

    Molecular point group: c1
  Charge       = 0
  Multiplicity = 1
  Basis Set: CC-PVTZ
  Basis Set:
  @DF-RHF Final Energy:  -418.43056601800652
    Total Energy =                       -418.4305660180069708
    Molecular point group: c1
  Basis Set: CC-PVTZ
  Basis Set:
  Basis Set: CC-PVTZ
  Basis Set:
  @DF-RHF Final Energy:  -418.43042977891406
    Total Energy =                       -418.4304297789141174
  Basis Set: CC-PVTZ
  Basis Set:
  Basis Set: CC-PVTZ
  Basis Set:
  @DF-RHF Final Energy:  -418.43128121372183
    Total Energy =                       -418.4312812137213768
  Basis Set: CC-PVTZ
  Basis Set:
  Basis Set: CC-PVTZ
  Basis Set:
  @DF-RHF Final Energy:  -418.43175268505104
    Total Energy =                       -418.4317526850510376
  Basis Set: CC-PVTZ
  Basis Set:
  Basis Set: CC-PVTZ
  Basis Set:
  @DF-RHF Final Energy:  -418.43176030449183
    Total Energy =                       -418.4317603044920588
  Basis Set: CC-PVTZ
  Basis Set:
  Basis Set: CC-PVTZ
  Basis Set:
  @DF-RHF Final Energy:  -418.43176216744570
    Total Energy =                       -418.4317621674456404
  Basis Set: CC-PVTZ
  Basis Set:
  Charge       = 0
  Multiplicity = 1
  Basis Set: CC-PVTZ
  Basis Set:

    Orbital Energies (a.u.)
    -----------------------

    Doubly Occupied:

       1A    -20.599044     2A    -20.556495     3A    -11.328158
       4A    -11.314931     5A    -11.256098     6A    -11.250686
       7A    -11.241117     8A    -11.240276     9A    -11.234467
      10A     -1.431258    11A     -1.411206    12A     -1.173194
      13A     -1.043236    14A     -1.038502    15A     -0.893221
      16A     -0.860993    17A     -0.805751    18A     -0.758305
      19A     -0.703895    20A     -0.687321    21A     -0.651360
      22A     -0.631182    23A     -0.609847    24A     -0.608800
      25A     -0.593567    26A     -0.563605    27A     -0.539994
      28A     -0.506746    29A     -0.495071    30A     -0.424608
      31A     -0.358972    32A     -0.329226

  @DF-RHF Final Energy:  -418.43176236556258

   => Energetics <=

    Nuclear Repulsion Energy =            401.9155109681713611
    One-Electron Energy =               -1366.4122854820170687
    Two-Electron Energy =                 546.0650121482833583
    DFT Exchange-Correlation Energy =       0.0000000000000000
    Empirical Dispersion Energy =           0.0000000000000000
    PCM Polarization Energy =               0.0000000000000000
    EFP Energy =                            0.0000000000000000
    Total Energy =                       -418.4317623655623493
    Molecular point group: c1
  Basis Set: CC-PVTZ
  Basis Set:

  -Total Gradient:
     Atom            X                  Y                   Z
    ------   -----------------  -----------------  -----------------
       1        0.000014284760    -0.000001617084    -0.000004030832
       2       -0.000001427385    -0.000030193204     0.000013390529
       3       -0.000003241262     0.000078157140    -0.000056116624
       4        0.000030556829     0.000010641730     0.000018204584
       5       -0.000014411323    -0.000059386111     0.000049127907
       6       -0.000002706053    -0.000002921873    -0.000002165763
       7        0.000224929332    -0.006066402560     0.003112057105
       8        0.000005380053     0.000003307858    -0.000004004083
       9       -0.000014804424     0.000090260083    -0.000041241454
      10       -0.000000723931     0.000036360957    -0.000005581459
      11       -0.000495355423     0.008481499437    -0.000812288285
      12       -0.000001446367     0.000003158467    -0.000007778370
      13        0.000514433997    -0.002081870183    -0.010585045290
      14       -0.000278291334    -0.000455633220     0.008313648645
      15        0.000022822530    -0.000005361438     0.000011823389

  **** Optimization is complete! (in 7 steps) ****
    Final optimized geometry and variables:
    Molecular point group: c1

    Geometry (in Angstrom), charge = 0, multiplicity = 1:

    H           -3.520158722182     0.090658807677     0.722096715542
    O           -3.098334685051    -0.284257017065    -0.029992176837
    C           -1.769501352664    -0.082567191429     0.006192970301
    C           -1.150685630736     0.601872203190     1.035935823622
    C           -1.016093157216    -0.596017801688    -1.039098807692
    H           -1.730378749749     0.986183152128     1.854886846847
    C            0.218128868895     0.787269466007     1.007590182824
    H           -1.511503951033    -1.132042758997    -1.823971005402
    C            0.348044336509    -0.426448551170    -1.041205329261
    H            0.689588792165     1.325127809590     1.809650678702
    C            0.977984898475     0.290946318624    -0.033029420221
    H            0.935243606973    -0.852581043859    -1.831588881792
    C            2.463964370034     0.385320365997     0.026479271817
    O            3.187156423867    -0.550199783151     0.000775455099
    H            2.872129217655     1.391070674039     0.174779979853

  Mulliken Charges: (a.u.)
   Center  Symbol    Alpha    Beta     Spin     Total
       1     H     0.38640  0.38640  0.00000  0.22719
       2     O     4.16893  4.16893  0.00000 -0.33786
       3     C     2.85254  2.85254  0.00000  0.29492
       4     C     3.12863  3.12863  0.00000 -0.25727
       5     C     3.09868  3.09868  0.00000 -0.19735
       6     H     0.43226  0.43226  0.00000  0.13548
       7     C     3.08153  3.08153  0.00000 -0.16307
       8     H     0.41684  0.41684  0.00000  0.16633
       9     C     3.07115  3.07115  0.00000 -0.14231
      10     H     0.42274  0.42274  0.00000  0.15452
      11     C     2.97310  2.97310  0.00000  0.05379
      12     H     0.41621  0.41621  0.00000  0.16758
      13     C     2.93253  2.93253  0.00000  0.13493
      14     O     4.16146  4.16146  0.00000 -0.32293
      15     H     0.45698  0.45698  0.00000  0.08604

   Total alpha = 32.00000, Total beta = 32.00000, Total charge =  0.00000
