                              Psi4 1.0.54 Driver

  ==> Input File <==

--------------------------------------------------------------------------
set {
	reference rhf
	basis cc-pvtz
}

set_num_threads( 4 )
memory 2 gb

molecule MOL {
0 1

H	 3.459101	 0.139266	 -0.762951
C	 2.749156	 -0.051729	 0.031265
C	 1.322304	 0.099773	 -0.484271
H	 2.929445	 -1.053887	 0.403481
H	 2.954281	 0.646699	 0.834672
C	 0.308557	 -0.162619	 0.622645
H	 1.143368	 -0.594400	 -1.295960
H	 1.169532	 1.100095	 -0.870217
N	 -1.069352	 -0.004081	 0.085342
H	 0.371632	 -1.172932	 0.991288
H	 0.400391	 0.548875	 1.426218
O	 -1.657456	 -0.992721	 -0.199791
O	 -1.475760	 1.101258	 -0.048821

	symmetry c1
}
set optking {
	frozen_dihedral = ("
		12 9 6 3
	")
}

ee,wfn = optimize('scf', return_wfn=True)
oeprop( wfn, 'DIPOLE', 'QUADRUPOLE', 'MULLIKEN_CHARGES')
f=open( 'psi4out.xyz', 'w' )
f.write( "13  " )
f.write( str(ee) + "\n" )
f.write( MOL.save_string_xyz() )
f.close()
--------------------------------------------------------------------------

    Molecular point group: c1
  Charge       = 0
  Multiplicity = 1
  Basis Set: CC-PVTZ
  Basis Set:
  @DF-RHF Final Energy:  -321.86148170904295
    Total Energy =                       -321.8614817090427778
    Molecular point group: c1
  Basis Set: CC-PVTZ
  Basis Set:
  Basis Set: CC-PVTZ
  Basis Set:
  @DF-RHF Final Energy:  -321.86036164665416
    Total Energy =                       -321.8603616466540416
  Basis Set: CC-PVTZ
  Basis Set:
  Basis Set: CC-PVTZ
  Basis Set:
  @DF-RHF Final Energy:  -321.86142173494022
    Total Energy =                       -321.8614217349403361
  Basis Set: CC-PVTZ
  Basis Set:
  Basis Set: CC-PVTZ
  Basis Set:
  @DF-RHF Final Energy:  -321.86150197277243
    Total Energy =                       -321.8615019727723734
  Basis Set: CC-PVTZ
  Basis Set:
  Charge       = 0
  Multiplicity = 1
  Basis Set: CC-PVTZ
  Basis Set:

    Orbital Energies (a.u.)
    -----------------------

    Doubly Occupied:

       1A    -20.591428     2A    -20.589450     3A    -15.836996
       4A    -11.297310     5A    -11.253986     6A    -11.237163
       7A     -1.636006     8A     -1.420346     9A     -1.134214
      10A     -1.027882    11A     -0.884087    12A     -0.834236
      13A     -0.761700    14A     -0.738902    15A     -0.727704
      16A     -0.673092    17A     -0.604212    18A     -0.588166
      19A     -0.551472    20A     -0.520795    21A     -0.514486
      22A     -0.487047    23A     -0.475094    24A     -0.453016

  @DF-RHF Final Energy:  -321.86150229179793

   => Energetics <=

    Nuclear Repulsion Energy =            247.9899032754696009
    One-Electron Energy =                -930.0252281633595430
    Two-Electron Energy =                 360.1738225960919522
    DFT Exchange-Correlation Energy =       0.0000000000000000
    Empirical Dispersion Energy =           0.0000000000000000
    PCM Polarization Energy =               0.0000000000000000
    EFP Energy =                            0.0000000000000000
    Total Energy =                       -321.8615022917979900
    Molecular point group: c1
  Basis Set: CC-PVTZ
  Basis Set:

  -Total Gradient:
     Atom            X                  Y                   Z
    ------   -----------------  -----------------  -----------------
       1       -0.000002740436     0.000010074857    -0.000001105473
       2       -0.000012252755     0.000023261173     0.000008742241
       3        0.000032540394     0.000118518861     0.000010286209
       4       -0.000002348606     0.000001895406    -0.000011569716
       5        0.000003291246    -0.000004131032     0.000012106631
       6       -0.000074146356    -0.000222459286     0.000041061274
       7       -0.000003079767    -0.000014994052    -0.000013405176
       8       -0.000005194560    -0.000024180892     0.000006458572
       9        0.000090216252     0.000068357330    -0.000251618416
      10        0.000032107449     0.000008962278    -0.000009174265
      11       -0.000009446012     0.000000252522     0.000012215212
      12       -0.000049803219    -0.000051617777     0.000194063648
      13        0.000000856368     0.000086060609     0.000001939259

  **** Optimization is complete! (in 5 steps) ****
    Final optimized geometry and variables:
    Molecular point group: c1

    Geometry (in Angstrom), charge = 0, multiplicity = 1:

    H            3.461812169185     0.137235780111    -0.763626327567
    C            2.750805232876    -0.053598320498     0.029678135933
    C            1.324769026795     0.104176110668    -0.486352648405
    H            2.928344744109    -1.056907910033     0.400026131702
    H            2.957388739892     0.642650154588     0.834715860800
    C            0.310142413731    -0.158979192730     0.619184692688
    H            1.145569002379    -0.588257291203    -1.300539206069
    H            1.173897645703     1.104639976389    -0.870121463232
    N           -1.069720634486    -0.004835091373     0.084728414440
    H            0.374993389724    -1.165075791383     0.996918261377
    H            0.400020361043     0.559071861632     1.418407003748
    O           -1.659534968600    -0.992380353015    -0.199491915178
    O           -1.478250344441     1.101042088900    -0.041707351984

  Mulliken Charges: (a.u.)
   Center  Symbol    Alpha    Beta     Spin     Total
       1     H     0.44166  0.44166  0.00000  0.11668
       2     C     3.15110  3.15110  0.00000 -0.30220
       3     C     3.09609  3.09609  0.00000 -0.19218
       4     H     0.45161  0.45161  0.00000  0.09678
       5     H     0.45167  0.45167  0.00000  0.09666
       6     C     3.03941  3.03941  0.00000 -0.07883
       7     H     0.43999  0.43999  0.00000  0.12003
       8     H     0.43608  0.43608  0.00000  0.12785
       9     N     3.27613  3.27613  0.00000  0.44773
      10     H     0.43392  0.43392  0.00000  0.13217
      11     H     0.43543  0.43543  0.00000  0.12915
      12     O     4.17183  4.17183  0.00000 -0.34366
      13     O     4.17508  4.17508  0.00000 -0.35017

   Total alpha = 24.00000, Total beta = 24.00000, Total charge =  0.00000

*** Psi4 exiting successfully. Buy a developer a beer!
