  ==> Input File <==

--------------------------------------------------------------------------
set {
	reference rhf
	basis 6-31G*
}

set_num_threads( 1 )
memory 2 gb

molecule MOL {
0 1

H	 -1.334351	 1.734435	 2.672011
O	 -1.004190	 2.384976	 2.068540
C	 -0.545330	 1.756556	 0.901696
C	 0.781323	 1.056640	 1.137862
H	 -1.270773	 1.044894	 0.517471
H	 -0.417679	 2.530281	 0.157717
O	 1.171513	 0.459272	 -0.058250
H	 0.674463	 0.306700	 1.924089
H	 1.520914	 1.780028	 1.475943
C	 2.397842	 -0.198080	 -0.002151
H	 2.508049	 -0.905315	 -0.822092
H	 3.173794	 0.550865	 -0.078850
H	 2.517602	 -0.735921	 0.936026

	symmetry c1
}
set optking {
	frozen_dihedral = ("
		8 4 3 5,
		1 2 3 5,
		10 7 4 8
	")
}

ee = energy('scf')
oeprop('DIPOLE', 'QUADRUPOLE', 'MULLIKEN_CHARGES')
f=open( 'psi4out.xyz', 'w' )
f.write( "13  " )
f.write( str(ee) + "\n" )
f.write( MOL.save_string_xyz() )
f.close()
--------------------------------------------------------------------------

    Molecular point group: c1

    Geometry (in Angstrom), charge = 0, multiplicity = 1:

       Center              X                  Y                   Z               Mass
    ------------   -----------------  -----------------  -----------------  -----------------
           H         -1.882815298387     0.640055663761     1.837866868595     1.007825032070
           O         -1.552654298387     1.290596663761     1.234395868595    15.994914619560
           C         -1.093794298387     0.662176663761     0.067551868595    12.000000000000
           C          0.232858701613    -0.037739336239     0.303717868595    12.000000000000
           H         -1.819237298387    -0.049485336239    -0.316673131405     1.007825032070
           H         -0.966143298387     1.435901663761    -0.676427131405     1.007825032070
           O          0.623048701613    -0.635107336239    -0.892394131405    15.994914619560
           H          0.125998701613    -0.787679336239     1.089944868595     1.007825032070
           H          0.972449701613     0.685648663761     0.641798868595     1.007825032070
           C          1.849377701613    -1.292459336239    -0.836295131405    12.000000000000
           H          1.959584701613    -1.999694336239    -1.656236131405     1.007825032070
           H          2.625329701613    -0.543514336239    -0.912994131405     1.007825032070
           H          1.969137701613    -1.830300336239     0.101881868595     1.007825032070

  Charge       = 0
  Multiplicity = 1
  Basis Set: 6-31G*
  Basis Set:

    Orbital Energies (a.u.)
    -----------------------

    Doubly Occupied:

       1A    -20.560705     2A    -20.560250     3A    -11.271463
       4A    -11.270282     5A    -11.269036     6A     -1.388343
       7A     -1.365245     8A     -1.018182     9A     -0.913245
      10A     -0.842367    11A     -0.709579    12A     -0.673778
      13A     -0.659413    14A     -0.638895    15A     -0.595840
      16A     -0.567946    17A     -0.548695    18A     -0.488612
      19A     -0.481491    20A     -0.438764    21A     -0.419859

  @DF-RHF Final Energy:  -267.94866642472607

   => Energetics <=

    Nuclear Repulsion Energy =            190.2877845534921732
    One-Electron Energy =                -743.1089359004173502
    Two-Electron Energy =                 284.8724849221994191
    DFT Exchange-Correlation Energy =       0.0000000000000000
    Empirical Dispersion Energy =           0.0000000000000000
    PCM Polarization Energy =               0.0000000000000000
    EFP Energy =                            0.0000000000000000
    Total Energy =                       -267.9486664247257295

  Mulliken Charges: (a.u.)
   Center  Symbol    Alpha    Beta     Spin     Total
       1     H     0.28127  0.28127  0.00000  0.43746
       2     O     4.37080  4.37080  0.00000 -0.74161
       3     C     3.00473  3.00473  0.00000 -0.00946
       4     C     2.99681  2.99681  0.00000  0.00639
       5     H     0.42216  0.42216  0.00000  0.15568
       6     H     0.40838  0.40838  0.00000  0.18325
       7     O     4.30861  4.30861  0.00000 -0.61723
       8     H     0.43692  0.43692  0.00000  0.12617
       9     H     0.42378  0.42378  0.00000  0.15244
      10     C     3.07954  3.07954  0.00000 -0.15908
      11     H     0.41221  0.41221  0.00000  0.17557
      12     H     0.42471  0.42471  0.00000  0.15058
      13     H     0.43008  0.43008  0.00000  0.13984

   Total alpha = 21.00000, Total beta = 21.00000, Total charge =  0.00000
