  ==> Input File <==

--------------------------------------------------------------------------
set {
	reference rhf
	basis 6-31G*
}

set_num_threads( 4 )
memory 2 gb

molecule MOL {
0 1

H	 -1.247347	 2.009302	 -0.892364
C	 -1.681721	 1.051800	 -0.620940
O	 -0.774054	 0.001095	 -0.743181
H	 -2.491362	 0.840367	 -1.306584
H	 -2.095060	 1.128758	 0.380270
C	 0.406953	 0.000033	 0.038965
C	 1.527284	 -0.003667	 -0.998752
C	 0.498933	 1.262172	 0.902524
C	 0.494271	 -1.259566	 0.906664
H	 1.452513	 0.873252	 -1.631882
H	 1.448863	 -0.881882	 -1.629595
H	 2.502020	 -0.005104	 -0.521731
H	 0.364280	 2.147110	 0.289513
H	 1.472180	 1.321775	 1.378800
H	 -0.247853	 1.275162	 1.689097
H	 0.356778	 -2.146106	 0.296587
H	 1.467182	 -1.320941	 1.383330
H	 -0.252763	 -1.267328	 1.693119

	symmetry c1
}
set optking {
	frozen_dihedral = ("
		2 3 6 7
	")
}

ee = optimize('scf')
oeprop('DIPOLE', 'QUADRUPOLE', 'MULLIKEN_CHARGES')
f=open( 'psi4out.xyz', 'w' )
f.write( "18  " )
f.write( str(ee) + "\n" )
f.write( MOL.save_string_xyz() )
f.close()
--------------------------------------------------------------------------

    Molecular point group: c1
  Charge       = 0
  Multiplicity = 1
  Basis Set: 6-31G*
  Basis Set:
  @DF-RHF Final Energy:  -271.16696755908589
    Total Energy =                       -271.1669675590858333
    Molecular point group: c1
  Basis Set: 6-31G*
  Basis Set:
  Basis Set: 6-31G*
  Basis Set:
  @DF-RHF Final Energy:  -271.16747241560938
    Total Energy =                       -271.1674724156092680
  Basis Set: 6-31G*
  Basis Set:
  Basis Set: 6-31G*
  Basis Set:
  @DF-RHF Final Energy:  -271.17062554127961
    Total Energy =                       -271.1706255412795485
  Basis Set: 6-31G*
  Basis Set:
  Basis Set: 6-31G*
  Basis Set:
  @DF-RHF Final Energy:  -271.17093702783558
    Total Energy =                       -271.1709370278355209
  Basis Set: 6-31G*
  Basis Set:
  @DF-RHF Final Energy:  -271.17096240283757
    Total Energy =                       -271.1709624028374037
  @DF-RHF Final Energy:  -271.17106992995156
    Total Energy =                       -271.1710699299517273
  Basis Set: 6-31G*
  Basis Set:
  @DF-RHF Final Energy:  -271.17108567107118
    Total Energy =                       -271.1710856710712392
  Basis Set: 6-31G*
  Basis Set:
  Basis Set: 6-31G*
  Basis Set:
  @DF-RHF Final Energy:  -271.17107983228971
    Total Energy =                       -271.1710798322898199
  Basis Set: 6-31G*
  Basis Set:
  Basis Set: 6-31G*
  Basis Set:
  @DF-RHF Final Energy:  -271.17108812176326
    Total Energy =                       -271.1710881217630913
  Basis Set: 6-31G*
  Basis Set:
  Charge       = 0
  Multiplicity = 1
  Basis Set: 6-31G*
  Basis Set:

    Orbital Energies (a.u.)
    -----------------------

    Doubly Occupied:

       1A    -20.543321     2A    -11.281842     3A    -11.262239
       4A    -11.213911     5A    -11.203361     6A    -11.203281
       7A     -1.365776     8A     -1.074026     9A     -0.950843
      10A     -0.934171    11A     -0.911606    12A     -0.751149
      13A     -0.656289    14A     -0.645960    15A     -0.636414
      16A     -0.581069    17A     -0.577626    18A     -0.546788
      19A     -0.544004    20A     -0.525957    21A     -0.514821
      22A     -0.490391    23A     -0.482394    24A     -0.441578
      25A     -0.395451

  @DF-RHF Final Energy:  -271.17108811587610

   => Energetics <=

    Nuclear Repulsion Energy =            271.6356656591363503
    One-Electron Energy =                -906.1449771962753630
    Two-Electron Energy =                 363.3382234212627964
    DFT Exchange-Correlation Energy =       0.0000000000000000
    Empirical Dispersion Energy =           0.0000000000000000
    PCM Polarization Energy =               0.0000000000000000
    EFP Energy =                            0.0000000000000000
    Total Energy =                       -271.1710881158761595
    Molecular point group: c1
  Basis Set: 6-31G*
  Basis Set:

  -Total Gradient:
     Atom            X                  Y                   Z
    ------   -----------------  -----------------  -----------------
       1       -0.000008052322    -0.000001079418     0.000001670044
       2       -0.000105856919    -0.000113772657     0.000187092206
       3        0.000185055904     0.000132629934    -0.000297620602
       4        0.000001410641    -0.000000882625    -0.000000450543
       5        0.000002421694    -0.000004101315     0.000005532450
       6       -0.000077508006     0.000197582387     0.000096947754
       7       -0.000000987419    -0.000205935866     0.000006542095
       8        0.000003736921     0.000005077807    -0.000003188990
       9        0.000004596511    -0.000005602172    -0.000000706590
      10        0.000002671793    -0.000000630060    -0.000011467560
      11       -0.000002465514    -0.000005034473     0.000010839402
      12       -0.000005069172     0.000009506101     0.000002584271
      13        0.000000001567    -0.000000941433     0.000003859267
      14        0.000002854430     0.000001143459    -0.000000908715
      15       -0.000001401064    -0.000001619596     0.000000697030
      16       -0.000000839244    -0.000004234681     0.000000624049
      17       -0.000000977560    -0.000002090228     0.000000260294
      18        0.000000407762    -0.000000015165    -0.000002305863

  **** Optimization is complete! (in 10 steps) ****
    Final optimized geometry and variables:
    Molecular point group: c1

    Geometry (in Angstrom), charge = 0, multiplicity = 1:

    H           -1.429751016293     1.765022518443    -0.875839967199
    C           -1.804858137891     0.803996679730    -0.535280670931
    O           -0.849305121722    -0.205266521359    -0.617214827568
    H           -2.615225327202     0.507556211550    -1.188127550250
    H           -2.203934075009     0.922888207306     0.467949585705
    C            0.369192401216    -0.152574970178     0.116652024899
    C            1.491866407419    -0.175285701981    -0.921043676871
    C            0.510772238021     1.082245941923     1.011921528416
    C            0.401129546180    -1.419716894258     0.971554817391
    H            1.449297686478     0.712285097489    -1.544368858812
    H            1.384803785193    -1.041442534212    -1.564013230679
    H            2.468367512222    -0.214680502928    -0.447713385374
    H            0.495260109294     2.003681990995     0.440805909888
    H            1.462637600864     1.035360682225     1.529684231690
    H           -0.268071538136     1.130098929388     1.764663207954
    H            0.282789186810    -2.294600661188     0.342495442884
    H            1.337703225444    -1.508186743256     1.513909539034
    H           -0.411818621687    -1.411315600720     1.690538083835

  Mulliken Charges: (a.u.)
   Center  Symbol    Alpha    Beta     Spin     Total
       1     H     0.43085  0.43085  0.00000  0.13830
       2     C     3.07454  3.07454  0.00000 -0.14908
       3     O     4.32620  4.32620  0.00000 -0.65241
       4     H     0.41245  0.41245  0.00000  0.17509
       5     H     0.43064  0.43064  0.00000  0.13872
       6     C     2.83895  2.83895  0.00000  0.32210
       7     C     3.23153  3.23153  0.00000 -0.46305
       8     C     3.25849  3.25849  0.00000 -0.51698
       9     C     3.23144  3.23144  0.00000 -0.46288
      10     H     0.42036  0.42036  0.00000  0.15927
      11     H     0.41332  0.41332  0.00000  0.17335
      12     H     0.42618  0.42618  0.00000  0.14765
      13     H     0.41573  0.41573  0.00000  0.16855
      14     H     0.41406  0.41406  0.00000  0.17188
      15     H     0.41559  0.41559  0.00000  0.16881
      16     H     0.41329  0.41329  0.00000  0.17342
      17     H     0.42620  0.42620  0.00000  0.14760
      18     H     0.42017  0.42017  0.00000  0.15967

   Total alpha = 25.00000, Total beta = 25.00000, Total charge =  0.00000
