                              Psi4 1.0.54 Driver

  ==> Input File <==

--------------------------------------------------------------------------
set {
	reference rhf
	basis cc-pvtz
}

set_num_threads( 4 )
memory 2 gb

molecule MOL {
0 1

H	 -2.816532	 0.825915	 -2.211092
O	 -2.025336	 0.309112	 -2.236422
C	 -1.265947	 0.650644	 -1.199300
C	 0.020195	 -0.129707	 -1.168951
O	 -1.598663	 1.476073	 -0.420881
C	 0.926581	 0.227233	 0.000178
H	 0.517262	 0.037186	 -2.119108
H	 -0.245224	 -1.181894	 -1.155811
C	 2.220156	 -0.582071	 -0.000088
H	 1.155478	 1.286386	 -0.034988
H	 0.392059	 0.065812	 0.929507
C	 3.466689	 0.296012	 -0.000457
H	 2.239073	 -1.234095	 -0.869382
H	 2.239505	 -1.233985	 0.869270
H	 3.493549	 0.935857	 -0.875887
H	 4.368821	 -0.304526	 -0.001199
H	 3.494559	 0.935166	 0.875458

	symmetry c1
}
set optking {
	frozen_dihedral = ("
		10 6 9 13
	")
}

ee,wfn = optimize('scf', return_wfn=True)
oeprop( wfn, 'DIPOLE', 'QUADRUPOLE', 'MULLIKEN_CHARGES')
f=open( 'psi4out.xyz', 'w' )
f.write( "17  " )
f.write( str(ee) + "\n" )
f.write( MOL.save_string_xyz() )
f.close()
--------------------------------------------------------------------------

    Molecular point group: c1
  Charge       = 0
  Multiplicity = 1
  Basis Set: CC-PVTZ
  Basis Set:
  @DF-RHF Final Energy:  -345.04287769315954
    Total Energy =                       -345.0428776931594257
    Molecular point group: c1
  Basis Set: CC-PVTZ
  Basis Set:
  Basis Set: CC-PVTZ
  Basis Set:
  @DF-RHF Final Energy:  -345.04310603666204
    Total Energy =                       -345.0431060366620386
  Basis Set: CC-PVTZ
  Basis Set:
  Basis Set: CC-PVTZ
  Basis Set:
  @DF-RHF Final Energy:  -345.04291482320639
    Total Energy =                       -345.0429148232065586
  Basis Set: CC-PVTZ
  Basis Set:
  Basis Set: CC-PVTZ
  Basis Set:
  @DF-RHF Final Energy:  -345.04319797178943
    Total Energy =                       -345.0431979717893682
  Basis Set: CC-PVTZ
  Basis Set:
  Charge       = 0
  Multiplicity = 1
  Basis Set: CC-PVTZ
  Basis Set:

    Orbital Energies (a.u.)
    -----------------------

    Doubly Occupied:

       1A    -20.604173     2A    -20.540841     3A    -11.373562
       4A    -11.239960     5A    -11.220964     6A    -11.220365
       7A    -11.211713     8A     -1.477636     9A     -1.369250
      10A     -1.090442    11A     -1.019047    12A     -0.914967
      13A     -0.826922    14A     -0.790318    15A     -0.703927
      16A     -0.690916    17A     -0.667666    18A     -0.624068
      19A     -0.601605    20A     -0.590007    21A     -0.568883
      22A     -0.531864    23A     -0.522085    24A     -0.484585
      25A     -0.479686    26A     -0.478291    27A     -0.466338
      28A     -0.445527

  @DF-RHF Final Energy:  -345.04320452231411

   => Energetics <=

    Nuclear Repulsion Energy =            305.1716039785259227
    One-Electron Energy =               -1074.9184003970997310
    Two-Electron Energy =                 424.7035918962602636
    DFT Exchange-Correlation Energy =       0.0000000000000000
    Empirical Dispersion Energy =           0.0000000000000000
    PCM Polarization Energy =               0.0000000000000000
    EFP Energy =                            0.0000000000000000
    Total Energy =                       -345.0432045223135447
    Molecular point group: c1
  Basis Set: CC-PVTZ
  Basis Set:

  -Total Gradient:
     Atom            X                  Y                   Z
    ------   -----------------  -----------------  -----------------
       1       -0.000053134504     0.000023291106    -0.000013131230
       2        0.000042428817    -0.000122347037    -0.000081888209
       3        0.000047933784    -0.000015492345    -0.000089504294
       4       -0.000066726987    -0.000052097216    -0.000064331535
       5        0.000027428144     0.000107407055     0.000203800824
       6       -0.000092123160    -0.000230023754    -0.001178687703
       7        0.000002262383    -0.000004241132    -0.000033154210
       8       -0.000018757281     0.000003523608    -0.000013004475
       9        0.000560985519     0.000932034576    -0.000447406549
      10        0.000020613653     0.000034333636     0.001166908296
      11        0.000012654237     0.000028110149    -0.000018082810
      12        0.000049919328     0.000090388326     0.000000134357
      13       -0.000512708662    -0.000825044461     0.000631840159
      14       -0.000018873391     0.000004962999    -0.000049339705
      15        0.000023646449     0.000026968465    -0.000019020547
      16       -0.000044112870    -0.000015133277    -0.000000530997
      17        0.000018564537     0.000013359301     0.000005398627

  **** Optimization is complete! (in 5 steps) ****
    Final optimized geometry and variables:
    Molecular point group: c1

    Geometry (in Angstrom), charge = 0, multiplicity = 1:

    H           -3.049262429938     0.470916935706    -1.451443641709
    O           -2.255455907611    -0.041690452922    -1.482397651708
    C           -1.487040125548     0.309816251875    -0.455113625942
    C           -0.197077679708    -0.464658215181    -0.433370965126
    O           -1.816697993065     1.136240635273     0.323744690194
    C            0.718606230288    -0.099859823574     0.727215593977
    H            0.291696607753    -0.298670730355    -1.388090434493
    H           -0.457119123442    -1.518009587356    -0.414205890264
    C            2.033508681305    -0.906629432377     0.728928015868
    H            0.931657058016     0.961301638853     0.690248634242
    H            0.183091606253    -0.252997333730     1.655320549121
    C            3.282571112225    -0.030713131935     0.742602723591
    H            2.068237985014    -1.563096039279    -0.135007317608
    H            2.054103598441    -1.563044052206     1.591852676216
    H            3.319805612971     0.610609386713    -0.131920538522
    H            4.183897097236    -0.632787152331     0.751761449271
    H            3.300459025545     0.607939117589     1.619085729529

  Mulliken Charges: (a.u.)
   Center  Symbol    Alpha    Beta     Spin     Total
       1     H     0.38234  0.38234  0.00000  0.23532
       2     O     4.16012  4.16012  0.00000 -0.32023
       3     C     2.80649  2.80649  0.00000  0.38703
       4     C     3.11049  3.11049  0.00000 -0.22098
       5     O     4.19095  4.19095  0.00000 -0.38189
       6     C     3.08959  3.08959  0.00000 -0.17918
       7     H     0.43747  0.43747  0.00000  0.12506
       8     H     0.43668  0.43668  0.00000  0.12663
       9     C     3.08983  3.08983  0.00000 -0.17966
      10     H     0.44583  0.44583  0.00000  0.10835
      11     H     0.44228  0.44228  0.00000  0.11544
      12     C     3.14628  3.14628  0.00000 -0.29255
      13     H     0.45574  0.45574  0.00000  0.08852
      14     H     0.44884  0.44884  0.00000  0.10232
      15     H     0.45551  0.45551  0.00000  0.08898
      16     H     0.44925  0.44925  0.00000  0.10150
      17     H     0.45233  0.45233  0.00000  0.09535

   Total alpha = 28.00000, Total beta = 28.00000, Total charge = -0.00000

*** Psi4 exiting successfully. Buy a developer a beer!
