                              Psi4 1.0.54 Driver

  ==> Input File <==

--------------------------------------------------------------------------
set {
	reference rhf
	basis cc-pvtz
}

set_num_threads( 4 )
memory 2 gb

molecule MOL {
0 1

O	 -2.817697	 1.304178	 0.001046
C	 -2.664672	 0.129869	 0.003507
C	 -3.797908	 -0.860100	 -0.001145
O	 -1.481217	 -0.452708	 0.001092
H	 -4.408836	 -0.679689	 -0.875387
H	 -3.443486	 -1.878443	 -0.002770
H	 -4.412123	 -0.683688	 0.871605
C	 -0.332055	 0.384012	 -0.000250
C	 0.892252	 -0.506059	 -0.000295
H	 -0.360822	 1.020205	 -0.874146
H	 -0.359817	 1.021310	 0.872861
C	 2.188199	 0.299473	 -0.001416
H	 0.857046	 -1.152781	 -0.871031
H	 0.857910	 -1.151798	 0.871202
C	 3.203615	 -0.203302	 -1.023802
H	 1.965519	 1.344259	 -0.203439
H	 2.634512	 0.269543	 0.989484
C	 4.499249	 0.600650	 -1.024424
H	 2.759381	 -0.172215	 -2.014632
H	 3.427042	 -1.247227	 -0.822833
H	 4.312537	 1.643784	 -1.256496
H	 5.197377	 0.218473	 -1.759995
H	 4.985205	 0.560705	 -0.055350

	symmetry c1
}
set optking {
	frozen_dihedral = ("
		16 12 9 13
	")
}

ee,wfn = optimize('scf', return_wfn=True)
oeprop( wfn, 'DIPOLE', 'QUADRUPOLE', 'MULLIKEN_CHARGES')
f=open( 'psi4out.xyz', 'w' )
f.write( "23  " )
f.write( str(ee) + "\n" )
f.write( MOL.save_string_xyz() )
f.close()
--------------------------------------------------------------------------

    Molecular point group: c1
  Charge       = 0
  Multiplicity = 1
  Basis Set: CC-PVTZ
  Basis Set:
  @DF-RHF Final Energy:  -423.13030980916619
    Total Energy =                       -423.1303098091656238
    Molecular point group: c1
  Basis Set: CC-PVTZ
  Basis Set:
  Basis Set: CC-PVTZ
  Basis Set:
  @DF-RHF Final Energy:  -423.13035754474475
    Total Energy =                       -423.1303575447441290
  Basis Set: CC-PVTZ
  Basis Set:
  Basis Set: CC-PVTZ
  Basis Set:
  @DF-RHF Final Energy:  -423.13044136085176
    Total Energy =                       -423.1304413608512505
  Basis Set: CC-PVTZ
  Basis Set:
  Basis Set: CC-PVTZ
  Basis Set:
  @DF-RHF Final Energy:  -423.13056977086006
    Total Energy =                       -423.1305697708603475
  Basis Set: CC-PVTZ
  Basis Set:
  Basis Set: CC-PVTZ
  Basis Set:
  @DF-RHF Final Energy:  -423.13059531240117
    Total Energy =                       -423.1305953124008283
  Basis Set: CC-PVTZ
  Basis Set:
  Charge       = 0
  Multiplicity = 1
  Basis Set: CC-PVTZ
  Basis Set:

    Orbital Energies (a.u.)
    -----------------------

    Doubly Occupied:

       1A    -20.596003     2A    -20.529673     3A    -11.366564
       4A    -11.280057     5A    -11.230743     6A    -11.221967
       7A    -11.221239     8A    -11.219860     9A    -11.210740
      10A     -1.471394    11A     -1.364207    12A     -1.093568
      13A     -1.043308    14A     -1.003861    15A     -0.931265
      16A     -0.843969    17A     -0.802884    18A     -0.777977
      19A     -0.692434    20A     -0.688346    21A     -0.673788
      22A     -0.640694    23A     -0.611354    24A     -0.587586
      25A     -0.583231    26A     -0.570059    27A     -0.559774
      28A     -0.536532    29A     -0.525891    30A     -0.503605
      31A     -0.494762    32A     -0.478750    33A     -0.468374
      34A     -0.465186    35A     -0.453953    36A     -0.438990

  @DF-RHF Final Energy:  -423.13059508630113

   => Energetics <=

    Nuclear Repulsion Energy =            451.1352527154145946
    One-Electron Energy =               -1470.1665314782303540
    Two-Electron Energy =                 595.9006836765150865
    DFT Exchange-Correlation Energy =       0.0000000000000000
    Empirical Dispersion Energy =           0.0000000000000000
    PCM Polarization Energy =               0.0000000000000000
    EFP Energy =                            0.0000000000000000
    Total Energy =                       -423.1305950863006728
    Molecular point group: c1
  Basis Set: CC-PVTZ
  Basis Set:

  -Total Gradient:
     Atom            X                  Y                   Z
    ------   -----------------  -----------------  -----------------
       1        0.000017992414    -0.000026400937    -0.000026132997
       2        0.000015479024    -0.000012174225     0.000041293915
       3       -0.000003304536     0.000013053415    -0.000014820367
       4       -0.000050909420     0.000004431465    -0.000047490066
       5        0.000024228219     0.000006039439     0.000016474517
       6        0.000000618377    -0.000001685516     0.000002816020
       7        0.000002000915    -0.000004745448    -0.000004359549
       8       -0.000019022264    -0.000013896696     0.000073196213
       9       -0.001626982386     0.002750398913    -0.001220861238
      10       -0.000002839812    -0.000011944000    -0.000004920663
      11        0.000017235970     0.000012821603    -0.000008574728
      12        0.000650415533    -0.001079673310    -0.003030530250
      13        0.001214609582    -0.002062324137     0.001440302149
      14       -0.000006869036    -0.000019601248    -0.000016778038
      15        0.000053922852    -0.000048317287     0.000060858517
      16       -0.000248249684     0.000470030190     0.002770701866
      17       -0.000002914892    -0.000000520424    -0.000010374618
      18       -0.000017817844     0.000030132746    -0.000036796021
      19       -0.000039240990    -0.000048965920     0.000003351475
      20        0.000019739686     0.000022179431     0.000032829282
      21        0.000012011333     0.000011826812     0.000006433023
      22       -0.000002393651     0.000021098889    -0.000015183594
      23       -0.000007709387    -0.000011763759    -0.000011434843

  **** Optimization is complete! (in 6 steps) ****
    Final optimized geometry and variables:
    Molecular point group: c1

    Geometry (in Angstrom), charge = 0, multiplicity = 1:

    O           -2.771544842861     1.227692635005     0.249366041941
    C           -2.623396760008     0.052749140058     0.248130055882
    C           -3.760366853195    -0.932720004408     0.273125999155
    O           -1.442297259133    -0.534190103491     0.224338185568
    H           -4.390527904812    -0.752422063080    -0.587399291280
    H           -3.410055093138    -1.952498535066     0.266516160819
    H           -4.353523969645    -0.751137472399     1.159345958199
    C           -0.291060585092     0.297727787223     0.199163738644
    C            0.931442795707    -0.593267872602     0.172541037685
    H           -0.333969539516     0.934739846891    -0.673760006759
    H           -0.296266050303     0.935541402865     1.072759339424
    C            2.241354674086     0.214278392775     0.189638551903
    H            0.892196498292    -1.234069531458    -0.701491153576
    H            0.892207730041    -1.260339900224     1.026278018117
    C            3.285807012385    -0.289474207481    -0.801769374125
    H            2.033678598577     1.263904670642    -0.003016472199
    H            2.663570548295     0.190890349551     1.189551519973
    C            4.587638619024     0.502092218827    -0.754182397548
    H            2.872982293374    -0.248266643278    -1.805932741561
    H            3.491671795803    -1.337311244345    -0.600727793119
    H            4.416995053109     1.549670588972    -0.979012568890
    H            5.303893174168     0.122226672875    -1.473404795481
    H            5.044142952674     0.446308565211     0.228389772824

  Mulliken Charges: (a.u.)
   Center  Symbol    Alpha    Beta     Spin     Total
       1     O     4.20236  4.20236  0.00000 -0.40473
       2     C     2.81471  2.81471  0.00000  0.37057
       3     C     3.13984  3.13984  0.00000 -0.27968
       4     O     4.14574  4.14574  0.00000 -0.29149
       5     H     0.44213  0.44213  0.00000  0.11574
       6     H     0.44179  0.44179  0.00000  0.11643
       7     H     0.44211  0.44211  0.00000  0.11578
       8     C     2.97806  2.97806  0.00000  0.04388
       9     C     3.08557  3.08557  0.00000 -0.17114
      10     H     0.45413  0.45413  0.00000  0.09175
      11     H     0.45272  0.45272  0.00000  0.09456
      12     C     3.10175  3.10175  0.00000 -0.20350
      13     H     0.45074  0.45074  0.00000  0.09852
      14     H     0.44846  0.44846  0.00000  0.10309
      15     C     3.08399  3.08399  0.00000 -0.16798
      16     H     0.45362  0.45362  0.00000  0.09277
      17     H     0.44990  0.44990  0.00000  0.10021
      18     C     3.14969  3.14969  0.00000 -0.29938
      19     H     0.45361  0.45361  0.00000  0.09277
      20     H     0.45239  0.45239  0.00000  0.09522
      21     H     0.45428  0.45428  0.00000  0.09144
      22     H     0.44776  0.44776  0.00000  0.10449
      23     H     0.45465  0.45465  0.00000  0.09070

   Total alpha = 36.00000, Total beta = 36.00000, Total charge = -0.00000

*** Psi4 exiting successfully. Buy a developer a beer!
