                              Psi4 1.0.54 Driver

  ==> Input File <==

--------------------------------------------------------------------------
set {
	reference rhf
	basis cc-pvtz
}

set_num_threads( 4 )
memory 2 gb

molecule MOL {
0 1

H	 -3.258660	 -0.290394	 1.471450
C	 -3.307964	 -0.275695	 0.374072
C	 -2.653809	 0.914422	 -0.273689
O	 -3.855140	 -1.148880	 -0.205112
C	 -1.216901	 1.136108	 0.207794
H	 -2.700131	 0.790676	 -1.347875
H	 -3.256452	 1.781007	 -0.010713
C	 -0.247837	 0.040196	 -0.230469
H	 -0.872882	 2.093195	 -0.169002
H	 -1.209325	 1.218376	 1.291938
C	 1.181757	 0.280428	 0.247371
H	 -0.259600	 -0.030819	 -1.314870
H	 -0.591284	 -0.923375	 0.136958
C	 2.151032	 -0.811012	 -0.202643
H	 1.515939	 1.247397	 -0.115449
H	 1.191514	 0.341223	 1.333422
C	 3.580021	 -0.656538	 0.320835
H	 2.170545	 -0.847575	 -1.289412
H	 1.766632	 -1.772905	 0.124928
C	 3.890116	 0.704672	 0.938923
H	 4.266175	 -0.828395	 -0.502602
H	 3.781253	 -1.437521	 1.049448
H	 3.691732	 1.506307	 0.234636
H	 3.299327	 0.891557	 1.827589
H	 4.933981	 0.768067	 1.224040

	symmetry c1
}
set optking {
	frozen_dihedral = ("
		20 17 14 18
	")
}

ee,wfn = optimize('scf', return_wfn=True)
oeprop( wfn, 'DIPOLE', 'QUADRUPOLE', 'MULLIKEN_CHARGES')
f=open( 'psi4out.xyz', 'w' )
f.write( "25  " )
f.write( str(ee) + "\n" )
f.write( MOL.save_string_xyz() )
f.close()
--------------------------------------------------------------------------

    Molecular point group: c1
  Charge       = 0
  Multiplicity = 1
  Basis Set: CC-PVTZ
  Basis Set:
  @DF-RHF Final Energy:  -387.25112033088072
    Total Energy =                       -387.2511203308806671
    Molecular point group: c1
  Basis Set: CC-PVTZ
  Basis Set:
  Basis Set: CC-PVTZ
  Basis Set:
  @DF-RHF Final Energy:  -387.25049136781354
    Total Energy =                       -387.2504913678131970
  Basis Set: CC-PVTZ
  Basis Set:
  Basis Set: CC-PVTZ
  Basis Set:
  @DF-RHF Final Energy:  -387.25285821590563
    Total Energy =                       -387.2528582159052348
  Basis Set: CC-PVTZ
  Basis Set:
  Basis Set: CC-PVTZ
  Basis Set:
  @DF-RHF Final Energy:  -387.25280981143368
    Total Energy =                       -387.2528098114339628
  Basis Set: CC-PVTZ
  Basis Set:
  @DF-RHF Final Energy:  -387.25224604479780
    Total Energy =                       -387.2522460447983121
  @DF-RHF Final Energy:  -387.25293554084533
    Total Energy =                       -387.2529355408447600
  Basis Set: CC-PVTZ
  Basis Set:
  @DF-RHF Final Energy:  -387.25293544018297
    Total Energy =                       -387.2529354401825685
  Basis Set: CC-PVTZ
  Basis Set:
  Basis Set: CC-PVTZ
  Basis Set:
  @DF-RHF Final Energy:  -387.25294885447005
    Total Energy =                       -387.2529488544703327
  Basis Set: CC-PVTZ
  Basis Set:
  Basis Set: CC-PVTZ
  Basis Set:
  @DF-RHF Final Energy:  -387.25294996530454
    Total Energy =                       -387.2529499653045377
  Basis Set: CC-PVTZ
  Basis Set:
  Charge       = 0
  Multiplicity = 1
  Basis Set: CC-PVTZ
  Basis Set:

    Orbital Energies (a.u.)
    -----------------------

    Doubly Occupied:

       1A    -20.551341     2A    -11.320959     3A    -11.233759
       4A    -11.232765     5A    -11.221550     6A    -11.217977
       7A    -11.216438     8A    -11.215055     9A    -11.208965
      10A     -1.406344    11A     -1.104638    12A     -1.067999
      13A     -1.013751    14A     -0.943179    15A     -0.879197
      16A     -0.823529    17A     -0.788507    18A     -0.774794
      19A     -0.667934    20A     -0.665142    21A     -0.638766
      22A     -0.623962    23A     -0.604614    24A     -0.590364
      25A     -0.576144    26A     -0.553224    27A     -0.534206
      28A     -0.526092    29A     -0.515825    30A     -0.497408
      31A     -0.491009    32A     -0.482219    33A     -0.462135
      34A     -0.449415    35A     -0.443875    36A     -0.411832

  @DF-RHF Final Energy:  -387.25295056382839

   => Energetics <=

    Nuclear Repulsion Energy =            440.5372580914255991
    One-Electron Energy =               -1397.6705973039561286
    Two-Electron Energy =                 569.8803886487022510
    DFT Exchange-Correlation Energy =       0.0000000000000000
    Empirical Dispersion Energy =           0.0000000000000000
    PCM Polarization Energy =               0.0000000000000000
    EFP Energy =                            0.0000000000000000
    Total Energy =                       -387.2529505638282217
    Molecular point group: c1
  Basis Set: CC-PVTZ
  Basis Set:

  -Total Gradient:
     Atom            X                  Y                   Z
    ------   -----------------  -----------------  -----------------
       1       -0.000013099113    -0.000000810395     0.000015614222
       2        0.000045222706    -0.000010290155    -0.000014907803
       3       -0.000003839591     0.000002989857     0.000013703666
       4       -0.000031459735    -0.000034002036    -0.000012710254
       5        0.000013064099     0.000019476914    -0.000018750029
       6       -0.000002872420     0.000010607425    -0.000010248700
       7       -0.000003494494     0.000010491228     0.000012814601
       8       -0.000014044039    -0.000027226979     0.000016912366
       9        0.000014583647    -0.000008690869    -0.000000674349
      10        0.000001909497     0.000011346864     0.000003879597
      11        0.000011974096     0.000024493512    -0.000024522380
      12        0.000000127477     0.000010882672     0.000009943459
      13       -0.000012359945    -0.000005661709    -0.000007568538
      14       -0.000488617502     0.004924991480     0.001424510638
      15        0.000013825671     0.000010385872     0.000003316264
      16       -0.000000969537    -0.000003676739    -0.000008764958
      17        0.001414525373     0.000701323211    -0.004300328281
      18        0.000028898750    -0.004433708704    -0.000067294559
      19        0.000002410092    -0.000009391435     0.000001193846
      20       -0.000984441111    -0.001186176847     0.002958280659
      21       -0.000007864385     0.000001488965    -0.000004290868
      22        0.000008351542    -0.000006998008     0.000002279983
      23        0.000003529335     0.000001578807    -0.000000025939
      24       -0.000009699151     0.000001505599     0.000000705597
      25        0.000014338732    -0.000004928530     0.000006931761

  **** Optimization is complete! (in 10 steps) ****
    Final optimized geometry and variables:
    Molecular point group: c1

    Geometry (in Angstrom), charge = 0, multiplicity = 1:

    H           -3.275248222503    -0.305528600738     1.247781852053
    C           -3.295383372489    -0.167778482652     0.158010314721
    C           -2.577388514248     1.057499225526    -0.339267152986
    O           -3.862317320095    -0.947333478912    -0.526252981164
    C           -1.146829772906     1.164922273320     0.196838916615
    H           -2.598951703756     1.053974570179    -1.421356192452
    H           -3.152843219533     1.914621842648     0.003598113365
    C           -0.211279221232     0.080414759345    -0.333181225848
    H           -0.753936058204     2.140695114565    -0.067400966796
    H           -1.166474076074     1.131801590135     1.283436530519
    C            1.214118306265     0.210873989624     0.197330479670
    H           -0.198671088447     0.122479489460    -1.419009735364
    H           -0.601901011567    -0.900667552283    -0.075559606716
    C            2.136507694686    -0.879096616870    -0.343778232627
    H            1.598782866913     1.191910356381    -0.062387244384
    H            1.192332153416     0.168326030713     1.282826098617
    C            3.607790074279    -0.873111222353     0.142200222425
    H            2.117829219928    -0.862587295458    -1.429352878065
    H            1.703080477337    -1.840278846518    -0.083134328105
    C            4.109636349863     0.400485611590     0.821756199462
    H            4.254383121856    -1.099383953042    -0.697924119307
    H            3.743050626975    -1.689672339468     0.844032861481
    H            4.056015910807     1.261770163032     0.164834377891
    H            3.544971537412     0.630590386685     1.716551926285
    H            5.146813943004     0.278936177941     1.112742985382

  Mulliken Charges: (a.u.)
   Center  Symbol    Alpha    Beta     Spin     Total
       1     H     0.46412  0.46412  0.00000  0.07177
       2     C     2.90487  2.90487  0.00000  0.19026
       3     C     3.08894  3.08894  0.00000 -0.17787
       4     O     4.16634  4.16634  0.00000 -0.33268
       5     C     3.11617  3.11617  0.00000 -0.23234
       6     H     0.44290  0.44290  0.00000  0.11421
       7     H     0.44053  0.44053  0.00000  0.11895
       8     C     3.09122  3.09122  0.00000 -0.18243
       9     H     0.44319  0.44319  0.00000  0.11363
      10     H     0.44999  0.44999  0.00000  0.10003
      11     C     3.09052  3.09052  0.00000 -0.18104
      12     H     0.44989  0.44989  0.00000  0.10022
      13     H     0.44825  0.44825  0.00000  0.10350
      14     C     3.09986  3.09986  0.00000 -0.19972
      15     H     0.45038  0.45038  0.00000  0.09923
      16     H     0.45283  0.45283  0.00000  0.09433
      17     C     3.08783  3.08783  0.00000 -0.17567
      18     H     0.45090  0.45090  0.00000  0.09819
      19     H     0.45065  0.45065  0.00000  0.09870
      20     C     3.15770  3.15770  0.00000 -0.31540
      21     H     0.44956  0.44956  0.00000  0.10088
      22     H     0.45260  0.45260  0.00000  0.09480
      23     H     0.45374  0.45374  0.00000  0.09252
      24     H     0.45306  0.45306  0.00000  0.09387
      25     H     0.44397  0.44397  0.00000  0.11206

   Total alpha = 36.00000, Total beta = 36.00000, Total charge =  0.00000

*** Psi4 exiting successfully. Buy a developer a beer!
