  ==> Input File <==

--------------------------------------------------------------------------
set {
	reference rhf
	basis 6-31G*
}

set_num_threads( 4 )
memory 2 gb

molecule MOL {
0 1

H	 -1.959318	 0.103823	 -2.748434
N	 -1.012776	 -0.045163	 -2.457168
C	 -0.924358	 -1.179672	 -1.554850
H	 -0.712503	 0.783842	 -1.982094
C	 0.506821	 -1.365052	 -1.096053
H	 -1.559310	 -1.089230	 -0.672434
H	 -1.234284	 -2.072705	 -2.088909
O	 0.874168	 -0.245412	 -0.342030
H	 0.594829	 -2.268145	 -0.492467
H	 1.157927	 -1.467320	 -1.961407
C	 2.202317	 -0.244239	 0.074611
H	 2.711377	 -1.041390	 -0.449894
H	 2.692099	 0.699270	 -0.159667
H	 2.283185	 -0.418429	 1.145558

	symmetry c1
}
set optking {
	frozen_dihedral = ("
		5 8 11 13
	")
}

ee = optimize('scf')
oeprop('DIPOLE', 'QUADRUPOLE', 'MULLIKEN_CHARGES')
f=open( 'psi4out.xyz', 'w' )
f.write( "14  " )
f.write( str(ee) + "\n" )
f.write( MOL.save_string_xyz() )
f.close()
--------------------------------------------------------------------------

    Molecular point group: c1
  Charge       = 0
  Multiplicity = 1
  Basis Set: 6-31G*
  Basis Set:
  @DF-RHF Final Energy:  -248.12052107532688
    Total Energy =                       -248.1205210753269057
    Molecular point group: c1
  Basis Set: 6-31G*
  Basis Set:
  Basis Set: 6-31G*
  Basis Set:
  @DF-RHF Final Energy:  -248.12136238181486
    Total Energy =                       -248.1213623818148903
  Basis Set: 6-31G*
  Basis Set:
  Basis Set: 6-31G*
  Basis Set:
  @DF-RHF Final Energy:  -248.12165532025008
    Total Energy =                       -248.1216553202501132
  Basis Set: 6-31G*
  Basis Set:
  Charge       = 0
  Multiplicity = 1
  Basis Set: 6-31G*
  Basis Set:

    Orbital Energies (a.u.)
    -----------------------

    Doubly Occupied:

       1A    -20.553855     2A    -15.527913     3A    -11.266115
       4A    -11.265796     5A    -11.240209     6A     -1.376633
       7A     -1.173042     8A     -0.998926     9A     -0.907461
      10A     -0.814761    11A     -0.682207    12A     -0.671582
      13A     -0.642953    14A     -0.609865    15A     -0.605052
      16A     -0.538666    17A     -0.535532    18A     -0.496125
      19A     -0.471339    20A     -0.412528    21A     -0.379632

  @DF-RHF Final Energy:  -248.12165754464698

   => Energetics <=

    Nuclear Repulsion Energy =            194.4256318293095944
    One-Electron Energy =                -722.7541914934106444
    Two-Electron Energy =                 280.2069021194538436
    DFT Exchange-Correlation Energy =       0.0000000000000000
    Empirical Dispersion Energy =           0.0000000000000000
    PCM Polarization Energy =               0.0000000000000000
    EFP Energy =                            0.0000000000000000
    Total Energy =                       -248.1216575446471779
    Molecular point group: c1
  Basis Set: 6-31G*
  Basis Set:

  -Total Gradient:
     Atom            X                  Y                   Z
    ------   -----------------  -----------------  -----------------
       1        0.000003766862    -0.000014313651     0.000008710328
       2        0.000005742409    -0.000005719320     0.000009585480
       3       -0.000020621380     0.000024357817     0.000001935247
       4        0.000004661527    -0.000009503658     0.000000903763
       5        0.000338429691     0.000577134978    -0.001053102683
       6        0.000013173327     0.000004150790    -0.000007142232
       7       -0.000010747300    -0.000006885240    -0.000015518833
       8       -0.000243407979    -0.000901067121     0.001236684501
       9        0.000004397151     0.000032129349    -0.000000914564
      10        0.000020450010     0.000018486627     0.000015245041
      11       -0.000495946971     0.000829829333     0.001192325018
      12        0.000045366090    -0.000016035090    -0.000013745782
      13        0.000351636402    -0.000557580122    -0.001385955148
      14       -0.000016899841     0.000025015307     0.000010989865

  **** Optimization is complete! (in 4 steps) ****
    Final optimized geometry and variables:
    Molecular point group: c1

    Geometry (in Angstrom), charge = 0, multiplicity = 1:

    H           -2.291377271577     0.731938512414    -1.664849592308
    N           -1.345772623625     0.567691379717    -1.378920818166
    C           -1.269278041542    -0.574458910060    -0.485220311289
    H           -1.032167465561     1.388546990118    -0.898446460364
    C            0.160803397874    -0.783354536199    -0.033346946860
    H           -1.899751805670    -0.481931001593     0.400109663750
    H           -1.593025158110    -1.459516560986    -1.024484727877
    O            0.544240971108     0.331873614232     0.721136773364
    H            0.234615241479    -1.690709715237     0.565072832791
    H            0.804970574968    -0.891265825323    -0.902127238436
    C            1.875312169111     0.360250068109     1.145423221662
    H            2.467901457852    -0.411690064753     0.663645888814
    H            2.307371679400     1.321201051916     0.891616313510
    H            1.931996760307     0.216464891480     2.219841683775

  Mulliken Charges: (a.u.)
   Center  Symbol    Alpha    Beta     Spin     Total
       1     H     0.33295  0.33295  0.00000  0.33409
       2     N     3.92533  3.92533  0.00000 -0.85065
       3     C     3.06902  3.06902  0.00000 -0.13804
       4     H     0.32361  0.32361  0.00000  0.35278
       5     C     2.98966  2.98966  0.00000  0.02068
       6     H     0.42666  0.42666  0.00000  0.14667
       7     H     0.42069  0.42069  0.00000  0.15862
       8     O     4.31450  4.31450  0.00000 -0.62900
       9     H     0.43115  0.43115  0.00000  0.13769
      10     H     0.42204  0.42204  0.00000  0.15592
      11     C     3.07534  3.07534  0.00000 -0.15068
      12     H     0.42846  0.42846  0.00000  0.14309
      13     H     0.41800  0.41800  0.00000  0.16401
      14     H     0.42259  0.42259  0.00000  0.15481

   Total alpha = 21.00000, Total beta = 21.00000, Total charge =  0.00000
