                              Psi4 1.0.54 Driver

  ==> Input File <==

--------------------------------------------------------------------------
set {
	reference rhf
	basis cc-pvtz
}

set_num_threads( 4 )
memory 2 gb

molecule MOL {
0 1

H	 -2.816458	 -0.841657	 -0.064679
N	 -1.878861	 -0.711874	 0.250184
C	 -1.341419	 0.551458	 -0.220231
H	 -1.333674	 -1.468530	 -0.105118
C	 0.108341	 0.395316	 -0.618306
H	 -1.887305	 0.966302	 -1.066669
H	 -1.395247	 1.273705	 0.586933
O	 0.183969	 -0.464967	 -1.714618
H	 0.527615	 1.366977	 -0.875711
H	 0.675015	 -0.010092	 0.216831
C	 1.476566	 -0.746824	 -2.137664
H	 1.410961	 -1.413196	 -2.985620
H	 2.000859	 0.156241	 -2.443089
H	 2.054625	 -1.231791	 -1.354581

	symmetry c1
}
set optking {
	frozen_dihedral = ("
		6 3 2 4
	")
}

ee,wfn = optimize('scf', return_wfn=True)
oeprop( wfn, 'DIPOLE', 'QUADRUPOLE', 'MULLIKEN_CHARGES')
f=open( 'psi4out.xyz', 'w' )
f.write( "14  " )
f.write( str(ee) + "\n" )
f.write( MOL.save_string_xyz() )
f.close()
--------------------------------------------------------------------------

    Molecular point group: c1
  Charge       = 0
  Multiplicity = 1
  Basis Set: CC-PVTZ
  Basis Set:
  @DF-RHF Final Energy:  -248.22253231713211
    Total Energy =                       -248.2225323171319360
    Molecular point group: c1
  Basis Set: CC-PVTZ
  Basis Set:
  Basis Set: CC-PVTZ
  Basis Set:
  @DF-RHF Final Energy:  -248.22285137359310
    Total Energy =                       -248.2228513735931301
  Basis Set: CC-PVTZ
  Basis Set:
  Basis Set: CC-PVTZ
  Basis Set:
  @DF-RHF Final Energy:  -248.22294603818818
    Total Energy =                       -248.2229460381880699
  Basis Set: CC-PVTZ
  Basis Set:
  Basis Set: CC-PVTZ
  Basis Set:
  @DF-RHF Final Energy:  -248.22294897496431
    Total Energy =                       -248.2229489749643676
  Basis Set: CC-PVTZ
  Basis Set:
  Charge       = 0
  Multiplicity = 1
  Basis Set: CC-PVTZ
  Basis Set:

    Orbital Energies (a.u.)
    -----------------------

    Doubly Occupied:

       1A    -20.554275     2A    -15.520180     3A    -11.269206
       4A    -11.266799     5A    -11.239947     6A     -1.388436
       7A     -1.173245     8A     -1.002387     9A     -0.911074
      10A     -0.819986    11A     -0.690219    12A     -0.670487
      13A     -0.654511    14A     -0.621493    15A     -0.591305
      16A     -0.550831    17A     -0.535476    18A     -0.502878
      19A     -0.473679    20A     -0.423743    21A     -0.378752

  @DF-RHF Final Energy:  -248.22294933760855

   => Energetics <=

    Nuclear Repulsion Energy =            194.5808502817260432
    One-Electron Energy =                -723.1297766740033239
    Two-Electron Energy =                 280.3259770546687832
    DFT Exchange-Correlation Energy =       0.0000000000000000
    Empirical Dispersion Energy =           0.0000000000000000
    PCM Polarization Energy =               0.0000000000000000
    EFP Energy =                            0.0000000000000000
    Total Energy =                       -248.2229493376084974
    Molecular point group: c1
  Basis Set: CC-PVTZ
  Basis Set:

  -Total Gradient:
     Atom            X                  Y                   Z
    ------   -----------------  -----------------  -----------------
       1       -0.000025085746     0.000007727404    -0.000011158269
       2       -0.003509290097     0.000466443930    -0.003036302821
       3        0.003154063008    -0.002297392129    -0.002293483364
       4        0.002384517409     0.000023469189     0.003003080997
       5       -0.000042324722    -0.000057471986     0.000025198459
       6       -0.002001492156     0.001814057753     0.002317127708
       7        0.000001541141    -0.000002850204     0.000014882862
       8        0.000021158837     0.000038899513     0.000006675323
       9        0.000009369825     0.000004818467    -0.000020791341
      10        0.000007109109     0.000009365209     0.000008512163
      11        0.000001914439     0.000000776004    -0.000012993800
      12        0.000006848785    -0.000003950547    -0.000001286059
      13       -0.000002364478    -0.000003450000    -0.000000422526
      14       -0.000005965353    -0.000000442601     0.000000960666

  **** Optimization is complete! (in 5 steps) ****
    Final optimized geometry and variables:
    Molecular point group: c1

    Geometry (in Angstrom), charge = 0, multiplicity = 1:

    H           -2.590626692579    -0.553558739654     0.902562299162
    N           -1.631965759946    -0.471912583578     1.157868209242
    C           -1.045676685575     0.773665011761     0.688776024025
    H           -1.143421467505    -1.255023599536     0.782585718886
    C            0.398201137716     0.598171661840     0.278168577137
    H           -1.607000088429     1.211029239350    -0.132769008229
    H           -1.063847139366     1.504670516754     1.492643162241
    O            0.477277724462    -0.275259399774    -0.805840807651
    H            0.819835984555     1.566436027458     0.015244122211
    H            0.971327245804     0.203925727603     1.116773276843
    C            1.770104157372    -0.527330756532    -1.248023874203
    H            1.708204099924    -1.213017254382    -2.080541604376
    H            2.261237192864     0.384115078778    -1.581566149678
    H            2.377704391348    -0.978479115769    -0.466717128516

  Mulliken Charges: (a.u.)
   Center  Symbol    Alpha    Beta     Spin     Total
       1     H     0.42843  0.42843  0.00000  0.14315
       2     N     3.69647  3.69647  0.00000 -0.39294
       3     C     3.01187  3.01187  0.00000 -0.02373
       4     H     0.42424  0.42424  0.00000  0.15152
       5     C     2.97987  2.97987  0.00000  0.04027
       6     H     0.46293  0.46293  0.00000  0.07414
       7     H     0.46628  0.46628  0.00000  0.06744
       8     O     4.17767  4.17767  0.00000 -0.35534
       9     H     0.46570  0.46570  0.00000  0.06860
      10     H     0.46685  0.46685  0.00000  0.06630
      11     C     3.03256  3.03256  0.00000 -0.06513
      12     H     0.44676  0.44676  0.00000  0.10648
      13     H     0.46989  0.46989  0.00000  0.06021
      14     H     0.47048  0.47048  0.00000  0.05904

   Total alpha = 21.00000, Total beta = 21.00000, Total charge = -0.00000

*** Psi4 exiting successfully. Buy a developer a beer!
