  ==> Input File <==

--------------------------------------------------------------------------
set {
	reference rhf
	basis cc-pvtz
}

set_num_threads( 4 )
memory 2 gb

molecule MOL {
0 1

H	 2.255409	 -1.085792	 1.777242
O	 1.656619	 -1.262169	 1.067258
C	 0.682052	 -0.358016	 1.103960
C	 -0.318151	 -0.570512	 0.000144
O	 0.644440	 0.493899	 1.922981
C	 -1.454884	 0.441630	 -0.000560
H	 0.229475	 -0.548616	 -0.936615
H	 -0.693226	 -1.584149	 0.098933
C	 -2.822577	 -0.232186	 0.000063
H	 -1.359760	 1.084704	 -0.867077
H	 -1.359641	 1.085996	 0.864983
H	 -2.954352	 -0.858985	 -0.875745
H	 -3.615886	 0.505352	 0.000019
H	 -2.953878	 -0.858359	 0.876394

	symmetry c1
}
set optking {
	frozen_dihedral = ("
		7 4 6 10
	")
}

ee = optimize('scf')
oeprop('DIPOLE', 'QUADRUPOLE', 'MULLIKEN_CHARGES')
f=open( 'psi4out.xyz', 'w' )
f.write( "14  " )
f.write( str(ee) + "\n" )
f.write( MOL.save_string_xyz() )
f.close()
--------------------------------------------------------------------------

    Molecular point group: c1
  Charge       = 0
  Multiplicity = 1
  Basis Set: CC-PVTZ
  Basis Set:
  @DF-RHF Final Energy:  -305.99603214158697
    Total Energy =                       -305.9960321415869089
    Molecular point group: c1
  Basis Set: CC-PVTZ
  Basis Set:
  Basis Set: CC-PVTZ
  Basis Set:
  @DF-RHF Final Energy:  -305.99633383045284
    Total Energy =                       -305.9963338304529543
  Basis Set: CC-PVTZ
  Basis Set:
  Basis Set: CC-PVTZ
  Basis Set:
  @DF-RHF Final Energy:  -305.99621693826407
    Total Energy =                       -305.9962169382642401
  Basis Set: CC-PVTZ
  Basis Set:
  Basis Set: CC-PVTZ
  Basis Set:
  @DF-RHF Final Energy:  -305.99642738969612
    Total Energy =                       -305.9964273896960094
  Basis Set: CC-PVTZ
  Basis Set:
  Basis Set: CC-PVTZ
  Basis Set:
  @DF-RHF Final Energy:  -305.99642932517247
    Total Energy =                       -305.9964293251729259
  Basis Set: CC-PVTZ
  Basis Set:
  Charge       = 0
  Multiplicity = 1
  Basis Set: CC-PVTZ
  Basis Set:

    Orbital Energies (a.u.)
    -----------------------

    Doubly Occupied:

       1A    -20.604618     2A    -20.541821     3A    -11.374843
       4A    -11.239894     5A    -11.222200     6A    -11.214289
       7A     -1.478652     8A     -1.370076     9A     -1.081102
      10A     -0.980848    11A     -0.859643    12A     -0.791859
      13A     -0.705349    14A     -0.695103    15A     -0.663702
      16A     -0.616156    17A     -0.598500    18A     -0.569923
      19A     -0.555903    20A     -0.497771    21A     -0.491170
      22A     -0.486247    23A     -0.478959    24A     -0.449541

  @DF-RHF Final Energy:  -305.99642989176908

   => Energetics <=

    Nuclear Repulsion Energy =            240.8954771740311003
    One-Electron Energy =                -894.6474729259384731
    Two-Electron Energy =                 347.7555658601383470
    DFT Exchange-Correlation Energy =       0.0000000000000000
    Empirical Dispersion Energy =           0.0000000000000000
    PCM Polarization Energy =               0.0000000000000000
    EFP Energy =                            0.0000000000000000
    Total Energy =                       -305.9964298917689689
    Molecular point group: c1
  Basis Set: CC-PVTZ
  Basis Set:

  -Total Gradient:
     Atom            X                  Y                   Z
    ------   -----------------  -----------------  -----------------
       1        0.000001876789     0.000000641456    -0.000007591685
       2        0.000003010384    -0.000040744802    -0.000005816104
       3       -0.000043029909     0.000072332233     0.000005927288
       4       -0.001204196187    -0.001390724752    -0.000773583547
       5        0.000000614403     0.000021052474    -0.000006563873
       6        0.001085583471     0.001310253458     0.000969371591
       7        0.000810290965     0.000916557665     0.000476250967
       8        0.000012459664     0.000010025248    -0.000007313761
       9       -0.000002543405    -0.000044811725    -0.000006251816
      10       -0.000698115512    -0.000836674152    -0.000664523849
      11        0.000020252369    -0.000039260481     0.000017623646
      12        0.000005942240     0.000001143317     0.000011457853
      13        0.000016436052     0.000018113583    -0.000005202827
      14       -0.000008581319     0.000002096476    -0.000003783884

  **** Optimization is complete! (in 6 steps) ****
    Final optimized geometry and variables:
    Molecular point group: c1

    Geometry (in Angstrom), charge = 0, multiplicity = 1:

    H            2.516118365138    -0.823344568464     1.039413707079
    O            1.906573410558    -0.991525340674     0.336701313214
    C            0.927258060970    -0.094013317458     0.405658822314
    C           -0.088047926894    -0.307425058473    -0.688290211250
    O            0.902185584801     0.742751177317     1.240473846374
    C           -1.240808260447     0.705530464087    -0.699745469100
    H            0.468008685218    -0.297198327630    -1.618415695628
    H           -0.447996952941    -1.323827952504    -0.573020295367
    C           -2.614070325178     0.039690156476    -0.722084788629
    H           -1.147031722066     1.342533704978    -1.571308439198
    H           -1.160257637982     1.345328230772     0.166697881276
    H           -2.731345472214    -0.598141419858    -1.592060706976
    H           -3.402669491066     0.782235642096    -0.748090000219
    H           -2.764821677187    -0.572715097278     0.160602063314

  Mulliken Charges: (a.u.)
   Center  Symbol    Alpha    Beta     Spin     Total
       1     H     0.38245  0.38245  0.00000  0.23510
       2     O     4.16031  4.16031  0.00000 -0.32062
       3     C     2.80100  2.80100  0.00000  0.39800
       4     C     3.11361  3.11361  0.00000 -0.22721
       5     O     4.19075  4.19075  0.00000 -0.38149
       6     C     3.08895  3.08895  0.00000 -0.17790
       7     H     0.43321  0.43321  0.00000  0.13358
       8     H     0.43747  0.43747  0.00000  0.12506
       9     C     3.14898  3.14898  0.00000 -0.29796
      10     H     0.45145  0.45145  0.00000  0.09709
      11     H     0.43503  0.43503  0.00000  0.12995
      12     H     0.45545  0.45545  0.00000  0.08910
      13     H     0.44742  0.44742  0.00000  0.10516
      14     H     0.45393  0.45393  0.00000  0.09215

   Total alpha = 24.00000, Total beta = 24.00000, Total charge = -0.00000
