  ==> Input File <==

--------------------------------------------------------------------------
set {
	reference rhf
	basis 6-31G*
}

set_num_threads( 4 )
memory 2 gb

molecule MOL {
0 1

H	 2.165701	 0.165677	 0.807954
O	 1.399459	 -0.398160	 0.849099
C	 0.489431	 0.077273	 0.000046
C	 -0.764129	 -0.759190	 0.000191
O	 0.682843	 1.046394	 -0.658712
C	 -2.038368	 0.075731	 -0.000248
H	 -0.717284	 -1.412404	 -0.866059
H	 -0.717458	 -1.411724	 0.866967
H	 -2.086483	 0.712501	 -0.875098
H	 -2.908485	 -0.571682	 -0.000042
H	 -2.086576	 0.713280	 0.874068

	symmetry c1
}
set optking {
	frozen_dihedral = ("
		2 3 4 7
	")
}

ee = optimize('scf')
oeprop('DIPOLE', 'QUADRUPOLE', 'MULLIKEN_CHARGES')
f=open( 'psi4out.xyz', 'w' )
f.write( "11  " )
f.write( str(ee) + "\n" )
f.write( MOL.save_string_xyz() )
f.close()
--------------------------------------------------------------------------

    Molecular point group: c1
  Charge       = 0
  Multiplicity = 1
  Basis Set: 6-31G*
  Basis Set:
  @DF-RHF Final Energy:  -266.84436608775184
    Total Energy =                       -266.8443660877517232
    Molecular point group: c1
  Basis Set: 6-31G*
  Basis Set:
  Basis Set: 6-31G*
  Basis Set:
  @DF-RHF Final Energy:  -266.84481429118603
    Total Energy =                       -266.8448142911861396
  Basis Set: 6-31G*
  Basis Set:
  Basis Set: 6-31G*
  Basis Set:
  @DF-RHF Final Energy:  -266.84474251168137
    Total Energy =                       -266.8447425116814884
  Basis Set: 6-31G*
  Basis Set:
  Basis Set: 6-31G*
  Basis Set:
  @DF-RHF Final Energy:  -266.84487239820385
    Total Energy =                       -266.8448723982037336
  Basis Set: 6-31G*
  Basis Set:
  Charge       = 0
  Multiplicity = 1
  Basis Set: 6-31G*
  Basis Set:

    Orbital Energies (a.u.)
    -----------------------

    Doubly Occupied:

       1A    -20.615702     2A    -20.550646     3A    -11.382241
       4A    -11.243530     5A    -11.223905     6A     -1.476391
       7A     -1.366371     8A     -1.065278     9A     -0.915697
      10A     -0.806353    11A     -0.702928    12A     -0.689790
      13A     -0.654041    14A     -0.604208    15A     -0.593487
      16A     -0.533845    17A     -0.525622    18A     -0.508823
      19A     -0.476198    20A     -0.444267

  @DF-RHF Final Energy:  -266.84487303681692

   => Energetics <=

    Nuclear Repulsion Energy =            179.7165565904950597
    One-Electron Energy =                -720.3642130461959141
    Two-Electron Energy =                 273.8027834188839051
    DFT Exchange-Correlation Energy =       0.0000000000000000
    Empirical Dispersion Energy =           0.0000000000000000
    PCM Polarization Energy =               0.0000000000000000
    EFP Energy =                            0.0000000000000000
    Total Energy =                       -266.8448730368169208
    Molecular point group: c1
  Basis Set: 6-31G*
  Basis Set:

  -Total Gradient:
     Atom            X                  Y                   Z
    ------   -----------------  -----------------  -----------------
       1        0.000034255539    -0.000020456645    -0.000024016799
       2       -0.000344760407     0.000609785409     0.000868579922
       3        0.000320091120    -0.000548137042    -0.001376741234
       4        0.000520962617    -0.000797889289     0.001024634758
       5        0.000019208379    -0.000058103437     0.000131607020
       6        0.000036215469    -0.000025136672     0.000010047730
       7       -0.000581520092     0.000836073022    -0.000629600245
       8        0.000011314287     0.000002938826    -0.000002424029
       9       -0.000005937793     0.000001787575    -0.000005542782
      10       -0.000007772949    -0.000002309494     0.000003050750
      11       -0.000002056175     0.000001447746     0.000000404909

  **** Optimization is complete! (in 5 steps) ****
    Final optimized geometry and variables:
    Molecular point group: c1

    Geometry (in Angstrom), charge = 0, multiplicity = 1:

    H            2.207330951563     0.155827656129     0.690841078199
    O            1.444846357895    -0.409453414552     0.771510694694
    C            0.498043101029     0.056939582020    -0.038732139481
    C           -0.750870824109    -0.789678347646    -0.024260952421
    O            0.654276494040     1.033063754616    -0.698460369027
    C           -2.020240263344     0.060433915168    -0.067161388089
    H           -0.704951403095    -1.419178743422    -0.909187817223
    H           -0.733014819082    -1.441363714703     0.839210684509
    H           -2.016597777403     0.709879774114    -0.932713489705
    H           -2.895518452350    -0.577661803389    -0.116631049291
    H           -2.106820355029     0.680366869211     0.818846009524

  Mulliken Charges: (a.u.)
   Center  Symbol    Alpha    Beta     Spin     Total
       1     H     0.26812  0.26812  0.00000  0.46375
       2     O     4.34891  4.34891  0.00000 -0.69783
       3     C     2.62360  2.62360  0.00000  0.75279
       4     C     3.20887  3.20887  0.00000 -0.41775
       5     O     4.27949  4.27949  0.00000 -0.55899
       6     C     3.24517  3.24517  0.00000 -0.49033
       7     H     0.39758  0.39758  0.00000  0.20483
       8     H     0.39814  0.39814  0.00000  0.20371
       9     H     0.40156  0.40156  0.00000  0.19688
      10     H     0.41451  0.41451  0.00000  0.17098
      11     H     0.41402  0.41402  0.00000  0.17196

   Total alpha = 20.00000, Total beta = 20.00000, Total charge = -0.00000
