  ==> Input File <==

--------------------------------------------------------------------------
set {
	reference rhf
	basis 6-31G*
}

set_num_threads( 4 )
memory 2 gb

molecule MOL {
0 1

H	 -4.031818	 -0.453427	 -0.000094
C	 -2.967712	 -0.297022	 -0.000064
C	 -2.458620	 0.992929	 0.000032
C	 -2.109895	 -1.385637	 -0.000122
H	 -3.124998	 1.836319	 0.000077
C	 -1.090278	 1.193236	 0.000070
H	 -2.506361	 -2.384847	 -0.000198
C	 -0.739812	 -1.187531	 -0.000085
H	 -0.678594	 2.184290	 0.000146
C	 -0.226438	 0.104061	 0.000012
H	 -0.072310	 -2.027032	 -0.000131
C	 1.239129	 0.373821	 0.000060
O	 1.940739	 -0.570109	 -0.609317
O	 1.738806	 1.335658	 0.494078
C	 3.345501	 -0.393670	 -0.656055
H	 3.595275	 0.515243	 -1.183583
H	 3.731933	 -1.251831	 -1.183390
H	 3.754867	 -0.350660	 0.342689

	symmetry c1
}
set optking {
	frozen_dihedral = ("
		13 12 10 6
	")
}

ee = optimize('scf')
oeprop('DIPOLE', 'QUADRUPOLE', 'MULLIKEN_CHARGES')
f=open( 'psi4out.xyz', 'w' )
f.write( "18  " )
f.write( str(ee) + "\n" )
f.write( MOL.save_string_xyz() )
f.close()
--------------------------------------------------------------------------

    Molecular point group: c1
  Charge       = 0
  Multiplicity = 1
  Basis Set: 6-31G*
  Basis Set:
  @DF-RHF Final Energy:  -457.34808378329427
    Total Energy =                       -457.3480837832942143
    Molecular point group: c1
  Basis Set: 6-31G*
  Basis Set:
  Basis Set: 6-31G*
  Basis Set:
  @DF-RHF Final Energy:  -457.34617707870808
    Total Energy =                       -457.3461770787077967
  Basis Set: 6-31G*
  Basis Set:
  Basis Set: 6-31G*
  Basis Set:
  @DF-RHF Final Energy:  -457.34830081456664
    Total Energy =                       -457.3483008145668691
  Basis Set: 6-31G*
  Basis Set:
  Basis Set: 6-31G*
  Basis Set:
  @DF-RHF Final Energy:  -457.34835380412113
    Total Energy =                       -457.3483538041214160
  Basis Set: 6-31G*
  Basis Set:
  Charge       = 0
  Multiplicity = 1
  Basis Set: 6-31G*
  Basis Set:

    Orbital Energies (a.u.)
    -----------------------

    Doubly Occupied:

       1A    -20.608394     2A    -20.545570     3A    -11.378120
       4A    -11.283106     5A    -11.246681     6A    -11.244501
       7A    -11.244305     8A    -11.242555     9A    -11.238167
      10A    -11.237464    11A     -1.473190    12A     -1.364660
      13A     -1.165816    14A     -1.048501    15A     -1.025268
      16A     -0.978481    17A     -0.860211    18A     -0.835550
      19A     -0.778324    20A     -0.739123    21A     -0.683654
      22A     -0.677783    23A     -0.673366    24A     -0.630773
      25A     -0.625769    26A     -0.597604    27A     -0.586990
      28A     -0.557629    29A     -0.531266    30A     -0.516313
      31A     -0.504993    32A     -0.500473    33A     -0.458629
      34A     -0.444502    35A     -0.344307    36A     -0.341522

  @DF-RHF Final Energy:  -457.34835469271513

   => Energetics <=

    Nuclear Repulsion Energy =            492.8467553900223947
    One-Electron Energy =               -1599.9630985626329220
    Two-Electron Energy =                 649.7679884798951662
    DFT Exchange-Correlation Energy =       0.0000000000000000
    Empirical Dispersion Energy =           0.0000000000000000
    PCM Polarization Energy =               0.0000000000000000
    EFP Energy =                            0.0000000000000000
    Total Energy =                       -457.3483546927152474
    Molecular point group: c1
  Basis Set: 6-31G*
  Basis Set:

  -Total Gradient:
     Atom            X                  Y                   Z
    ------   -----------------  -----------------  -----------------
       1       -0.000001322994     0.000005094517    -0.000019604485
       2        0.000010485297    -0.000065748669     0.000063271101
       3        0.000058767624     0.000042656539    -0.000025312744
       4       -0.000058866897     0.000012318557     0.000001945569
       5       -0.000000842690    -0.000001116664     0.000008589769
       6       -0.000085079744    -0.000022024915    -0.003807795451
       7        0.000004796482    -0.000001403004    -0.000003252465
       8        0.000040463760     0.000014813662    -0.000049920114
       9        0.000008286689    -0.000005295609    -0.000002078455
      10       -0.000014139877     0.000637302543     0.004310793056
      11       -0.000014995241     0.000009199976     0.000037122706
      12        0.000491656708    -0.002473007222     0.002802109254
      13       -0.000397844070     0.001842694425    -0.003407891807
      14       -0.000025075906     0.000034931497     0.000021546822
      15       -0.000003533831    -0.000070437194     0.000158462524
      16       -0.000037073448     0.000025728289    -0.000018074065
      17       -0.000005480032     0.000009142721    -0.000026650074
      18        0.000029798170     0.000005150553    -0.000043261138

  **** Optimization is complete! (in 5 steps) ****
    Final optimized geometry and variables:
    Molecular point group: c1

    Geometry (in Angstrom), charge = 0, multiplicity = 1:

    H           -4.022528550246    -0.488667063619     0.066902234595
    C           -2.959263297467    -0.327762646507     0.078587802351
    C           -2.455593279116     0.963914976298     0.086114758852
    C           -2.096480742860    -1.412734380878     0.080849942486
    H           -3.125320279211     1.804649836761     0.076212345613
    C           -1.087786328164     1.170696722163     0.107919055232
    H           -2.488459881283    -2.413671290159     0.072554281639
    C           -0.727515932277    -1.208020710877     0.083383597998
    H           -0.682609142225     2.164739613579     0.126545696799
    C           -0.221027367077     0.085226342935     0.114346195114
    H           -0.055307315543    -2.044556842643     0.065907830746
    C            1.244777605305     0.355664440658     0.096726615141
    O            1.934261110745    -0.600052704773    -0.507806926200
    O            1.745710244939     1.342706791577     0.535485684000
    C            3.339816006043    -0.433038761071    -0.569771838196
    H            3.588596135784     0.462523969891    -1.120030472322
    H            3.716636848956    -1.304635033346    -1.081631921621
    H            3.759640231411    -0.369295385304     0.423666393962

  Mulliken Charges: (a.u.)
   Center  Symbol    Alpha    Beta     Spin     Total
       1     H     0.39561  0.39561  0.00000  0.20878
       2     C     3.09139  3.09139  0.00000 -0.18279
       3     C     3.10563  3.10563  0.00000 -0.21126
       4     C     3.10626  3.10626  0.00000 -0.21253
       5     H     0.39541  0.39541  0.00000  0.20918
       6     C     3.09066  3.09066  0.00000 -0.18132
       7     H     0.39613  0.39613  0.00000  0.20774
       8     C     3.08853  3.08853  0.00000 -0.17706
       9     H     0.37903  0.37903  0.00000  0.24194
      10     C     3.05408  3.05408  0.00000 -0.10815
      11     H     0.38400  0.38400  0.00000  0.23200
      12     C     2.60127  2.60127  0.00000  0.79746
      13     O     4.30708  4.30708  0.00000 -0.61417
      14     O     4.28877  4.28877  0.00000 -0.57754
      15     C     3.09348  3.09348  0.00000 -0.18697
      16     H     0.40702  0.40702  0.00000  0.18596
      17     H     0.40754  0.40754  0.00000  0.18492
      18     H     0.40810  0.40810  0.00000  0.18381

   Total alpha = 36.00000, Total beta = 36.00000, Total charge = -0.00000
