  ==> Input File <==

--------------------------------------------------------------------------
set {
	reference rhf
	basis 6-31G*
}

set_num_threads( 1 )
memory 2 gb

molecule MOL {
0 1

H	 -4.257019	 0.291633	 0.393517
O	 -3.529335	 -0.173721	 0.006444
C	 -2.320395	 0.371948	 0.468289
C	 -1.177863	 -0.397191	 -0.171080
H	 -2.251837	 1.427130	 0.207145
H	 -2.257222	 0.299834	 1.553254
C	 0.198102	 0.111031	 0.262842
H	 -1.279883	 -0.326303	 -1.250568
H	 -1.287529	 -1.447496	 0.084476
C	 1.331804	 -0.827780	 -0.158768
H	 0.361943	 1.100838	 -0.156218
H	 0.217265	 0.229072	 1.345532
C	 2.723619	 -0.410569	 0.329459
H	 1.342964	 -0.912588	 -1.244120
H	 1.116806	 -1.824343	 0.220779
C	 3.243875	 0.895854	 -0.272975
H	 3.424222	 -1.207124	 0.091250
H	 2.714788	 -0.329854	 1.414619
H	 3.251977	 0.848779	 -1.358681
H	 2.637085	 1.747371	 0.016682
H	 4.259473	 1.094070	 0.055697

	symmetry c1
}
set optking {
	frozen_dihedral = ("
		2 3 4 8,
		4 7 10 14,
		16 13 10 14,
		1 2 3 5
	")
}

ee = energy('scf')
oeprop('DIPOLE', 'QUADRUPOLE', 'MULLIKEN_CHARGES')
f=open( 'psi4out.xyz', 'w' )
f.write( "21  " )
f.write( str(ee) + "\n" )
f.write( MOL.save_string_xyz() )
f.close()
--------------------------------------------------------------------------

    Molecular point group: c1

    Geometry (in Angstrom), charge = 0, multiplicity = 1:

       Center              X                  Y                   Z               Mass
    ------------   -----------------  -----------------  -----------------  -----------------
           H         -4.253041414407     0.339234863483     0.325151861977     1.007825032070
           O         -3.525357414407    -0.126119136517    -0.061921138023    15.994914619560
           C         -2.316417414407     0.419549863483     0.399923861977    12.000000000000
           C         -1.173885414407    -0.349589136517    -0.239445138023    12.000000000000
           H         -2.247859414407     1.474731863483     0.138779861977     1.007825032070
           H         -2.253244414407     0.347435863483     1.484888861977     1.007825032070
           C          0.202079585593     0.158632863483     0.194476861977    12.000000000000
           H         -1.275905414407    -0.278701136517    -1.318933138023     1.007825032070
           H         -1.283551414407    -1.399894136517     0.016110861977     1.007825032070
           C          1.335781585593    -0.780178136517    -0.227133138023    12.000000000000
           H          0.365920585593     1.148439863483    -0.224583138023     1.007825032070
           H          0.221242585593     0.276673863483     1.277166861977     1.007825032070
           C          2.727596585593    -0.362967136517     0.261093861977    12.000000000000
           H          1.346941585593    -0.864986136517    -1.312485138023     1.007825032070
           H          1.120783585593    -1.776741136517     0.152413861977     1.007825032070
           C          3.247852585593     0.943455863483    -0.341340138023    12.000000000000
           H          3.428199585593    -1.159522136517     0.022884861977     1.007825032070
           H          2.718765585593    -0.282252136517     1.346253861977     1.007825032070
           H          3.255954585593     0.896380863483    -1.427046138023     1.007825032070
           H          2.641062585593     1.794972863483    -0.051683138023     1.007825032070
           H          4.263450585593     1.141671863483    -0.012668138023     1.007825032070

  Charge       = 0
  Multiplicity = 1
  Basis Set: 6-31G*
  Basis Set:

    Orbital Energies (a.u.)
    -----------------------

    Doubly Occupied:

       1A    -20.551833     2A    -11.267117     3A    -11.215597
       4A    -11.215127     5A    -11.213601     6A    -11.210520
       7A    -11.208138     8A     -1.358664     9A     -1.086257
      10A     -1.033180    11A     -0.954344    12A     -0.875750
      13A     -0.807121    14A     -0.779105    15A     -0.692470
      16A     -0.661625    17A     -0.621266    18A     -0.607600
      19A     -0.588439    20A     -0.566178    21A     -0.539611
      22A     -0.518598    23A     -0.509502    24A     -0.489125
      25A     -0.478243    26A     -0.459870    27A     -0.456203
      28A     -0.443352    29A     -0.433786

  @DF-RHF Final Energy:  -310.21238934642656

   => Energetics <=

    Nuclear Repulsion Energy =            312.4078857822162263
    One-Electron Energy =               -1039.5561044057833442
    Two-Electron Energy =                 416.9358292771404422
    DFT Exchange-Correlation Energy =       0.0000000000000000
    Empirical Dispersion Energy =           0.0000000000000000
    PCM Polarization Energy =               0.0000000000000000
    EFP Energy =                            0.0000000000000000
    Total Energy =                       -310.2123893464266757

  Mulliken Charges: (a.u.)
   Center  Symbol    Alpha    Beta     Spin     Total
       1     H     0.28119  0.28119  0.00000  0.43763
       2     O     4.37178  4.37178  0.00000 -0.74355
       3     C     2.99003  2.99003  0.00000  0.01994
       4     C     3.15901  3.15901  0.00000 -0.31801
       5     H     0.43301  0.43301  0.00000  0.13398
       6     H     0.43272  0.43272  0.00000  0.13457
       7     C     3.16209  3.16209  0.00000 -0.32418
       8     H     0.41431  0.41431  0.00000  0.17138
       9     H     0.41498  0.41498  0.00000  0.17004
      10     C     3.15195  3.15195  0.00000 -0.30389
      11     H     0.42034  0.42034  0.00000  0.15932
      12     H     0.42493  0.42493  0.00000  0.15013
      13     C     3.15252  3.15252  0.00000 -0.30504
      14     H     0.42290  0.42290  0.00000  0.15419
      15     H     0.42100  0.42100  0.00000  0.15801
      16     C     3.24119  3.24119  0.00000 -0.48237
      17     H     0.42064  0.42064  0.00000  0.15871
      18     H     0.42362  0.42362  0.00000  0.15277
      19     H     0.42192  0.42192  0.00000  0.15616
      20     H     0.42061  0.42061  0.00000  0.15879
      21     H     0.41928  0.41928  0.00000  0.16145

   Total alpha = 29.00000, Total beta = 29.00000, Total charge = -0.00000
