                              Psi4 1.0.54 Driver

  ==> Input File <==

--------------------------------------------------------------------------
set {
	reference rhf
	basis cc-pvtz
}

set_num_threads( 4 )
memory 2 gb

molecule MOL {
0 1

H	 -2.172099	 -1.169468	 -0.198404
O	 -2.346257	 -0.289210	 0.080372
C	 -1.183935	 0.486039	 -0.009831
C	 0.062853	 -0.375310	 0.027457
H	 -1.178881	 1.094526	 -0.908634
H	 -1.184406	 1.155156	 0.838676
O	 1.172093	 0.457955	 -0.054438
H	 0.052476	 -1.081302	 -0.804627
H	 0.076323	 -0.955658	 0.947560
C	 2.395478	 -0.199028	 -0.000366
H	 2.505946	 -0.901710	 -0.823354
H	 3.174616	 0.545641	 -0.071768
H	 2.513730	 -0.742241	 0.934223

	symmetry c1
}
set optking {
	frozen_dihedral = ("
		1 2 3 5
	")
}

ee,wfn = optimize('scf', return_wfn=True)
oeprop( wfn, 'DIPOLE', 'QUADRUPOLE', 'MULLIKEN_CHARGES')
f=open( 'psi4out.xyz', 'w' )
f.write( "13  " )
f.write( str(ee) + "\n" )
f.write( MOL.save_string_xyz() )
f.close()
--------------------------------------------------------------------------

    Molecular point group: c1
  Charge       = 0
  Multiplicity = 1
  Basis Set: CC-PVTZ
  Basis Set:
  @DF-RHF Final Energy:  -268.05950191683280
    Total Energy =                       -268.0595019168326303
    Molecular point group: c1
  Basis Set: CC-PVTZ
  Basis Set:
  Basis Set: CC-PVTZ
  Basis Set:
  @DF-RHF Final Energy:  -268.05961702844229
    Total Energy =                       -268.0596170284424034
  Basis Set: CC-PVTZ
  Basis Set:
  Basis Set: CC-PVTZ
  Basis Set:
  @DF-RHF Final Energy:  -268.05964505994132
    Total Energy =                       -268.0596450599412037
  Basis Set: CC-PVTZ
  Basis Set:
  Charge       = 0
  Multiplicity = 1
  Basis Set: CC-PVTZ
  Basis Set:

    Orbital Energies (a.u.)
    -----------------------

    Doubly Occupied:

       1A    -20.560881     2A    -20.551039     3A    -11.277459
       4A    -11.271374     5A    -11.267039     6A     -1.396954
       7A     -1.367682     8A     -1.022670     9A     -0.916381
      10A     -0.851675    11A     -0.700003    12A     -0.686129
      13A     -0.671810    14A     -0.629006    15A     -0.607406
      16A     -0.581062    17A     -0.546427    18A     -0.499732
      19A     -0.474479    20A     -0.443151    21A     -0.429455

  @DF-RHF Final Energy:  -268.05964542177867

   => Energetics <=

    Nuclear Repulsion Energy =            190.6714173445966196
    One-Electron Energy =                -743.9584927788548612
    Two-Electron Energy =                 285.2274300124795445
    DFT Exchange-Correlation Energy =       0.0000000000000000
    Empirical Dispersion Energy =           0.0000000000000000
    PCM Polarization Energy =               0.0000000000000000
    EFP Energy =                            0.0000000000000000
    Total Energy =                       -268.0596454217786686
    Molecular point group: c1
  Basis Set: CC-PVTZ
  Basis Set:

  -Total Gradient:
     Atom            X                  Y                   Z
    ------   -----------------  -----------------  -----------------
       1        0.000538925526    -0.000616205462     0.002241128071
       2       -0.000974349842     0.001134877766    -0.002498564885
       3        0.001316689254    -0.002085214051    -0.000766389825
       4       -0.000067343277    -0.000005479752     0.000032739365
       5       -0.000886666194     0.001526863405     0.001035995548
       6        0.000007403320     0.000003429441    -0.000000294015
       7        0.000048723877    -0.000005201754    -0.000016828386
       8        0.000008328671     0.000015671779    -0.000000806077
       9       -0.000016545975     0.000006456017    -0.000016338609
      10       -0.000001672719     0.000044349756    -0.000014010195
      11        0.000007975256    -0.000006504046     0.000002340153
      12        0.000025224038    -0.000012237655     0.000000315481
      13       -0.000006691936    -0.000000805445     0.000000713375

  **** Optimization is complete! (in 4 steps) ****
    Final optimized geometry and variables:
    Molecular point group: c1

    Geometry (in Angstrom), charge = 0, multiplicity = 1:

    H           -2.214582223033    -1.144288127052    -0.212883024899
    O           -2.361120496494    -0.260302848627     0.068862634416
    C           -1.182361670257     0.494730726117    -0.011567987240
    C            0.060147936712    -0.370466646875     0.026740837447
    H           -1.181501160583     1.100852911539    -0.911030604060
    H           -1.169263889563     1.171262285882     0.832632918826
    O            1.172568534166     0.454181017065    -0.057386312079
    H            0.045576234915    -1.076792097910    -0.806232887752
    H            0.075255497780    -0.950009667943     0.949163184052
    C            2.392602938643    -0.211405480944    -0.016387983859
    H            2.492576989627    -0.908731966978    -0.845026208482
    H            3.175025048460     0.529389864311    -0.088294783523
    H            2.513789028728    -0.761092687561     0.914002230405

  Mulliken Charges: (a.u.)
   Center  Symbol    Alpha    Beta     Spin     Total
       1     H     0.39399  0.39399  0.00000  0.21202
       2     O     4.20318  4.20318  0.00000 -0.40636
       3     C     2.95370  2.95370  0.00000  0.09259
       4     C     2.97642  2.97642  0.00000  0.04716
       5     H     0.46941  0.46941  0.00000  0.06119
       6     H     0.46173  0.46173  0.00000  0.07654
       7     O     4.17187  4.17187  0.00000 -0.34374
       8     H     0.48114  0.48114  0.00000  0.03773
       9     H     0.46999  0.46999  0.00000  0.06001
      10     C     3.03326  3.03326  0.00000 -0.06652
      11     H     0.47067  0.47067  0.00000  0.05866
      12     H     0.44474  0.44474  0.00000  0.11053
      13     H     0.46990  0.46990  0.00000  0.06020

   Total alpha = 21.00000, Total beta = 21.00000, Total charge =  0.00000

*** Psi4 exiting successfully. Buy a developer a beer!
