  ==> Input File <==

--------------------------------------------------------------------------
set {
	reference rhf
	basis 6-31G*
}

set_num_threads( 4 )
memory 2 gb

molecule MOL {
0 1

O	 -0.568818	 -2.700512	 -1.411513
C	 -0.616573	 -1.552092	 -1.732894
C	 -0.889235	 -0.467034	 -0.705952
C	 -0.377943	 -1.116902	 -3.161544
C	 0.379448	 -0.143569	 0.099626
H	 -1.659323	 -0.834119	 -0.036237
H	 -1.261482	 0.431807	 -1.189214
C	 1.631333	 -0.777471	 -0.511575
H	 0.482768	 0.934507	 0.149241
H	 0.263088	 -0.495696	 1.123449
C	 2.915987	 -0.544314	 0.291766
H	 1.766672	 -0.399098	 -1.523130
H	 1.471257	 -1.849544	 -0.605828
C	 3.373361	 0.914346	 0.347591
H	 3.708709	 -1.142521	 -0.150311
H	 2.780642	 -0.921148	 1.303579
H	 3.506512	 1.320010	 -0.651625
H	 4.322697	 0.999599	 0.867103
H	 2.660624	 1.545032	 0.868198
H	 -1.293202	 -0.700780	 -3.574350
H	 -0.066615	 -1.962383	 -3.759056
H	 0.376385	 -0.336569	 -3.204826

	symmetry c1
}
set optking {
	frozen_dihedral = ("
		6 3 5 8
	")
}

ee = optimize('scf')
oeprop('DIPOLE', 'QUADRUPOLE', 'MULLIKEN_CHARGES')
f=open( 'psi4out.xyz', 'w' )
f.write( "22  " )
f.write( str(ee) + "\n" )
f.write( MOL.save_string_xyz() )
f.close()
--------------------------------------------------------------------------

    Molecular point group: c1
  Charge       = 0
  Multiplicity = 1
  Basis Set: 6-31G*
  Basis Set:
  @DF-RHF Final Energy:  -348.08462007653003
    Total Energy =                       -348.0846200765303138
    Molecular point group: c1
  Basis Set: 6-31G*
  Basis Set:
  Basis Set: 6-31G*
  Basis Set:
  @DF-RHF Final Energy:  -348.08834885592040
    Total Energy =                       -348.0883488559201169
  Basis Set: 6-31G*
  Basis Set:
  Basis Set: 6-31G*
  Basis Set:
  @DF-RHF Final Energy:  -348.08714319706581
    Total Energy =                       -348.0871431970659842
  Basis Set: 6-31G*
  Basis Set:
  Basis Set: 6-31G*
  Basis Set:
  @DF-RHF Final Energy:  -348.08944597962130
    Total Energy =                       -348.0894459796212459
  Basis Set: 6-31G*
  Basis Set:
  Basis Set: 6-31G*
  Basis Set:
  @DF-RHF Final Energy:  -348.08950840309507
    Total Energy =                       -348.0895084030950102
  Basis Set: 6-31G*
  Basis Set:
  Basis Set: 6-31G*
  Basis Set:
  @DF-RHF Final Energy:  -348.08945232505795
    Total Energy =                       -348.0894523250574366
  Basis Set: 6-31G*
  Basis Set:
  Basis Set: 6-31G*
  Basis Set:
  @DF-RHF Final Energy:  -348.08955078035939
    Total Energy =                       -348.0895507803593318
  Basis Set: 6-31G*
  Basis Set:
  Charge       = 0
  Multiplicity = 1
  Basis Set: 6-31G*
  Basis Set:

    Orbital Energies (a.u.)
    -----------------------

    Doubly Occupied:

       1A    -20.546732     2A    -11.324864     3A    -11.229947
       4A    -11.229367     5A    -11.227566     6A    -11.219276
       7A    -11.218569     8A    -11.211986     9A     -1.393011
      10A     -1.090980    11A     -1.041105    12A     -0.997639
      13A     -0.939261    14A     -0.859724    15A     -0.790434
      16A     -0.722888    17A     -0.659517    18A     -0.636190
      19A     -0.626442    20A     -0.622331    21A     -0.599274
      22A     -0.582492    23A     -0.562721    24A     -0.544914
      25A     -0.532400    26A     -0.528056    27A     -0.493652
      28A     -0.481881    29A     -0.466574    30A     -0.462832
      31A     -0.454275    32A     -0.396263

  @DF-RHF Final Energy:  -348.08955173115680

   => Energetics <=

    Nuclear Repulsion Energy =            381.3926036221513414
    One-Electron Energy =               -1227.5779853802714570
    Two-Electron Energy =                 498.0958300269630854
    DFT Exchange-Correlation Energy =       0.0000000000000000
    Empirical Dispersion Energy =           0.0000000000000000
    PCM Polarization Energy =               0.0000000000000000
    EFP Energy =                            0.0000000000000000
    Total Energy =                       -348.0895517311570302
    Molecular point group: c1
  Basis Set: 6-31G*
  Basis Set:

  -Total Gradient:
     Atom            X                  Y                   Z
    ------   -----------------  -----------------  -----------------
       1       -0.000041095057     0.000020003494    -0.000037984023
       2       -0.000100717026    -0.000044195362     0.000032114954
       3       -0.001184406377     0.002325046182     0.001000287395
       4        0.000200448588     0.000057507002     0.000061235479
       5        0.000671667322     0.001823632947    -0.001694909292
       6        0.000818804882    -0.002549587908    -0.000408536889
       7       -0.000003828861    -0.000010054851    -0.000014610123
       8       -0.000290464654    -0.001560691043     0.001056606477
       9        0.000022053355    -0.000005208640     0.000013700638
      10        0.000017151006     0.000027187631    -0.000014507539
      11       -0.000013279181    -0.000047046685     0.000007329967
      12        0.000047606949    -0.000026791189     0.000025814443
      13       -0.000066788057     0.000014959016    -0.000032484729
      14       -0.000000194201     0.000001393640    -0.000004599508
      15       -0.000004598692     0.000029053867     0.000006037624
      16        0.000023673357    -0.000020337464     0.000014795445
      17        0.000003613496    -0.000004453520     0.000007405084
      18       -0.000002554178     0.000012369117     0.000003018259
      19        0.000001072168     0.000002041032    -0.000005755271
      20       -0.000027520989    -0.000025437800     0.000012399783
      21       -0.000011762137    -0.000003906996     0.000001743380
      22       -0.000058881708    -0.000015482467    -0.000029101556

  **** Optimization is complete! (in 8 steps) ****
    Final optimized geometry and variables:
    Molecular point group: c1

    Geometry (in Angstrom), charge = 0, multiplicity = 1:

    O           -1.440551484411    -1.922031410065    -0.632584065712
    C           -1.436089407586    -0.769357510163    -0.942759303590
    C           -1.569775136325     0.325137012902     0.106772852991
    C           -1.327495599776    -0.343279435038    -2.390329198246
    C           -0.273352041170     0.620325751513     0.922020412880
    H           -2.339937692814    -0.024070340017     0.784032412506
    H           -1.925539960554     1.234490143959    -0.365160074954
    C            1.028150585026     0.004284011270     0.393444132217
    H           -0.165933485624     1.696090463141     0.997856314372
    H           -0.420669378847     0.259695065027     1.934895900323
    C            2.247162753201     0.298332702592     1.276316863262
    H            1.231880468680     0.362961731824    -0.614860610724
    H            0.906574300197    -1.070512106072     0.321358246924
    C            2.675813827426     1.766556202432     1.311153889889
    H            3.080120473623    -0.298146587380     0.913466102088
    H            2.047755391292    -0.045845391545     2.288970482723
    H            2.870121624056     2.140167856151     0.309222476952
    H            3.586785190935     1.887010368195     1.889126588542
    H            1.921103329364     2.402876782107     1.761328806503
    H           -2.267120084227     0.103082159168    -2.706329750718
    H           -1.113236397875    -1.200963616378    -3.012750504807
    H           -0.557025194261     0.410423633085    -2.517982461400

  Mulliken Charges: (a.u.)
   Center  Symbol    Alpha    Beta     Spin     Total
       1     O     4.26247  4.26247  0.00000 -0.52494
       2     C     2.73870  2.73870  0.00000  0.52260
       3     C     3.20470  3.20470  0.00000 -0.40940
       4     C     3.28940  3.28940  0.00000 -0.57880
       5     C     3.15388  3.15388  0.00000 -0.30777
       6     H     0.39880  0.39880  0.00000  0.20241
       7     H     0.41529  0.41529  0.00000  0.16942
       8     C     3.16927  3.16927  0.00000 -0.33853
       9     H     0.41535  0.41535  0.00000  0.16930
      10     H     0.41298  0.41298  0.00000  0.17405
      11     C     3.15344  3.15344  0.00000 -0.30689
      12     H     0.42639  0.42639  0.00000  0.14721
      13     H     0.40306  0.40306  0.00000  0.19388
      14     C     3.24170  3.24170  0.00000 -0.48339
      15     H     0.41829  0.41829  0.00000  0.16341
      16     H     0.42104  0.42104  0.00000  0.15791
      17     H     0.42261  0.42261  0.00000  0.15477
      18     H     0.41777  0.41777  0.00000  0.16445
      19     H     0.42085  0.42085  0.00000  0.15830
      20     H     0.40692  0.40692  0.00000  0.18617
      21     H     0.39750  0.39750  0.00000  0.20499
      22     H     0.40958  0.40958  0.00000  0.18084

   Total alpha = 32.00000, Total beta = 32.00000, Total charge = -0.00000
