  ==> Input File <==

--------------------------------------------------------------------------
set {
	reference rhf
	basis 6-31G*
}

set_num_threads( 4 )
memory 2 gb

molecule MOL {
0 1

O	 -2.042549	 -1.228399	 -0.269030
C	 -1.653912	 -0.146171	 0.050137
C	 -0.332303	 0.024011	 0.778412
C	 -2.438579	 1.106236	 -0.272369
C	 0.849188	 -0.060784	 -0.200751
H	 -0.307599	 0.973205	 1.306430
H	 -0.254913	 -0.772621	 1.510061
C	 2.203267	 0.075288	 0.497093
H	 0.756372	 0.716163	 -0.957601
H	 0.798412	 -1.011495	 -0.722968
C	 3.380279	 -0.017638	 -0.473070
H	 2.243863	 1.025256	 1.025618
H	 2.295464	 -0.700632	 1.253410
H	 3.334506	 0.767423	 -1.222494
H	 3.384738	 -0.971063	 -0.993074
H	 4.326662	 0.079012	 0.049466
H	 -3.277823	 0.863061	 -0.908988
H	 -1.806773	 1.843019	 -0.759671
H	 -2.802853	 1.554979	 0.648059

	symmetry c1
}
set optking {
	frozen_dihedral = ("
		5 3 2 4
	")
}

ee = optimize('scf')
oeprop('DIPOLE', 'QUADRUPOLE', 'MULLIKEN_CHARGES')
f=open( 'psi4out.xyz', 'w' )
f.write( "19  " )
f.write( str(ee) + "\n" )
f.write( MOL.save_string_xyz() )
f.close()
--------------------------------------------------------------------------

    Molecular point group: c1
  Charge       = 0
  Multiplicity = 1
  Basis Set: 6-31G*
  Basis Set:
  @DF-RHF Final Energy:  -309.06515878045553
    Total Energy =                       -309.0651587804553060
    Molecular point group: c1
  Basis Set: 6-31G*
  Basis Set:
  Basis Set: 6-31G*
  Basis Set:
  @DF-RHF Final Energy:  -309.06514407430188
    Total Energy =                       -309.0651440743018838
  Basis Set: 6-31G*
  Basis Set:
  Basis Set: 6-31G*
  Basis Set:
  @DF-RHF Final Energy:  -309.06511896947814
    Total Energy =                       -309.0651189694784193
  Basis Set: 6-31G*
  Basis Set:
  Basis Set: 6-31G*
  Basis Set:
  @DF-RHF Final Energy:  -309.06515976502124
    Total Energy =                       -309.0651597650210078
  Basis Set: 6-31G*
  Basis Set:
  Charge       = 0
  Multiplicity = 1
  Basis Set: 6-31G*
  Basis Set:

    Orbital Energies (a.u.)
    -----------------------

    Doubly Occupied:

       1A    -20.547550     2A    -11.324734     3A    -11.230188
       4A    -11.229418     5A    -11.228380     6A    -11.224584
       7A    -11.214701     8A     -1.393348     9A     -1.091048
      10A     -1.029261    11A     -0.983943    12A     -0.889701
      13A     -0.806465    14A     -0.733232    15A     -0.663394
      16A     -0.645407    17A     -0.622515    18A     -0.613009
      19A     -0.582395    20A     -0.573068    21A     -0.552876
      22A     -0.537170    23A     -0.513334    24A     -0.498684
      25A     -0.481986    26A     -0.475559    27A     -0.467055
      28A     -0.396926

  @DF-RHF Final Energy:  -309.06516006446708

   => Energetics <=

    Nuclear Repulsion Energy =            301.2084974400882516
    One-Electron Energy =               -1015.4474602290636085
    Two-Electron Energy =                 405.1738027245084481
    DFT Exchange-Correlation Energy =       0.0000000000000000
    Empirical Dispersion Energy =           0.0000000000000000
    PCM Polarization Energy =               0.0000000000000000
    EFP Energy =                            0.0000000000000000
    Total Energy =                       -309.0651600644669657
    Molecular point group: c1
  Basis Set: 6-31G*
  Basis Set:

  -Total Gradient:
     Atom            X                  Y                   Z
    ------   -----------------  -----------------  -----------------
       1       -0.000016032538    -0.000014702679     0.000007141478
       2        0.000071829959    -0.000014710482    -0.000046018830
       3       -0.000045832611    -0.000106203184     0.000105365540
       4        0.000021821112     0.000028755509     0.000046392556
       5       -0.000008126593     0.000126910873    -0.000023934070
       6       -0.000004832833     0.000040295013    -0.000044118024
       7       -0.000061743321     0.000006914211     0.000010931779
       8       -0.000009524579    -0.000023352075    -0.000024660375
       9        0.000066485640    -0.000009125422    -0.000038643327
      10        0.000033156145    -0.000023369643     0.000017705095
      11        0.000006411523    -0.000001983505    -0.000010684456
      12       -0.000029948822    -0.000005950196    -0.000016186509
      13       -0.000007828121     0.000001066094     0.000000805862
      14        0.000004072730    -0.000000077435     0.000003358930
      15        0.000001118129     0.000001641160    -0.000003554602
      16       -0.000001990599    -0.000004115129    -0.000001199315
      17        0.000020983621    -0.000007427166     0.000004247258
      18       -0.000026280176    -0.000000934020     0.000011278893
      19       -0.000013738666     0.000006368081     0.000001772117

  **** Optimization is complete! (in 5 steps) ****
    Final optimized geometry and variables:
    Molecular point group: c1

    Geometry (in Angstrom), charge = 0, multiplicity = 1:

    O           -2.043637455286    -1.193879019687    -0.274611754994
    C           -1.655748675464    -0.111400706637     0.044663663676
    C           -0.334358769379     0.058474322117     0.773758780201
    C           -2.440803288428     1.140668456629    -0.277383427603
    C            0.847350528608    -0.025340518803    -0.205136325089
    H           -0.309927463833     1.006591957079     1.303550849017
    H           -0.257319816963    -0.739159346029     1.504592304190
    C            2.201321082537     0.109931537531     0.492840864074
    H            0.754609724017     0.752325962272    -0.961378869176
    H            0.796203448324    -0.975498864821    -0.728068359776
    C            3.378373499632     0.017337629104    -0.477336154300
    H            2.242139674030     1.059522184907     1.022019947855
    H            2.293277337515    -0.666535533245     1.248661585647
    H            3.333068189725     0.803207599312    -1.225949819932
    H            3.382296685730    -0.935537992074    -0.998340292407
    H            4.324792859448     0.112912243503     0.045347193449
    H           -3.284369951270     0.896454200569    -0.907824390125
    H           -1.810350069757     1.873920729366    -0.771875313807
    H           -2.798041233009     1.594317825916     0.643405276270

  Mulliken Charges: (a.u.)
   Center  Symbol    Alpha    Beta     Spin     Total
       1     O     4.26224  4.26224  0.00000 -0.52447
       2     C     2.73713  2.73713  0.00000  0.52574
       3     C     3.20020  3.20020  0.00000 -0.40039
       4     C     3.28956  3.28956  0.00000 -0.57912
       5     C     3.16067  3.16067  0.00000 -0.32133
       6     H     0.41689  0.41689  0.00000  0.16622
       7     H     0.40116  0.40116  0.00000  0.19768
       8     C     3.15184  3.15184  0.00000 -0.30368
       9     H     0.42106  0.42106  0.00000  0.15788
      10     H     0.40604  0.40604  0.00000  0.18792
      11     C     3.24032  3.24032  0.00000 -0.48064
      12     H     0.42248  0.42248  0.00000  0.15503
      13     H     0.41932  0.41932  0.00000  0.16136
      14     H     0.42118  0.42118  0.00000  0.15764
      15     H     0.41879  0.41879  0.00000  0.16242
      16     H     0.41750  0.41750  0.00000  0.16500
      17     H     0.39705  0.39705  0.00000  0.20591
      18     H     0.40980  0.40980  0.00000  0.18040
      19     H     0.40679  0.40679  0.00000  0.18642

   Total alpha = 28.00000, Total beta = 28.00000, Total charge = -0.00000
