  ==> Input File <==

--------------------------------------------------------------------------
set {
	reference rhf
	basis 6-31G*
}

set_num_threads( 4 )
memory 2 gb

molecule MOL {
0 1

H	 1.214360	 1.591118	 -0.808140
O	 0.399590	 1.099993	 -0.849102
C	 0.489431	 0.077273	 0.000046
C	 -0.764129	 -0.759190	 0.000191
O	 1.458661	 -0.116051	 0.658669
C	 -2.038368	 0.075731	 -0.000248
H	 -0.717284	 -1.412404	 -0.866059
H	 -0.717458	 -1.411724	 0.866967
H	 -2.086483	 0.712501	 -0.875098
H	 -2.908485	 -0.571682	 -0.000042
H	 -2.086576	 0.713280	 0.874068

	symmetry c1
}
set optking {
	frozen_dihedral = ("
		2 3 4 7
	")
}

ee = optimize('scf')
oeprop('DIPOLE', 'QUADRUPOLE', 'MULLIKEN_CHARGES')
f=open( 'psi4out.xyz', 'w' )
f.write( "11  " )
f.write( str(ee) + "\n" )
f.write( MOL.save_string_xyz() )
f.close()
--------------------------------------------------------------------------

    Molecular point group: c1
  Charge       = 0
  Multiplicity = 1
  Basis Set: 6-31G*
  Basis Set:
  @DF-RHF Final Energy:  -266.84385027050661
    Total Energy =                       -266.8438502705065503
    Molecular point group: c1
  Basis Set: 6-31G*
  Basis Set:
  Basis Set: 6-31G*
  Basis Set:
  @DF-RHF Final Energy:  -266.84397571982572
    Total Energy =                       -266.8439757198262328
  Basis Set: 6-31G*
  Basis Set:
  Basis Set: 6-31G*
  Basis Set:
  @DF-RHF Final Energy:  -266.84413346373333
    Total Energy =                       -266.8441334637333284
  Basis Set: 6-31G*
  Basis Set:
  Basis Set: 6-31G*
  Basis Set:
  @DF-RHF Final Energy:  -266.84422713887221
    Total Energy =                       -266.8442271388723270
  Basis Set: 6-31G*
  Basis Set:
  Charge       = 0
  Multiplicity = 1
  Basis Set: 6-31G*
  Basis Set:

    Orbital Energies (a.u.)
    -----------------------

    Doubly Occupied:

       1A    -20.614767     2A    -20.550393     3A    -11.381674
       4A    -11.243896     5A    -11.227129     6A     -1.475818
       7A     -1.365542     8A     -1.067099     9A     -0.910551
      10A     -0.820850    11A     -0.701526    12A     -0.680970
      13A     -0.649647    14A     -0.605977    15A     -0.589327
      16A     -0.549463    17A     -0.526240    18A     -0.511195
      19A     -0.475762    20A     -0.440570

  @DF-RHF Final Energy:  -266.84422792109945

   => Energetics <=

    Nuclear Repulsion Energy =            180.0226995851443235
    One-Electron Energy =                -720.9570619929206714
    Two-Electron Energy =                 274.0901344866771296
    DFT Exchange-Correlation Energy =       0.0000000000000000
    Empirical Dispersion Energy =           0.0000000000000000
    PCM Polarization Energy =               0.0000000000000000
    EFP Energy =                            0.0000000000000000
    Total Energy =                       -266.8442279210992183
    Molecular point group: c1
  Basis Set: 6-31G*
  Basis Set:

  -Total Gradient:
     Atom            X                  Y                   Z
    ------   -----------------  -----------------  -----------------
       1        0.000042184966     0.000079509532    -0.000070213356
       2       -0.000107611637     0.000359240632     0.000588753866
       3        0.000351659005    -0.000848503609    -0.000502552209
       4       -0.000600589039     0.000861801971    -0.000395892043
       5       -0.000023718860     0.000218382216    -0.000086019557
       6        0.000037706612    -0.000036014140     0.000084532355
       7        0.000335767041    -0.000568457532     0.000429344235
       8       -0.000036450123    -0.000052444675    -0.000012705625
       9        0.000022740360    -0.000001211761     0.000011606112
      10       -0.000030833529    -0.000010167112    -0.000010078505
      11        0.000009145200    -0.000002135522    -0.000036775271

  **** Optimization is complete! (in 5 steps) ****
    Final optimized geometry and variables:
    Molecular point group: c1

    Geometry (in Angstrom), charge = 0, multiplicity = 1:

    H            1.332020130217     1.472276790861    -0.743132625578
    O            0.497851244432     1.014159254087    -0.779692517710
    C            0.562662302557    -0.024991873987     0.051298727443
    C           -0.697920068354    -0.853231413187     0.056685778392
    O            1.535998055303    -0.258727764534     0.691137047790
    C           -1.993506214787    -0.040767982019     0.050570708221
    H           -0.654354808314    -1.494523680650    -0.820185537397
    H           -0.640314551811    -1.498223858814     0.923357585023
    H           -2.072812729355     0.568348061782    -0.840376510455
    H           -2.846652351694    -0.709161682307     0.084375569138
    H           -2.049721979085     0.614310030890     0.913511319362

  Mulliken Charges: (a.u.)
   Center  Symbol    Alpha    Beta     Spin     Total
       1     H     0.26721  0.26721  0.00000  0.46558
       2     O     4.34731  4.34731  0.00000 -0.69463
       3     C     2.62685  2.62685  0.00000  0.74630
       4     C     3.20588  3.20588  0.00000 -0.41176
       5     O     4.28025  4.28025  0.00000 -0.56051
       6     C     3.24605  3.24605  0.00000 -0.49210
       7     H     0.39936  0.39936  0.00000  0.20128
       8     H     0.39539  0.39539  0.00000  0.20923
       9     H     0.40482  0.40482  0.00000  0.19036
      10     H     0.41330  0.41330  0.00000  0.17340
      11     H     0.41358  0.41358  0.00000  0.17285

   Total alpha = 20.00000, Total beta = 20.00000, Total charge = -0.00000
