                              Psi4 1.0.54 Driver

  ==> Input File <==

--------------------------------------------------------------------------
set {
	reference rhf
	basis cc-pvtz
}

set_num_threads( 4 )
memory 2 gb

molecule MOL {
0 1

H	 2.837865	 -0.433055	 -0.259618
O	 2.006197	 -0.870411	 -0.155764
C	 1.044096	 0.047713	 -0.161265
C	 -0.318151	 -0.570512	 0.000144
O	 1.275405	 1.201000	 -0.281243
C	 -1.454884	 0.441630	 -0.000560
H	 -0.436679	 -1.296675	 -0.797684
H	 -0.302079	 -1.144282	 0.921247
C	 -2.822577	 -0.232186	 0.000063
H	 -1.359760	 1.084704	 -0.867077
H	 -1.359641	 1.085996	 0.864983
H	 -2.954352	 -0.858985	 -0.875745
H	 -3.615886	 0.505352	 0.000019
H	 -2.953878	 -0.858359	 0.876394

	symmetry c1
}
set optking {
	frozen_dihedral = ("
		7 4 6 10
	")
}

ee,wfn = optimize('scf', return_wfn=True)
oeprop( wfn, 'DIPOLE', 'QUADRUPOLE', 'MULLIKEN_CHARGES')
f=open( 'psi4out.xyz', 'w' )
f.write( "14  " )
f.write( str(ee) + "\n" )
f.write( MOL.save_string_xyz() )
f.close()
--------------------------------------------------------------------------

    Molecular point group: c1
  Charge       = 0
  Multiplicity = 1
  Basis Set: CC-PVTZ
  Basis Set:
  @DF-RHF Final Energy:  -306.00089660766378
    Total Energy =                       -306.0008966076637762
    Molecular point group: c1
  Basis Set: CC-PVTZ
  Basis Set:
  Basis Set: CC-PVTZ
  Basis Set:
  @DF-RHF Final Energy:  -306.00091616668692
    Total Energy =                       -306.0009161666869204
  Basis Set: CC-PVTZ
  Basis Set:
  Basis Set: CC-PVTZ
  Basis Set:
  @DF-RHF Final Energy:  -306.00091066892566
    Total Energy =                       -306.0009106689254281
  Basis Set: CC-PVTZ
  Basis Set:
  Basis Set: CC-PVTZ
  Basis Set:
  @DF-RHF Final Energy:  -306.00091976370436
    Total Energy =                       -306.0009197637040756
  Basis Set: CC-PVTZ
  Basis Set:
  Charge       = 0
  Multiplicity = 1
  Basis Set: CC-PVTZ
  Basis Set:

    Orbital Energies (a.u.)
    -----------------------

    Doubly Occupied:

       1A    -20.604524     2A    -20.541149     3A    -11.374157
       4A    -11.239809     5A    -11.223808     6A    -11.215509
       7A     -1.478153     8A     -1.369699     9A     -1.084392
      10A     -0.981100    11A     -0.859426    12A     -0.793096
      13A     -0.704286    14A     -0.692350    15A     -0.669587
      16A     -0.617696    17A     -0.597055    18A     -0.574762
      19A     -0.545917    20A     -0.507433    21A     -0.492386
      22A     -0.485143    23A     -0.481520    24A     -0.448021

  @DF-RHF Final Energy:  -306.00092019318231

   => Energetics <=

    Nuclear Repulsion Energy =            240.4392615054371163
    One-Electron Energy =                -893.7184059157349338
    Two-Electron Energy =                 347.2782242171156213
    DFT Exchange-Correlation Energy =       0.0000000000000000
    Empirical Dispersion Energy =           0.0000000000000000
    PCM Polarization Energy =               0.0000000000000000
    EFP Energy =                            0.0000000000000000
    Total Energy =                       -306.0009201931821963
    Molecular point group: c1
  Basis Set: CC-PVTZ
  Basis Set:

  -Total Gradient:
     Atom            X                  Y                   Z
    ------   -----------------  -----------------  -----------------
       1        0.000013404168    -0.000006587668    -0.000003774930
       2        0.000012568311     0.000017041290     0.000004385812
       3       -0.000035462306     0.000008345403    -0.000020521661
       4        0.000922792413     0.001058636647    -0.000738077309
       5        0.000003264443    -0.000028561451    -0.000002733053
       6       -0.000965493928    -0.001107877690    -0.000555860348
       7       -0.000615831058    -0.000683192091     0.000724306772
       8        0.000004571502    -0.000008097390     0.000011305041
       9       -0.000000336146     0.000003179344    -0.000027089979
      10        0.000649176219     0.000750879482     0.000606700626
      11        0.000003009273    -0.000007409800     0.000006580018
      12       -0.000008480230    -0.000000953007    -0.000000201791
      13        0.000002399054    -0.000000982402     0.000000218575
      14        0.000014418287     0.000005579336    -0.000005237771

  **** Optimization is complete! (in 5 steps) ****
    Final optimized geometry and variables:
    Molecular point group: c1

    Geometry (in Angstrom), charge = 0, multiplicity = 1:

    H            2.843335892150    -0.427782279370    -0.142588190131
    O            2.010876348116    -0.865497720588    -0.046731822868
    C            1.048963370258     0.052782849056    -0.057357409043
    C           -0.314172272491    -0.565368612755     0.092078836446
    O            1.281438782369     1.206389013229    -0.171656702539
    C           -1.452993327208     0.444840411304     0.089968856461
    H           -0.430976155777    -1.294201483991    -0.703566142390
    H           -0.303676441811    -1.141547185464     1.011965356248
    C           -2.820235080360    -0.228526024060     0.109172780250
    H           -1.360950861784     1.086511970934    -0.777506772034
    H           -1.350852779300     1.095349354490     0.950853746420
    H           -2.964243939781    -0.853625604544    -0.765845429045
    H           -3.613336592251     0.509099740357     0.121953385283
    H           -2.939162560671    -0.856344182007     0.986150984658

  Mulliken Charges: (a.u.)
   Center  Symbol    Alpha    Beta     Spin     Total
       1     H     0.38232  0.38232  0.00000  0.23537
       2     O     4.16001  4.16001  0.00000 -0.32003
       3     C     2.80501  2.80501  0.00000  0.38999
       4     C     3.10567  3.10567  0.00000 -0.21134
       5     O     4.19090  4.19090  0.00000 -0.38179
       6     C     3.07963  3.07963  0.00000 -0.15927
       7     H     0.43942  0.43942  0.00000  0.12115
       8     H     0.43844  0.43844  0.00000  0.12313
       9     C     3.15015  3.15015  0.00000 -0.30031
      10     H     0.44476  0.44476  0.00000  0.11049
      11     H     0.44770  0.44770  0.00000  0.10460
      12     H     0.45528  0.45528  0.00000  0.08944
      13     H     0.44511  0.44511  0.00000  0.10977
      14     H     0.45560  0.45560  0.00000  0.08880

   Total alpha = 24.00000, Total beta = 24.00000, Total charge = -0.00000

*** Psi4 exiting successfully. Buy a developer a beer!
