  ==> Input File <==

--------------------------------------------------------------------------
set {
	reference rhf
	basis 6-31G*
}

set_num_threads( 4 )
memory 2 gb

molecule MOL {
0 1

H	 -1.194724	 -1.011909	 0.618576
N	 -1.172117	 -0.314371	 -0.100254
C	 -0.024542	 0.565565	 0.069209
H	 -1.114787	 -0.800992	 -0.974891
C	 1.271298	 -0.229563	 -0.014192
H	 -0.049409	 1.297310	 -0.731596
H	 -0.046881	 1.125219	 1.006750
H	 1.332152	 -0.753033	 -0.961461
H	 2.134169	 0.422483	 0.080702
H	 1.326077	 -0.968298	 0.781395

	symmetry c1
}
set optking {
	frozen_dihedral = ("
		1 2 3 6
	")
}

ee = optimize('scf')
oeprop('DIPOLE', 'QUADRUPOLE', 'MULLIKEN_CHARGES')
f=open( 'psi4out.xyz', 'w' )
f.write( "10  " )
f.write( str(ee) + "\n" )
f.write( MOL.save_string_xyz() )
f.close()
--------------------------------------------------------------------------

    Molecular point group: c1
  Charge       = 0
  Multiplicity = 1
  Basis Set: 6-31G*
  Basis Set:
  @DF-RHF Final Energy:  -134.24522233013963
    Total Energy =                       -134.2452223301396259
    Molecular point group: c1
  Basis Set: 6-31G*
  Basis Set:
  Basis Set: 6-31G*
  Basis Set:
  @DF-RHF Final Energy:  -134.24728059585334
    Total Energy =                       -134.2472805958533115
  Basis Set: 6-31G*
  Basis Set:
  Basis Set: 6-31G*
  Basis Set:
  @DF-RHF Final Energy:  -134.24755120791011
    Total Energy =                       -134.2475512079100781
  Basis Set: 6-31G*
  Basis Set:
  Basis Set: 6-31G*
  Basis Set:
  @DF-RHF Final Energy:  -134.24755348269986
    Total Energy =                       -134.2475534826999137
  Basis Set: 6-31G*
  Basis Set:
  Charge       = 0
  Multiplicity = 1
  Basis Set: 6-31G*
  Basis Set:

    Orbital Energies (a.u.)
    -----------------------

    Doubly Occupied:

       1A    -15.533625     2A    -11.242893     3A    -11.211302
       4A     -1.177431     5A     -0.987930     6A     -0.832386
       7A     -0.674418     8A     -0.598778     9A     -0.571618
      10A     -0.563680    11A     -0.507295    12A     -0.483881
      13A     -0.381360

  @DF-RHF Final Energy:  -134.24755366744088

   => Energetics <=

    Nuclear Repulsion Energy =             83.1869050424850798
    One-Electron Energy =                -345.3357219814936343
    Two-Electron Energy =                 127.9012632715676716
    DFT Exchange-Correlation Energy =       0.0000000000000000
    Empirical Dispersion Energy =           0.0000000000000000
    PCM Polarization Energy =               0.0000000000000000
    EFP Energy =                            0.0000000000000000
    Total Energy =                       -134.2475536674408829
    Molecular point group: c1
  Basis Set: 6-31G*
  Basis Set:

  -Total Gradient:
     Atom            X                  Y                   Z
    ------   -----------------  -----------------  -----------------
       1        0.000152629839    -0.000212651486    -0.000200910380
       2       -0.000190797057     0.000194488795     0.000205359963
       3       -0.000133467893     0.000178493299     0.000155762952
       4        0.000007794884     0.000002609205     0.000009192295
       5       -0.000002476470     0.000002662752    -0.000001144511
       6        0.000157451741    -0.000186909156    -0.000182032204
       7        0.000016365441     0.000001427254     0.000007455813
       8       -0.000009525681     0.000009396476     0.000012588270
       9        0.000009328667     0.000005443320     0.000001935868
      10       -0.000007303472     0.000005039542    -0.000008208066

  **** Optimization is complete! (in 5 steps) ****
    Final optimized geometry and variables:
    Molecular point group: c1

    Geometry (in Angstrom), charge = 0, multiplicity = 1:

    H           -1.252925793854    -0.974094512524     0.646360303781
    N           -1.232355029431    -0.265207984725    -0.062245235192
    C           -0.037641103406     0.554848963119     0.067481815060
    H           -1.239441558752    -0.739885844451    -0.945150526368
    C            1.289314825188    -0.202612117256     0.007956955205
    H           -0.064634822073     1.302127831302    -0.718986454190
    H           -0.107086396614     1.094923323641     1.006226408374
    H            1.396581485002    -0.727031485952    -0.938101469724
    H            2.133150147235     0.473939502671     0.111391609670
    H            1.353664799778    -0.939109960722     0.804880715093

  Mulliken Charges: (a.u.)
   Center  Symbol    Alpha    Beta     Spin     Total
       1     H     0.33563  0.33563  0.00000  0.32874
       2     N     3.91502  3.91502  0.00000 -0.83004
       3     C     3.06495  3.06495  0.00000 -0.12991
       4     H     0.33557  0.33557  0.00000  0.32886
       5     C     3.24395  3.24395  0.00000 -0.48791
       6     H     0.41813  0.41813  0.00000  0.16374
       7     H     0.41785  0.41785  0.00000  0.16429
       8     H     0.42413  0.42413  0.00000  0.15174
       9     H     0.42063  0.42063  0.00000  0.15874
      10     H     0.42413  0.42413  0.00000  0.15173

   Total alpha = 13.00000, Total beta = 13.00000, Total charge =  0.00000
