  ==> Input File <==

--------------------------------------------------------------------------
set {
	reference rhf
	basis 6-31G*
}

set_num_threads( 4 )
memory 2 gb

molecule MOL {
0 1

H	 2.176868	 -0.646004	 -0.217325
O	 1.337496	 -0.537251	 0.205931
C	 0.702312	 0.627605	 -0.264544
C	 -0.714990	 0.596302	 0.266387
H	 0.682322	 0.642550	 -1.350929
H	 1.215941	 1.520383	 0.085680
O	 -1.405996	 -0.526611	 -0.195820
H	 -1.257453	 1.468809	 -0.075599
H	 -0.688972	 0.618407	 1.353696
H	 -0.777529	 -1.099531	 -0.616302

	symmetry c1
}
set optking {
	frozen_dihedral = ("
		10 7 4 3
	")
}

ee = optimize('scf')
oeprop('DIPOLE', 'QUADRUPOLE', 'MULLIKEN_CHARGES')
f=open( 'psi4out.xyz', 'w' )
f.write( "10  " )
f.write( str(ee) + "\n" )
f.write( MOL.save_string_xyz() )
f.close()
--------------------------------------------------------------------------

    Molecular point group: c1
  Charge       = 0
  Multiplicity = 1
  Basis Set: 6-31G*
  Basis Set:
  @DF-RHF Final Energy:  -228.92043184189976
    Total Energy =                       -228.9204318418998128
    Molecular point group: c1
  Basis Set: 6-31G*
  Basis Set:
  Basis Set: 6-31G*
  Basis Set:
  @DF-RHF Final Energy:  -228.92105018035105
    Total Energy =                       -228.9210501803509601
  Basis Set: 6-31G*
  Basis Set:
  Basis Set: 6-31G*
  Basis Set:
  @DF-RHF Final Energy:  -228.92129786838987
    Total Energy =                       -228.9212978683897859
  Basis Set: 6-31G*
  Basis Set:
  Basis Set: 6-31G*
  Basis Set:
  @DF-RHF Final Energy:  -228.92130038727930
    Total Energy =                       -228.9213003872793308
  Basis Set: 6-31G*
  Basis Set:
  Charge       = 0
  Multiplicity = 1
  Basis Set: 6-31G*
  Basis Set:

    Orbital Energies (a.u.)
    -----------------------

    Doubly Occupied:

       1A    -20.573619     2A    -20.544886     3A    -11.283173
       4A    -11.268400     5A     -1.386340     6A     -1.348591
       7A     -1.004575     8A     -0.848131     9A     -0.727870
      10A     -0.667311    11A     -0.666238    12A     -0.599881
      13A     -0.574754    14A     -0.546981    15A     -0.476427
      16A     -0.459016    17A     -0.431090

  @DF-RHF Final Energy:  -228.92130057941930

   => Energetics <=

    Nuclear Repulsion Energy =            134.6536612178540224
    One-Electron Energy =                -580.3353590809389289
    Two-Electron Energy =                 216.7603972836656681
    DFT Exchange-Correlation Energy =       0.0000000000000000
    Empirical Dispersion Energy =           0.0000000000000000
    PCM Polarization Energy =               0.0000000000000000
    EFP Energy =                            0.0000000000000000
    Total Energy =                       -228.9213005794192100
    Molecular point group: c1
  Basis Set: 6-31G*
  Basis Set:

  -Total Gradient:
     Atom            X                  Y                   Z
    ------   -----------------  -----------------  -----------------
       1        0.000005524995    -0.000006577309     0.000002751177
       2        0.000016287972     0.000005948496    -0.000000224950
       3        0.000892616953    -0.001389177026     0.002447863241
       4       -0.001452017317     0.002409005051    -0.004451647030
       5        0.000005525110    -0.000015273982     0.000023741826
       6        0.000029833324     0.000004957952     0.000005740687
       7        0.001221536722    -0.002922607367     0.006218348530
       8       -0.000004576859     0.000003674135     0.000000417590
       9       -0.000007892452    -0.000011453288    -0.000011130727
      10       -0.000706838446     0.001921503341    -0.004235860343

  **** Optimization is complete! (in 5 steps) ****
    Final optimized geometry and variables:
    Molecular point group: c1

    Geometry (in Angstrom), charge = 0, multiplicity = 1:

    H            2.200354394150    -0.611072391782    -0.203404606215
    O            1.322795513300    -0.565995206575     0.148669790703
    C            0.711197505405     0.638005361731    -0.238043556730
    C           -0.717399202202     0.612330944495     0.268676331331
    H            0.716615127870     0.733149236269    -1.322829167946
    H            1.229212054478     1.498496062204     0.178347269013
    O           -1.406589749548    -0.537005354157    -0.133235089787
    H           -1.243138568520     1.487895224132    -0.098347044877
    H           -0.705098749662     0.658348892857     1.353692100862
    H           -0.794226379773    -1.148937892314    -0.517157654343

  Mulliken Charges: (a.u.)
   Center  Symbol    Alpha    Beta     Spin     Total
       1     H     0.27628  0.27628  0.00000  0.44745
       2     O     4.37162  4.37162  0.00000 -0.74324
       3     C     3.03099  3.03099  0.00000 -0.06198
       4     C     2.97825  2.97825  0.00000  0.04350
       5     H     0.42563  0.42563  0.00000  0.14874
       6     H     0.42336  0.42336  0.00000  0.15329
       7     O     4.37827  4.37827  0.00000 -0.75654
       8     H     0.42357  0.42357  0.00000  0.15287
       9     H     0.42089  0.42089  0.00000  0.15822
      10     H     0.27116  0.27116  0.00000  0.45769

   Total alpha = 17.00000, Total beta = 17.00000, Total charge =  0.00000
