  ==> Input File <==

--------------------------------------------------------------------------
set {
	reference rhf
	basis 6-31G*
}

set_num_threads( 4 )
memory 2 gb

molecule MOL {
0 1

H	 -0.095815	 -0.258216	 3.032088
O	 -0.046189	 -0.263029	 2.086994
C	 -0.027600	 1.057957	 1.607601
C	 0.031547	 1.023609	 0.088541
H	 0.843096	 1.588894	 1.988239
H	 -0.908947	 1.598765	 1.945026
C	 -1.134819	 0.293262	 -0.585751
H	 0.962685	 0.543691	 -0.199471
H	 0.081211	 2.050078	 -0.270783
C	 -1.917817	 -0.639439	 0.339494
H	 -0.758119	 -0.268455	 -1.433105
H	 -1.813832	 1.041889	 -0.986690
H	 -2.777680	 -1.057197	 -0.174994
H	 -1.310268	 -1.471279	 0.680599
H	 -2.283753	 -0.111424	 1.216626

	symmetry c1
}
set optking {
	frozen_dihedral = ("
		8 4 7 11
	")
}

ee = optimize('scf')
oeprop('DIPOLE', 'QUADRUPOLE', 'MULLIKEN_CHARGES')
f=open( 'psi4out.xyz', 'w' )
f.write( "15  " )
f.write( str(ee) + "\n" )
f.write( MOL.save_string_xyz() )
f.close()
--------------------------------------------------------------------------

    Molecular point group: c1
  Charge       = 0
  Multiplicity = 1
  Basis Set: 6-31G*
  Basis Set:
  @DF-RHF Final Energy:  -232.12914807045260
    Total Energy =                       -232.1291480704527430
    Molecular point group: c1
  Basis Set: 6-31G*
  Basis Set:
  Basis Set: 6-31G*
  Basis Set:
  @DF-RHF Final Energy:  -232.13497448277573
    Total Energy =                       -232.1349744827755330
  Basis Set: 6-31G*
  Basis Set:
  Basis Set: 6-31G*
  Basis Set:
  @DF-RHF Final Energy:  -232.13639292221580
    Total Energy =                       -232.1363929222159754
  Basis Set: 6-31G*
  Basis Set:
  Basis Set: 6-31G*
  Basis Set:
  @DF-RHF Final Energy:  -232.13667357192222
    Total Energy =                       -232.1366735719221879
  Basis Set: 6-31G*
  Basis Set:
  Basis Set: 6-31G*
  Basis Set:
  @DF-RHF Final Energy:  -232.13667245082718
    Total Energy =                       -232.1366724508273478
  Basis Set: 6-31G*
  Basis Set:
  Basis Set: 6-31G*
  Basis Set:
  @DF-RHF Final Energy:  -232.13673273798503
    Total Energy =                       -232.1367327379850849
  Basis Set: 6-31G*
  Basis Set:
  Basis Set: 6-31G*
  Basis Set:
  @DF-RHF Final Energy:  -232.13673636623599
    Total Energy =                       -232.1367363662359935
  Basis Set: 6-31G*
  Basis Set:
  Charge       = 0
  Multiplicity = 1
  Basis Set: 6-31G*
  Basis Set:

    Orbital Energies (a.u.)
    -----------------------

    Doubly Occupied:

       1A    -20.552970     2A    -11.268866     3A    -11.213178
       4A    -11.212174     5A    -11.197409     6A     -1.359868
       7A     -1.059295     8A     -0.969892     9A     -0.867473
      10A     -0.772195    11A     -0.703831    12A     -0.648370
      13A     -0.608493    14A     -0.567758    15A     -0.557187
      16A     -0.533975    17A     -0.507384    18A     -0.475759
      19A     -0.460811    20A     -0.451399    21A     -0.426654

  @DF-RHF Final Energy:  -232.13673648261531

   => Energetics <=

    Nuclear Repulsion Energy =            192.9464758060747442
    One-Electron Energy =                -697.3365382851984577
    Two-Electron Energy =                 272.2533259965083516
    DFT Exchange-Correlation Energy =       0.0000000000000000
    Empirical Dispersion Energy =           0.0000000000000000
    PCM Polarization Energy =               0.0000000000000000
    EFP Energy =                            0.0000000000000000
    Total Energy =                       -232.1367364826153334
    Molecular point group: c1
  Basis Set: 6-31G*
  Basis Set:

  -Total Gradient:
     Atom            X                  Y                   Z
    ------   -----------------  -----------------  -----------------
       1       -0.000000793062    -0.000003292470    -0.000003860634
       2        0.000004261117     0.000011693358     0.000014464643
       3       -0.000004799206    -0.000019727096     0.000001663828
       4       -0.000602252225    -0.004465820160     0.005052437594
       5        0.000004109532    -0.000005607352     0.000010795970
       6        0.000004007388     0.000004661800    -0.000004285552
       7       -0.000417995862     0.005304466618    -0.004077639967
       8        0.000530625324     0.002950431144    -0.003616147927
       9        0.000010485447     0.000007086213    -0.000011378135
      10        0.000011713563    -0.000004194246    -0.000004014701
      11        0.000457084682    -0.003779493338     0.002643457464
      12        0.000005753237     0.000004537442     0.000002671725
      13       -0.000016279906    -0.000007689546    -0.000005808558
      14        0.000005501600    -0.000006093549     0.000003680869
      15        0.000008578369     0.000009041184    -0.000006036620

  **** Optimization is complete! (in 8 steps) ****
    Final optimized geometry and variables:
    Molecular point group: c1

    Geometry (in Angstrom), charge = 0, multiplicity = 1:

    H            0.727062726999    -0.412373441031     2.368712752122
    O            0.796240341495    -0.472541213932     1.426497758637
    C            0.576581493607     0.792501747642     0.855507981380
    C            0.616121727835     0.678062794369    -0.659616312583
    H            1.353800151180     1.484308686351     1.174883003991
    H           -0.376661960144     1.204162341358     1.182463172530
    C           -0.599103270875     0.031361665541    -1.368319512082
    H            1.530617793355     0.165800439873    -0.941493851618
    H            0.730388919616     1.687893863111    -1.048941018562
    C           -1.444023804256    -0.943041536631    -0.539940713830
    H           -0.229698111714    -0.523751732611    -2.225490314621
    H           -1.248411159089     0.812813697101    -1.752596257753
    H           -2.252549841568    -1.334457761464    -1.150866313021
    H           -0.853434377407    -1.776031492001    -0.181159989230
    H           -1.892175043731    -0.463336651471     0.323813255600

  Mulliken Charges: (a.u.)
   Center  Symbol    Alpha    Beta     Spin     Total
       1     H     0.28111  0.28111  0.00000  0.43777
       2     O     4.36834  4.36834  0.00000 -0.73669
       3     C     3.00126  3.00126  0.00000 -0.00252
       4     C     3.16052  3.16052  0.00000 -0.32104
       5     H     0.42856  0.42856  0.00000  0.14287
       6     H     0.43124  0.43124  0.00000  0.13751
       7     C     3.15561  3.15561  0.00000 -0.31123
       8     H     0.41170  0.41170  0.00000  0.17660
       9     H     0.42254  0.42254  0.00000  0.15493
      10     C     3.23621  3.23621  0.00000 -0.47243
      11     H     0.41981  0.41981  0.00000  0.16039
      12     H     0.42354  0.42354  0.00000  0.15293
      13     H     0.42538  0.42538  0.00000  0.14923
      14     H     0.40826  0.40826  0.00000  0.18347
      15     H     0.42591  0.42591  0.00000  0.14818

   Total alpha = 21.00000, Total beta = 21.00000, Total charge = -0.00000
