                              Psi4 1.0.54 Driver

  ==> Input File <==

--------------------------------------------------------------------------
set {
	reference rhf
	basis cc-pvtz
}

set_num_threads( 4 )
memory 2 gb

molecule MOL {
0 1

H	 -3.162190	 0.493205	 -0.000107
C	 -2.363908	 -0.234727	 0.000005
O	 -1.158738	 0.454634	 -0.000087
H	 -2.464314	 -0.863616	 -0.882153
H	 -2.464327	 -0.863359	 0.882345
C	 -0.028611	 -0.359694	 0.000037
C	 -0.028376	 -1.213450	 -1.251959
H	 -0.024648	 -0.993584	 0.887058
H	 0.873025	 0.252080	 0.037808
C	 1.182365	 -2.136953	 -1.326791
H	 -0.943531	 -1.794776	 -1.273802
H	 -0.052941	 -0.559015	 -2.116287
H	 1.213121	 -2.817757	 -0.482606
H	 1.157128	 -2.734546	 -2.229712
H	 2.109640	 -1.573738	 -1.331024

	symmetry c1
}
set optking {
	frozen_dihedral = ("
		8 6 3 2
	")
}

ee,wfn = optimize('scf', return_wfn=True)
oeprop( wfn, 'DIPOLE', 'QUADRUPOLE', 'MULLIKEN_CHARGES')
f=open( 'psi4out.xyz', 'w' )
f.write( "15  " )
f.write( str(ee) + "\n" )
f.write( MOL.save_string_xyz() )
f.close()
--------------------------------------------------------------------------

    Molecular point group: c1
  Charge       = 0
  Multiplicity = 1
  Basis Set: CC-PVTZ
  Basis Set:
  @DF-RHF Final Energy:  -232.21913917868858
    Total Energy =                       -232.2191391786883514
    Molecular point group: c1
  Basis Set: CC-PVTZ
  Basis Set:
  Basis Set: CC-PVTZ
  Basis Set:
  @DF-RHF Final Energy:  -231.84527836011458
    Total Energy =                       -231.8452783601145200
  Basis Set: CC-PVTZ
  Basis Set:
  Basis Set: CC-PVTZ
  Basis Set:
  @DF-RHF Final Energy:  -232.00597753671022
    Total Energy =                       -232.0059775367103896
  Basis Set: CC-PVTZ
  Basis Set:
  Basis Set: CC-PVTZ
  Basis Set:
  @DF-RHF Final Energy:  -232.14240259212926
    Total Energy =                       -232.1424025921292014
  Basis Set: CC-PVTZ
  Basis Set:
  @DF-RHF Final Energy:  -232.21309020435859
    Total Energy =                       -232.2130902043585934
  @DF-RHF Final Energy:  -232.22392483981076
    Total Energy =                       -232.2239248398107634
  Basis Set: CC-PVTZ
  Basis Set:
  @DF-RHF Final Energy:  -232.22476974832051
    Total Energy =                       -232.2247697483205684
  Basis Set: CC-PVTZ
  Basis Set:
  Basis Set: CC-PVTZ
  Basis Set:
  @DF-RHF Final Energy:  -232.22485402181618
    Total Energy =                       -232.2248540218162134
  Basis Set: CC-PVTZ
  Basis Set:
  Basis Set: CC-PVTZ
  Basis Set:
  @DF-RHF Final Energy:  -232.22486050262265
    Total Energy =                       -232.2248605026228461
  Basis Set: CC-PVTZ
  Basis Set:
  Charge       = 0
  Multiplicity = 1
  Basis Set: CC-PVTZ
  Basis Set:

    Orbital Energies (a.u.)
    -----------------------

    Doubly Occupied:

       1A    -20.545744     2A    -11.264255     3A    -11.260657
       4A    -11.216224     5A    -11.213417     6A     -1.377844
       7A     -1.057980     8A     -0.960724     9A     -0.884089
      10A     -0.803872    11A     -0.671400    12A     -0.659757
      13A     -0.634798    14A     -0.604454    15A     -0.565042
      16A     -0.530632    17A     -0.524503    18A     -0.498516
      19A     -0.485988    20A     -0.454753    21A     -0.410011

  @DF-RHF Final Energy:  -232.22486105523535

   => Energetics <=

    Nuclear Repulsion Energy =            192.0491235150881835
    One-Electron Energy =                -695.2986546403046759
    Two-Electron Energy =                 271.0246700699814255
    DFT Exchange-Correlation Energy =       0.0000000000000000
    Empirical Dispersion Energy =           0.0000000000000000
    PCM Polarization Energy =               0.0000000000000000
    EFP Energy =                            0.0000000000000000
    Total Energy =                       -232.2248610552350669
    Molecular point group: c1
  Basis Set: CC-PVTZ
  Basis Set:

  -Total Gradient:
     Atom            X                  Y                   Z
    ------   -----------------  -----------------  -----------------
       1        0.000007569529    -0.000013924970     0.000002248769
       2       -0.000503526054    -0.000521233043    -0.001274084477
       3        0.001163499935     0.000868920181     0.001898533830
       4        0.000007442079     0.000012621520     0.000018717186
       5        0.000001303195     0.000002903684    -0.000029887100
       6       -0.002416663819    -0.000732364416    -0.000814102782
       7        0.000022624522    -0.000008454873     0.000005109271
       8        0.001713229497     0.000419857202     0.000187888522
       9        0.000043413653    -0.000010432909    -0.000000320484
      10       -0.000012519576    -0.000006997045    -0.000006177988
      11       -0.000052439718    -0.000006553953     0.000015175710
      12        0.000007820450     0.000000791297    -0.000007058540
      13       -0.000008758107    -0.000008295800     0.000003940753
      14        0.000013452846     0.000006557165     0.000009073797
      15        0.000013551567    -0.000003394041    -0.000009056466

  **** Optimization is complete! (in 10 steps) ****
    Final optimized geometry and variables:
    Molecular point group: c1

    Geometry (in Angstrom), charge = 0, multiplicity = 1:

    H           -0.947067487072     2.916130083977    -0.030688423534
    C           -0.944365940665     1.855650313220     0.176973802945
    O            0.325857633978     1.375824226899    -0.121385875080
    H           -1.715016106530     1.386448900261    -0.426133128534
    H           -1.189809260599     1.708003529248     1.227097592591
    C            0.612343370001     0.074559190459     0.294030447938
    C           -0.214159655536    -1.010226708586    -0.382797013978
    H            0.517877337177     0.002322101812     1.378056841901
    H            1.658546984008    -0.078203849216     0.059515496602
    C            0.271391640472    -2.405798935975    -0.003517821245
    H           -1.260086880910    -0.911519851765    -0.113474943666
    H           -0.150424746938    -0.873308530053    -1.457568921090
    H            0.207825886528    -2.567371215436     1.067527657630
    H           -0.325473206316    -3.169634649126    -0.486698451855
    H            1.303914788503    -2.556837166681    -0.299534158544

  Mulliken Charges: (a.u.)
   Center  Symbol    Alpha    Beta     Spin     Total
       1     H     0.44421  0.44421  0.00000  0.11158
       2     C     3.03593  3.03593  0.00000 -0.07186
       3     O     4.17600  4.17600  0.00000 -0.35199
       4     H     0.46868  0.46868  0.00000  0.06265
       5     H     0.47294  0.47294  0.00000  0.05411
       6     C     2.97689  2.97689  0.00000  0.04622
       7     C     3.09143  3.09143  0.00000 -0.18287
       8     H     0.47068  0.47068  0.00000  0.05864
       9     H     0.45021  0.45021  0.00000  0.09958
      10     C     3.15241  3.15241  0.00000 -0.30482
      11     H     0.45595  0.45595  0.00000  0.08810
      12     H     0.44940  0.44940  0.00000  0.10120
      13     H     0.45517  0.45517  0.00000  0.08966
      14     H     0.44670  0.44670  0.00000  0.10659
      15     H     0.45339  0.45339  0.00000  0.09321

   Total alpha = 21.00000, Total beta = 21.00000, Total charge =  0.00000

*** Psi4 exiting successfully. Buy a developer a beer!
