                              Psi4 1.0.54 Driver

  ==> Input File <==

--------------------------------------------------------------------------
set {
	reference rhf
	basis cc-pvtz
}

set_num_threads( 4 )
memory 2 gb

molecule MOL {
0 1

H	 -0.000342	 -0.223902	 -3.352295
C	 -0.027146	 0.371068	 -2.446756
C	 0.024493	 -0.518541	 -1.216015
H	 -0.932586	 0.964979	 -2.449855
H	 0.819708	 1.049865	 -2.473332
N	 -0.042516	 0.263377	 0.000000
H	 -0.822211	 -1.197105	 -1.225584
H	 0.921114	 -1.142847	 -1.255206
C	 0.024493	 -0.518541	 1.216015
H	 0.682568	 0.950412	 0.000000
C	 -1.122521	 -1.511868	 1.296357
H	 0.967474	 -1.055412	 1.218073
H	 0.025106	 0.110259	 2.110349
H	 -1.112687	 -2.175250	 0.440560
H	 -1.051207	 -2.109016	 2.198043
H	 -2.080386	 -1.001177	 1.314288

	symmetry c1
}
set optking {
	frozen_dihedral = ("
		12 9 6 3
	")
}

ee,wfn = optimize('scf', return_wfn=True)
oeprop( wfn, 'DIPOLE', 'QUADRUPOLE', 'MULLIKEN_CHARGES')
f=open( 'psi4out.xyz', 'w' )
f.write( "16  " )
f.write( str(ee) + "\n" )
f.write( MOL.save_string_xyz() )
f.close()
--------------------------------------------------------------------------

    Molecular point group: c1
  Charge       = 0
  Multiplicity = 1
  Basis Set: CC-PVTZ
  Basis Set:
  @DF-RHF Final Energy:  -212.38867327759550
    Total Energy =                       -212.3886732775958990
    Molecular point group: c1
  Basis Set: CC-PVTZ
  Basis Set:
  Basis Set: CC-PVTZ
  Basis Set:
  @DF-RHF Final Energy:  -211.83321171718597
    Total Energy =                       -211.8332117171857476
  Basis Set: CC-PVTZ
  Basis Set:
  Basis Set: CC-PVTZ
  Basis Set:
  @DF-RHF Final Energy:  -212.00607850013768
    Total Energy =                       -212.0060785001376757
  Basis Set: CC-PVTZ
  Basis Set:
  Basis Set: CC-PVTZ
  Basis Set:
  @DF-RHF Final Energy:  -211.94943478200369
    Total Energy =                       -211.9494347820035500
  Basis Set: CC-PVTZ
  Basis Set:
  @DF-RHF Final Energy:  -212.23238657484814
    Total Energy =                       -212.2323865748481921
  @DF-RHF Final Energy:  -212.37436413939525
    Total Energy =                       -212.3743641393953112
  @DF-RHF Final Energy:  -212.35913340802531
    Total Energy =                       -212.3591334080252864
  @DF-RHF Final Energy:  -212.39069564284978
    Total Energy =                       -212.3906956428497210
  Basis Set: CC-PVTZ
  Basis Set:
  @DF-RHF Final Energy:  -212.39205665681075
    Total Energy =                       -212.3920566568108370
  Basis Set: CC-PVTZ
  Basis Set:
  Basis Set: CC-PVTZ
  Basis Set:
  @DF-RHF Final Energy:  -212.39218716336015
    Total Energy =                       -212.3921871633601199
  Basis Set: CC-PVTZ
  Basis Set:
  Basis Set: CC-PVTZ
  Basis Set:
  @DF-RHF Final Energy:  -212.39219133520007
    Total Energy =                       -212.3921913352003230
  Basis Set: CC-PVTZ
  Basis Set:
  Charge       = 0
  Multiplicity = 1
  Basis Set: CC-PVTZ
  Basis Set:

    Orbital Energies (a.u.)
    -----------------------

    Doubly Occupied:

       1A    -15.528232     2A    -11.239531     3A    -11.238179
       4A    -11.207278     5A    -11.204380     6A     -1.205249
       7A     -1.025742     8A     -0.968395     9A     -0.849781
      10A     -0.798146    11A     -0.661980    12A     -0.628154
      13A     -0.617928    14A     -0.587366    15A     -0.537894
      16A     -0.523347    17A     -0.512022    18A     -0.493223
      19A     -0.483760    20A     -0.468985    21A     -0.360132

  @DF-RHF Final Energy:  -212.39219181286444

   => Energetics <=

    Nuclear Repulsion Energy =            191.6967352627380023
    One-Electron Energy =                -665.8984445617088568
    Two-Electron Energy =                 261.8095174861064152
    DFT Exchange-Correlation Energy =       0.0000000000000000
    Empirical Dispersion Energy =           0.0000000000000000
    PCM Polarization Energy =               0.0000000000000000
    EFP Energy =                            0.0000000000000000
    Total Energy =                       -212.3921918128644393
    Molecular point group: c1
  Basis Set: CC-PVTZ
  Basis Set:

  -Total Gradient:
     Atom            X                  Y                   Z
    ------   -----------------  -----------------  -----------------
       1       -0.000008815924     0.000006448752    -0.000013658859
       2       -0.000007109358    -0.000022154569     0.000020243488
       3       -0.001720034950    -0.000050492478    -0.000050413623
       4        0.000008713911     0.000003764042    -0.000013494243
       5        0.000024902845     0.000014807772     0.000020462998
       6        0.002768701235    -0.000050006389     0.000615407997
       7       -0.000032443441    -0.000028313145    -0.000019518111
       8       -0.000008371119    -0.000011583364     0.000010221228
       9       -0.002002969455     0.000399955827    -0.002542689919
      10        0.000013136377     0.000018307873     0.000019596148
      11       -0.000045267591    -0.000035959129     0.000007144964
      12        0.000992921100    -0.000283354006     0.001979655166
      13        0.000011506942    -0.000000477864     0.000007747905
      14       -0.000003325298     0.000007456470    -0.000028401835
      15        0.000003730987     0.000032184518    -0.000006782210
      16        0.000004723738    -0.000000584309    -0.000005521095

  **** Optimization is complete! (in 12 steps) ****
    Final optimized geometry and variables:
    Molecular point group: c1

    Geometry (in Angstrom), charge = 0, multiplicity = 1:

    H            0.327824698790     2.983517480726    -1.028044228417
    C            0.318975638494     2.353715275923    -0.146171797133
    C            0.221600164012     0.887155962001    -0.532955784195
    H           -0.521664046818     2.640496947857     0.473550130132
    H            1.230089344907     2.552191015367     0.410006694282
    N            0.170294059245     0.046450664381     0.645151654773
    H           -0.680721889656     0.734844077454    -1.111679406342
    H            1.059498164549     0.627990383229    -1.186728567963
    C            0.232359933032    -1.383750243636     0.411980689930
    H            0.896704019271     0.309619533203     1.275745488125
    C           -0.965052212203    -1.921037514782    -0.357741386244
    H            1.155880849289    -1.677593138909    -0.094645565379
    H            0.256912143692    -1.862214165342     1.384789161937
    H           -0.986116451740    -1.566344856330    -1.380713365024
    H           -0.928357677983    -3.003900625539    -0.389884545292
    H           -1.888676487104    -1.622965393239     0.124078804658

  Mulliken Charges: (a.u.)
   Center  Symbol    Alpha    Beta     Spin     Total
       1     H     0.45333  0.45333  0.00000  0.09334
       2     C     3.14408  3.14408  0.00000 -0.28815
       3     C     3.02174  3.02174  0.00000 -0.04349
       4     H     0.44916  0.44916  0.00000  0.10168
       5     H     0.45931  0.45931  0.00000  0.08137
       6     N     3.63791  3.63791  0.00000 -0.27582
       7     H     0.45721  0.45721  0.00000  0.08557
       8     H     0.47453  0.47453  0.00000  0.05094
       9     C     3.03231  3.03231  0.00000 -0.06461
      10     H     0.44246  0.44246  0.00000  0.11507
      11     C     3.14859  3.14859  0.00000 -0.29717
      12     H     0.47029  0.47029  0.00000  0.05942
      13     H     0.45480  0.45480  0.00000  0.09039
      14     H     0.45486  0.45486  0.00000  0.09028
      15     H     0.44964  0.44964  0.00000  0.10072
      16     H     0.44977  0.44977  0.00000  0.10047

   Total alpha = 21.00000, Total beta = 21.00000, Total charge =  0.00000

*** Psi4 exiting successfully. Buy a developer a beer!
