  ==> Input File <==

--------------------------------------------------------------------------
set {
	reference rhf
	basis 6-31G*
}

set_num_threads( 4 )
memory 2 gb

molecule MOL {
0 1

O	 2.692424	 1.622770	 1.032639
C	 2.581111	 0.574564	 1.590880
C	 1.286943	 -0.218994	 1.572620
C	 3.734587	 -0.036097	 2.360128
C	 0.161497	 0.445005	 0.784768
H	 1.507546	 -1.206912	 1.170451
H	 0.985630	 -0.388944	 2.605446
C	 -1.124649	 -0.382990	 0.788712
H	 0.491235	 0.610075	 -0.236092
H	 -0.031473	 1.428868	 1.200610
C	 -2.259874	 0.272531	 0.000494
H	 -0.923166	 -1.369483	 0.373642
H	 -1.448840	 -0.546158	 1.815524
C	 -3.549786	 -0.549746	 -0.000374
H	 -1.937155	 0.435472	 -1.026308
H	 -2.462740	 1.258406	 0.415093
C	 -4.809590	 0.315458	 -0.000369
H	 -3.560515	 -1.202009	 -0.871156
H	 -3.561123	 -1.202955	 0.869711
H	 -4.844746	 0.956611	 -0.876632
H	 -5.706986	 -0.295590	 -0.001609
H	 -4.845960	 0.954827	 0.877144
H	 3.986755	 -1.011411	 1.954180
H	 4.596888	 0.613359	 2.301161
H	 3.460791	 -0.181410	 3.401067

	symmetry c1
}
set optking {
	frozen_dihedral = ("
		15 11 14 18
	")
}

ee = optimize('scf')
oeprop('DIPOLE', 'QUADRUPOLE', 'MULLIKEN_CHARGES')
f=open( 'psi4out.xyz', 'w' )
f.write( "25  " )
f.write( str(ee) + "\n" )
f.write( MOL.save_string_xyz() )
f.close()
--------------------------------------------------------------------------

    Molecular point group: c1
  Charge       = 0
  Multiplicity = 1
  Basis Set: 6-31G*
  Basis Set:
  @DF-RHF Final Energy:  -387.13301405553028
    Total Energy =                       -387.1330140555301114
    Molecular point group: c1
  Basis Set: 6-31G*
  Basis Set:
  Basis Set: 6-31G*
  Basis Set:
  @DF-RHF Final Energy:  -387.13327302023072
    Total Energy =                       -387.1332730202304901
  Basis Set: 6-31G*
  Basis Set:
  Basis Set: 6-31G*
  Basis Set:
  @DF-RHF Final Energy:  -387.13335181151024
    Total Energy =                       -387.1333518115095558
  Basis Set: 6-31G*
  Basis Set:
  Basis Set: 6-31G*
  Basis Set:
  @DF-RHF Final Energy:  -387.13334669965991
    Total Energy =                       -387.1333466996597963
  Basis Set: 6-31G*
  Basis Set:
  Basis Set: 6-31G*
  Basis Set:
  @DF-RHF Final Energy:  -387.13333919507915
    Total Energy =                       -387.1333391950792020
  Basis Set: 6-31G*
  Basis Set:
  Basis Set: 6-31G*
  Basis Set:
  @DF-RHF Final Energy:  -387.13335712866041
    Total Energy =                       -387.1333571286611459
  Basis Set: 6-31G*
  Basis Set:
  Basis Set: 6-31G*
  Basis Set:
  @DF-RHF Final Energy:  -387.13335879425335
    Total Energy =                       -387.1333587942533541
  Basis Set: 6-31G*
  Basis Set:
  Charge       = 0
  Multiplicity = 1
  Basis Set: 6-31G*
  Basis Set:

    Orbital Energies (a.u.)
    -----------------------

    Doubly Occupied:

       1A    -20.550440     2A    -11.326273     3A    -11.231853
       4A    -11.228327     5A    -11.216979     6A    -11.216347
       7A    -11.215298     8A    -11.213474     9A    -11.208233
      10A     -1.395741    11A     -1.092949    12A     -1.055356
      13A     -1.014290    14A     -0.969127    15A     -0.890067
      16A     -0.814494    17A     -0.790382    18A     -0.729841
      19A     -0.660365    20A     -0.652100    21A     -0.630169
      22A     -0.623778    23A     -0.598110    24A     -0.585252
      25A     -0.568307    26A     -0.559341    27A     -0.536252
      28A     -0.526809    29A     -0.514362    30A     -0.489598
      31A     -0.486555    32A     -0.475196    33A     -0.463455
      34A     -0.459678    35A     -0.449199    36A     -0.399247

  @DF-RHF Final Energy:  -387.13335882087512

   => Energetics <=

    Nuclear Repulsion Energy =            438.4422992010213989
    One-Electron Energy =               -1393.4768202787033715
    Two-Electron Energy =                 567.9011622568070834
    DFT Exchange-Correlation Energy =       0.0000000000000000
    Empirical Dispersion Energy =           0.0000000000000000
    PCM Polarization Energy =               0.0000000000000000
    EFP Energy =                            0.0000000000000000
    Total Energy =                       -387.1333588208749461
    Molecular point group: c1
  Basis Set: 6-31G*
  Basis Set:

  -Total Gradient:
     Atom            X                  Y                   Z
    ------   -----------------  -----------------  -----------------
       1        0.000001172176    -0.000001917729    -0.000005484559
       2       -0.000006173569     0.000008803844     0.000010418839
       3       -0.000000213674    -0.000008639775    -0.000008050590
       4       -0.000000864492    -0.000002752929    -0.000001906186
       5       -0.000004585246     0.000009425920     0.000014028378
       6       -0.000000903332    -0.000001751240     0.000001973225
       7        0.000000285112     0.000002179900     0.000001073561
       8        0.000005272032     0.000000928514    -0.000026336598
       9       -0.000003098906    -0.000002849657    -0.000001539289
      10       -0.000000574011     0.000000542224    -0.000000649438
      11       -0.003392325117     0.005151405131    -0.000733720937
      12        0.000003980411    -0.000004504177     0.000001182075
      13       -0.000002382678     0.000004327073    -0.000005120933
      14        0.002978976807    -0.004620667018     0.002888781238
      15        0.002396003877    -0.003580184761     0.000179635584
      16        0.000012883603     0.000017109434     0.000000363923
      17        0.000007914144    -0.000013337054    -0.000008934543
      18       -0.001987253988     0.003057161300    -0.002303916139
      19       -0.000014537320    -0.000016434502     0.000000593761
      20       -0.000004840645    -0.000002693820    -0.000004342092
      21        0.000002779524     0.000001650667     0.000004636499
      22        0.000008658261     0.000003308894    -0.000000592129
      23        0.000001011090    -0.000000408262    -0.000000619004
      24       -0.000001090622     0.000000139486    -0.000000874568
      25       -0.000000093435    -0.000000841461    -0.000000600078

  **** Optimization is complete! (in 8 steps) ****
    Final optimized geometry and variables:
    Molecular point group: c1

    Geometry (in Angstrom), charge = 0, multiplicity = 1:

    O            2.856385033935     1.375577582400     0.102682125683
    C            2.741573830892     0.333437702978     0.671463670057
    C            1.439869327736    -0.447905259978     0.675018708732
    C            3.898043473852    -0.281524352177     1.432758514131
    C            0.311137335333     0.220712616689    -0.104209076712
    H            1.646307773882    -1.440816291070     0.277601788185
    H            1.149652518053    -0.607371625064     1.712658588767
    C           -0.981684009564    -0.595791693882    -0.080708466551
    H            0.630989694812     0.376958286069    -1.129608803495
    H            0.131147275102     1.208887586466     0.307585701729
    C           -2.126020208825     0.070697821335    -0.850335264725
    H           -0.796228726087    -1.583851984543    -0.500358450040
    H           -1.291774404296    -0.757921718826     0.950575922135
    C           -3.404910796874    -0.783653628422    -0.885475946300
    H           -1.784355649309     0.248638817891    -1.867230249305
    H           -2.334663133191     1.041622943511    -0.407718114662
    C           -4.680519746323     0.058753743892    -0.955034647834
    H           -3.382454801535    -1.428468932775    -1.760133408558
    H           -3.449745352849    -1.428789245617    -0.012014885856
    H           -4.670698670659     0.711368455993    -1.823713562696
    H           -5.564511952123    -0.568131072287    -1.022771705613
    H           -4.784485581322     0.685699048675    -0.073969764040
    H            4.135988031945    -1.262867518386     1.032799444730
    H            4.765835298719     0.358899367414     1.357828080120
    H            3.635110268410    -0.414788553523     2.478106550609

  Mulliken Charges: (a.u.)
   Center  Symbol    Alpha    Beta     Spin     Total
       1     O     4.26116  4.26116  0.00000 -0.52233
       2     C     2.73571  2.73571  0.00000  0.52858
       3     C     3.21076  3.21076  0.00000 -0.42151
       4     C     3.28663  3.28663  0.00000 -0.57326
       5     C     3.14840  3.14840  0.00000 -0.29680
       6     H     0.40997  0.40997  0.00000  0.18006
       7     H     0.41004  0.41004  0.00000  0.17992
       8     C     3.15549  3.15549  0.00000 -0.31099
       9     H     0.41224  0.41224  0.00000  0.17552
      10     H     0.41230  0.41230  0.00000  0.17539
      11     C     3.15243  3.15243  0.00000 -0.30487
      12     H     0.42471  0.42471  0.00000  0.15059
      13     H     0.42497  0.42497  0.00000  0.15005
      14     C     3.15307  3.15307  0.00000 -0.30613
      15     H     0.42061  0.42061  0.00000  0.15877
      16     H     0.42073  0.42073  0.00000  0.15854
      17     C     3.23989  3.23989  0.00000 -0.47977
      18     H     0.42128  0.42128  0.00000  0.15744
      19     H     0.42203  0.42203  0.00000  0.15593
      20     H     0.42116  0.42116  0.00000  0.15768
      21     H     0.42051  0.42051  0.00000  0.15899
      22     H     0.42198  0.42198  0.00000  0.15603
      23     H     0.40875  0.40875  0.00000  0.18251
      24     H     0.39647  0.39647  0.00000  0.20707
      25     H     0.40870  0.40870  0.00000  0.18260

   Total alpha = 36.00000, Total beta = 36.00000, Total charge =  0.00000
