                              Psi4 1.0.54 Driver

  ==> Input File <==

--------------------------------------------------------------------------
set {
	reference rhf
	basis cc-pvtz
}

set_num_threads( 4 )
memory 2 gb

molecule MOL {
0 1

H	 -3.162190	 0.493205	 -0.000107
C	 -2.363908	 -0.234727	 0.000005
O	 -1.158738	 0.454634	 -0.000087
H	 -2.464314	 -0.863616	 -0.882153
H	 -2.464327	 -0.863359	 0.882345
C	 -0.028611	 -0.359694	 0.000037
C	 -0.414776	 -1.749435	 0.464676
H	 0.733356	 0.058341	 0.658285
H	 0.400411	 -0.403974	 -1.001273
C	 0.772820	 -2.705043	 0.492612
H	 -0.856259	 -1.673244	 1.452204
H	 -1.186511	 -2.131895	 -0.194189
H	 1.547732	 -2.353131	 1.165483
H	 0.468992	 -3.689079	 0.827846
H	 1.215083	 -2.815079	 -0.491951

	symmetry c1
}
set optking {
	frozen_dihedral = ("
		8 6 3 2
	")
}

ee,wfn = optimize('scf', return_wfn=True)
oeprop( wfn, 'DIPOLE', 'QUADRUPOLE', 'MULLIKEN_CHARGES')
f=open( 'psi4out.xyz', 'w' )
f.write( "15  " )
f.write( str(ee) + "\n" )
f.write( MOL.save_string_xyz() )
f.close()
--------------------------------------------------------------------------

    Molecular point group: c1
  Charge       = 0
  Multiplicity = 1
  Basis Set: CC-PVTZ
  Basis Set:
  @DF-RHF Final Energy:  -232.20470251978441
    Total Energy =                       -232.2047025197842345
    Molecular point group: c1
  Basis Set: CC-PVTZ
  Basis Set:
  Basis Set: CC-PVTZ
  Basis Set:
  @DF-RHF Final Energy:  -231.21788313958589
    Total Energy =                       -231.2178831395856662
  Basis Set: CC-PVTZ
  Basis Set:
  Basis Set: CC-PVTZ
  Basis Set:
  @DF-RHF Final Energy:  -231.41324802811400
    Total Energy =                       -231.4132480281141113
  Basis Set: CC-PVTZ
  Basis Set:
  Basis Set: CC-PVTZ
  Basis Set:
  @DF-RHF Final Energy:  -231.75553272492832
    Total Energy =                       -231.7555327249283437
  Basis Set: CC-PVTZ
  Basis Set:
  @DF-RHF Final Energy:  -232.03611945291334
    Total Energy =                       -232.0361194529134252
  @DF-RHF Final Energy:  -232.18516063919500
    Total Energy =                       -232.1851606391950327
  @DF-RHF Final Energy:  -232.21356176998256
    Total Energy =                       -232.2135617699825616
  @DF-RHF Final Energy:  -232.21758865388111
    Total Energy =                       -232.2175886538811937
  Basis Set: CC-PVTZ
  Basis Set:
  @DF-RHF Final Energy:  -232.21840550565943
    Total Energy =                       -232.2184055056595753
  Basis Set: CC-PVTZ
  Basis Set:
  Basis Set: CC-PVTZ
  Basis Set:
  @DF-RHF Final Energy:  -232.21847025850781
    Total Energy =                       -232.2184702585076934
  Basis Set: CC-PVTZ
  Basis Set:
  Basis Set: CC-PVTZ
  Basis Set:
  @DF-RHF Final Energy:  -232.21847420756555
    Total Energy =                       -232.2184742075656345
  Basis Set: CC-PVTZ
  Basis Set:
  Charge       = 0
  Multiplicity = 1
  Basis Set: CC-PVTZ
  Basis Set:

    Orbital Energies (a.u.)
    -----------------------

    Doubly Occupied:

       1A    -20.541004     2A    -11.264297     3A    -11.259997
       4A    -11.220145     5A    -11.215071     6A     -1.370602
       7A     -1.060177     8A     -0.962734     9A     -0.886340
      10A     -0.797033    11A     -0.673845    12A     -0.660917
      13A     -0.627371    14A     -0.607089    15A     -0.557880
      16A     -0.544009    17A     -0.523019    18A     -0.500297
      19A     -0.492198    20A     -0.443841    21A     -0.405673

  @DF-RHF Final Energy:  -232.21847484374598

   => Energetics <=

    Nuclear Repulsion Energy =            192.3195024316493118
    One-Electron Energy =                -695.8488731075357236
    Two-Electron Energy =                 271.3108958321405453
    DFT Exchange-Correlation Energy =       0.0000000000000000
    Empirical Dispersion Energy =           0.0000000000000000
    PCM Polarization Energy =               0.0000000000000000
    EFP Energy =                            0.0000000000000000
    Total Energy =                       -232.2184748437458666
    Molecular point group: c1
  Basis Set: CC-PVTZ
  Basis Set:

  -Total Gradient:
     Atom            X                  Y                   Z
    ------   -----------------  -----------------  -----------------
       1        0.000001372815    -0.000015308956     0.000019408859
       2       -0.001537320237     0.002742603099     0.001880866498
       3        0.001599036570    -0.003959632286    -0.002327882141
       4       -0.000001042934    -0.000012329522    -0.000008685988
       5       -0.000038520296    -0.000000169021    -0.000004418236
       6        0.003370802406     0.000505448355    -0.001911357793
       7       -0.000041050695    -0.000068557501     0.000020996934
       8       -0.003385821241     0.000800619287     0.002360433745
       9        0.000005331841    -0.000039138737    -0.000002188168
      10        0.000026148753     0.000048092976    -0.000010475418
      11        0.000011226893     0.000026120527     0.000005110784
      12       -0.000005495423    -0.000001318357    -0.000022918066
      13       -0.000002656183    -0.000001797364     0.000007178561
      14       -0.000023051040    -0.000004956271     0.000009339092
      15        0.000021038771    -0.000019676228    -0.000015408664

  **** Optimization is complete! (in 12 steps) ****
    Final optimized geometry and variables:
    Molecular point group: c1

    Geometry (in Angstrom), charge = 0, multiplicity = 1:

    H           -1.572104532635     0.599352927027    -2.518458285784
    C           -1.260369963982     0.152696393117    -1.585118771443
    O            0.004360992991     0.657497858081    -1.305840128384
    H           -1.256818688361    -0.927331566493    -1.711381676464
    H           -1.989650238125     0.409489021414    -0.824663285350
    C            0.695771618126     0.245774144236    -0.155883501706
    C           -0.131787756430    -0.358265960512     0.973225189294
    H            1.177250458979     1.133820701082     0.236954963529
    H            1.470194948936    -0.459672067856    -0.447466591665
    C            0.754907593897    -0.703978939438     2.166087152512
    H           -0.895731694183     0.346067876130     1.284987074453
    H           -0.642796977401    -1.253484741571     0.637961206828
    H            1.255723893321     0.176798829217     2.552964977742
    H            0.170093595485    -1.131520648719     2.971317721955
    H            1.517821735592    -1.425040852339     1.892975922857

  Mulliken Charges: (a.u.)
   Center  Symbol    Alpha    Beta     Spin     Total
       1     H     0.44240  0.44240  0.00000  0.11520
       2     C     3.03631  3.03631  0.00000 -0.07262
       3     O     4.18076  4.18076  0.00000 -0.36151
       4     H     0.47225  0.47225  0.00000  0.05551
       5     H     0.46911  0.46911  0.00000  0.06178
       6     C     2.95826  2.95826  0.00000  0.08347
       7     C     3.10451  3.10451  0.00000 -0.20902
       8     H     0.46107  0.46107  0.00000  0.07786
       9     H     0.46802  0.46802  0.00000  0.06397
      10     C     3.15260  3.15260  0.00000 -0.30520
      11     H     0.44999  0.44999  0.00000  0.10001
      12     H     0.45074  0.45074  0.00000  0.09852
      13     H     0.45349  0.45349  0.00000  0.09301
      14     H     0.44632  0.44632  0.00000  0.10735
      15     H     0.45417  0.45417  0.00000  0.09167

   Total alpha = 21.00000, Total beta = 21.00000, Total charge =  0.00000

*** Psi4 exiting successfully. Buy a developer a beer!
