                              Psi4 1.0.54 Driver

  ==> Input File <==

--------------------------------------------------------------------------
set {
	reference rhf
	basis cc-pvtz
}

set_num_threads( 4 )
memory 2 gb

molecule MOL {
0 1

H	 -2.266619	 1.169943	 0.000098
O	 -1.438073	 1.611259	 0.000041
C	 -0.408657	 0.734701	 0.000005
C	 -0.684558	 -0.552654	 0.421911
C	 0.871837	 1.095979	 -0.402394
H	 -1.685110	 -0.792043	 0.724431
C	 0.318027	 -1.498772	 0.447467
C	 1.859555	 0.125078	 -0.366461
C	 1.171295	 2.501247	 -0.862556
H	 0.096429	 -2.496172	 0.776203
C	 1.598860	 -1.164330	 0.052444
H	 2.854456	 0.388466	 -0.674304
H	 0.971165	 3.231716	 -0.083658
H	 2.212065	 2.599792	 -1.135556
H	 0.581757	 2.774531	 -1.733237
H	 2.383778	 -1.895066	 0.069693

	symmetry c1
}
set optking {
	frozen_dihedral = ("
		4 3 2 1
	")
}

ee,wfn = optimize('scf', return_wfn=True)
oeprop( wfn, 'DIPOLE', 'QUADRUPOLE', 'MULLIKEN_CHARGES')
f=open( 'psi4out.xyz', 'w' )
f.write( "16  " )
f.write( str(ee) + "\n" )
f.write( MOL.save_string_xyz() )
f.close()
--------------------------------------------------------------------------

    Molecular point group: c1
  Charge       = 0
  Multiplicity = 1
  Basis Set: CC-PVTZ
  Basis Set:
  @DF-RHF Final Energy:  -344.71754287519184
    Total Energy =                       -344.7175428751919526
    Molecular point group: c1
  Basis Set: CC-PVTZ
  Basis Set:
  Basis Set: CC-PVTZ
  Basis Set:
  @DF-RHF Final Energy:  -344.71965044935769
    Total Energy =                       -344.7196504493572320
  Basis Set: CC-PVTZ
  Basis Set:
  Basis Set: CC-PVTZ
  Basis Set:
  @DF-RHF Final Energy:  -344.71985083498305
    Total Energy =                       -344.7198508349830490
  Basis Set: CC-PVTZ
  Basis Set:
  Basis Set: CC-PVTZ
  Basis Set:
  @DF-RHF Final Energy:  -344.71986842602246
    Total Energy =                       -344.7198684260224013
  Basis Set: CC-PVTZ
  Basis Set:
  Basis Set: CC-PVTZ
  Basis Set:
  @DF-RHF Final Energy:  -344.71987289525993
    Total Energy =                       -344.7198728952598117
  Basis Set: CC-PVTZ
  Basis Set:
  Charge       = 0
  Multiplicity = 1
  Basis Set: CC-PVTZ
  Basis Set:

    Orbital Energies (a.u.)
    -----------------------

    Doubly Occupied:

       1A    -20.581884     2A    -11.290699     3A    -11.229019
       4A    -11.228809     5A    -11.225906     6A    -11.223632
       7A    -11.217286     8A    -11.212972     9A     -1.411669
      10A     -1.152901    11A     -1.047461    12A     -1.006283
      13A     -0.932067    14A     -0.847656    15A     -0.802632
      16A     -0.735489    17A     -0.675304    18A     -0.654025
      19A     -0.611432    20A     -0.599429    21A     -0.579015
      22A     -0.561620    23A     -0.549070    24A     -0.541594
      25A     -0.502329    26A     -0.484253    27A     -0.477090
      28A     -0.333718    29A     -0.309634

  @DF-RHF Final Energy:  -344.71987299090040

   => Energetics <=

    Nuclear Repulsion Energy =            350.9649612296037731
    One-Electron Energy =               -1163.3199025579115187
    Two-Electron Energy =                 467.6350683374076880
    DFT Exchange-Correlation Energy =       0.0000000000000000
    Empirical Dispersion Energy =           0.0000000000000000
    PCM Polarization Energy =               0.0000000000000000
    EFP Energy =                            0.0000000000000000
    Total Energy =                       -344.7198729909000576
    Molecular point group: c1
  Basis Set: CC-PVTZ
  Basis Set:

  -Total Gradient:
     Atom            X                  Y                   Z
    ------   -----------------  -----------------  -----------------
       1        0.000003016242    -0.000035164732    -0.001776563904
       2        0.000192497297     0.000204670425     0.002841972989
       3       -0.000514215512    -0.000492875613    -0.002251092969
       4        0.000324020251     0.000337111266     0.001232850482
       5       -0.000002685246    -0.000020718798    -0.000039092814
       6       -0.000002705524    -0.000002168632    -0.000002373020
       7       -0.000017760895    -0.000009061457    -0.000010851835
       8       -0.000004366189    -0.000004344157    -0.000000561374
       9        0.000010231757     0.000005966388     0.000006259517
      10        0.000005588427     0.000001573763     0.000000111471
      11        0.000015686287     0.000016979463    -0.000002782550
      12       -0.000000315205     0.000005120214     0.000001637176
      13       -0.000001922482    -0.000000563189    -0.000001022786
      14       -0.000002187047    -0.000000192482     0.000000292251
      15       -0.000002046758    -0.000000377133    -0.000001445597
      16       -0.000002835405    -0.000005955330     0.000002662961

  **** Optimization is complete! (in 6 steps) ****
    Final optimized geometry and variables:
    Molecular point group: c1

    Geometry (in Angstrom), charge = 0, multiplicity = 1:

    H           -2.596545163888     0.860438287926     0.080856663417
    O           -1.739787381820     1.246690742070     0.073708685829
    C           -0.780510435063     0.290296998748     0.093755104566
    C           -1.047233682244    -0.994201670218     0.521250619052
    C            0.500774036003     0.664104101571    -0.301304725680
    H           -2.041503867875    -1.254533637885     0.836706901525
    C           -0.037830900813    -1.940211067048     0.545746282617
    C            1.491046290313    -0.298079688457    -0.259602662018
    C            0.775667571477     2.074287863629    -0.753082462215
    H           -0.254636830383    -2.938382400318     0.875052950781
    C            1.236606518794    -1.595062768067     0.155904523783
    H            2.485857343852    -0.028841388292    -0.562307638319
    H            0.556925282843     2.786864476441     0.033185386004
    H            1.813380861633     2.187676353374    -1.036372952910
    H            0.157941062149     2.339362205894    -1.602593007106
    H            2.027285479425    -2.319678651360     0.173909660248

  Mulliken Charges: (a.u.)
   Center  Symbol    Alpha    Beta     Spin     Total
       1     H     0.38823  0.38823  0.00000  0.22354
       2     O     4.17481  4.17481  0.00000 -0.34962
       3     C     2.86603  2.86603  0.00000  0.26794
       4     C     3.13120  3.13120  0.00000 -0.26241
       5     C     2.99607  2.99607  0.00000  0.00787
       6     H     0.43513  0.43513  0.00000  0.12973
       7     C     3.07239  3.07239  0.00000 -0.14478
       8     C     3.08303  3.08303  0.00000 -0.16605
       9     C     3.14276  3.14276  0.00000 -0.28552
      10     H     0.42262  0.42262  0.00000  0.15476
      11     C     3.08989  3.08989  0.00000 -0.17979
      12     H     0.42513  0.42513  0.00000  0.14974
      13     H     0.44618  0.44618  0.00000  0.10765
      14     H     0.45416  0.45416  0.00000  0.09168
      15     H     0.44751  0.44751  0.00000  0.10497
      16     H     0.42486  0.42486  0.00000  0.15028

   Total alpha = 29.00000, Total beta = 29.00000, Total charge = -0.00000

*** Psi4 exiting successfully. Buy a developer a beer!
