                              Psi4 1.0.54 Driver

  ==> Input File <==

--------------------------------------------------------------------------
set {
	reference rhf
	basis cc-pvtz
}

set_num_threads( 4 )
memory 2 gb

molecule MOL {
0 1

H	 -3.436473	 1.252944	 -1.023892
O	 -3.458596	 0.315260	 -0.960865
C	 -3.176635	 -0.080824	 0.355601
C	 -1.763371	 0.265266	 0.799691
H	 -3.321825	 -1.153438	 0.379502
H	 -3.895468	 0.357385	 1.043382
C	 -0.673390	 -0.426948	 -0.013392
H	 -1.631049	 1.344913	 0.747560
H	 -1.664587	 -0.001624	 1.849167
C	 -1.063486	 -0.653173	 -1.471685
H	 -0.430618	 -1.376827	 0.449971
H	 0.232976	 0.172452	 0.028152
C	 0.033663	 -1.341777	 -2.281090
H	 -1.974502	 -1.242941	 -1.505071
H	 -1.301586	 0.302437	 -1.934259
C	 -0.278006	 -1.518364	 -3.768211
H	 0.245944	 -2.314077	 -1.842434
H	 0.948338	 -0.762710	 -2.187970
C	 -1.430230	 -2.473614	 -4.069906
H	 0.615427	 -1.884658	 -4.264581
H	 -0.490977	 -0.547271	 -4.207576
H	 -1.247736	 -3.452197	 -3.637299
H	 -1.551544	 -2.603923	 -5.139272
H	 -2.372444	 -2.109639	 -3.678295

	symmetry c1
}
set optking {
	frozen_dihedral = ("
		11 7 4 3
	")
}

ee,wfn = optimize('scf', return_wfn=True)
oeprop( wfn, 'DIPOLE', 'QUADRUPOLE', 'MULLIKEN_CHARGES')
f=open( 'psi4out.xyz', 'w' )
f.write( "24  " )
f.write( str(ee) + "\n" )
f.write( MOL.save_string_xyz() )
f.close()
--------------------------------------------------------------------------

    Molecular point group: c1
  Charge       = 0
  Multiplicity = 1
  Basis Set: CC-PVTZ
  Basis Set:
  @DF-RHF Final Energy:  -349.36581579235127
    Total Energy =                       -349.3658157923516683
    Molecular point group: c1
  Basis Set: CC-PVTZ
  Basis Set:
  Basis Set: CC-PVTZ
  Basis Set:
  @DF-RHF Final Energy:  -349.37250189145726
    Total Energy =                       -349.3725018914567499
  Basis Set: CC-PVTZ
  Basis Set:
  Basis Set: CC-PVTZ
  Basis Set:
  @DF-RHF Final Energy:  -349.37356321561418
    Total Energy =                       -349.3735632156140127
  Basis Set: CC-PVTZ
  Basis Set:
  Basis Set: CC-PVTZ
  Basis Set:
  @DF-RHF Final Energy:  -349.37376278841913
    Total Energy =                       -349.3737627884190715
  Basis Set: CC-PVTZ
  Basis Set:
  Basis Set: CC-PVTZ
  Basis Set:
  @DF-RHF Final Energy:  -349.37380961454653
    Total Energy =                       -349.3738096145467580
  Basis Set: CC-PVTZ
  Basis Set:
  Basis Set: CC-PVTZ
  Basis Set:
  @DF-RHF Final Energy:  -349.37381509969447
    Total Energy =                       -349.3738150996941840
  Basis Set: CC-PVTZ
  Basis Set:
  Charge       = 0
  Multiplicity = 1
  Basis Set: CC-PVTZ
  Basis Set:

    Orbital Energies (a.u.)
    -----------------------

    Doubly Occupied:

       1A    -20.546442     2A    -11.266387     3A    -11.217028
       4A    -11.211636     5A    -11.207942     6A    -11.205551
       7A    -11.202483     8A    -11.200288     9A     -1.365191
      10A     -1.085141    11A     -1.045284    12A     -0.982976
      13A     -0.913958    14A     -0.858846    15A     -0.793804
      16A     -0.770977    17A     -0.684010    18A     -0.649075
      19A     -0.627272    20A     -0.611295    21A     -0.599874
      22A     -0.582632    23A     -0.552124    24A     -0.540643
      25A     -0.519031    26A     -0.503087    27A     -0.502545
      28A     -0.483589    29A     -0.464876    30A     -0.455540
      31A     -0.449276    32A     -0.435385    33A     -0.421916

  @DF-RHF Final Energy:  -349.37381519619015

   => Energetics <=

    Nuclear Repulsion Energy =            396.2225757882982293
    One-Electron Energy =               -1259.2805780204103030
    Two-Electron Energy =                 513.6841870359221502
    DFT Exchange-Correlation Energy =       0.0000000000000000
    Empirical Dispersion Energy =           0.0000000000000000
    PCM Polarization Energy =               0.0000000000000000
    EFP Energy =                            0.0000000000000000
    Total Energy =                       -349.3738151961899803
    Molecular point group: c1
  Basis Set: CC-PVTZ
  Basis Set:

  -Total Gradient:
     Atom            X                  Y                   Z
    ------   -----------------  -----------------  -----------------
       1        0.000008027651    -0.000057125742     0.000031625045
       2       -0.000052658576    -0.000010416637     0.000005653961
       3       -0.000144849362     0.003155024266    -0.002804719178
       4        0.001141440656    -0.003942720949     0.004709135294
       5        0.000004203730     0.000071447499    -0.000018069702
       6        0.000008623277    -0.000014104183    -0.000055282203
       7       -0.005043722003    -0.001702493243    -0.004539439708
       8       -0.000023049325    -0.000025059543    -0.000000772047
       9        0.000033989509    -0.000003234702     0.000003409036
      10       -0.000036218435    -0.000054303363     0.000043725070
      11        0.004039956651     0.002591317520     0.002612358648
      12        0.000005814050    -0.000014189093    -0.000007213421
      13       -0.000022775594     0.000017133393     0.000034870757
      14        0.000041919132     0.000016588326     0.000039570598
      15        0.000009153072    -0.000001177381     0.000027117398
      16       -0.000005832720     0.000032619420    -0.000014645189
      17       -0.000004613931    -0.000010996268     0.000005216660
      18        0.000034442990    -0.000023947663    -0.000002537142
      19       -0.000004023613    -0.000018563742    -0.000017192705
      20        0.000009653937     0.000009551680    -0.000019265370
      21       -0.000012718433     0.000006951627    -0.000009484934
      22       -0.000002852934    -0.000007518380     0.000004035080
      23        0.000008407474    -0.000006840542     0.000004969631
      24        0.000007682793    -0.000007942301    -0.000033065580

  **** Optimization is complete! (in 7 steps) ****
    Final optimized geometry and variables:
    Molecular point group: c1

    Geometry (in Angstrom), charge = 0, multiplicity = 1:

    H           -2.119706986468     2.213705653200     0.762496585129
    O           -2.170814347854     1.276023535771     0.724316125053
    C           -1.678105847817     0.725968301005     1.916353433137
    C           -0.203719910480     1.019785061058     2.171483382963
    H           -1.852301459560    -0.340489518520     1.847961703714
    H           -2.260756793351     1.088252176810     2.759555455958
    C            0.829209866945     0.277180836542     1.305107191833
    H           -0.066698683831     2.093308917510     2.052470129719
    H            0.007441202051     0.810273646142     3.215447058425
    C            0.472376243859     0.011706159347    -0.155204814169
    H            1.096595478409    -0.653684098127     1.799135064055
    H            1.746045397452     0.861235477262     1.329501783427
    C            1.601146872519    -0.704018679301    -0.895607064204
    H           -0.436614408618    -0.572274940331    -0.212813524566
    H            0.254892282815     0.951295665952    -0.653457451358
    C            1.351115512980    -0.917390588127    -2.389753813202
    H            1.787924605675    -1.666944190131    -0.424633576395
    H            2.516494272182    -0.129401694726    -0.779853999274
    C            0.200241020081    -1.866527433319    -2.715150033188
    H            2.260442611375    -1.306676384174    -2.837950454622
    H            1.168456942400     0.044004054304    -2.862643427857
    H            0.349025752282    -2.833873818761    -2.245525572980
    H            0.126477630252    -2.028193871510    -3.784669355071
    H           -0.752822718295    -1.477805994754    -2.378250789090

  Mulliken Charges: (a.u.)
   Center  Symbol    Alpha    Beta     Spin     Total
       1     H     0.39618  0.39618  0.00000  0.20764
       2     O     4.20280  4.20280  0.00000 -0.40560
       3     C     2.99040  2.99040  0.00000  0.01919
       4     C     3.09737  3.09737  0.00000 -0.19474
       5     H     0.45506  0.45506  0.00000  0.08988
       6     H     0.45463  0.45463  0.00000  0.09074
       7     C     3.10216  3.10216  0.00000 -0.20432
       8     H     0.46060  0.46060  0.00000  0.07879
       9     H     0.44816  0.44816  0.00000  0.10368
      10     C     3.08347  3.08347  0.00000 -0.16694
      11     H     0.45241  0.45241  0.00000  0.09517
      12     H     0.45148  0.45148  0.00000  0.09704
      13     C     3.09625  3.09625  0.00000 -0.19250
      14     H     0.44566  0.44566  0.00000  0.10869
      15     H     0.45431  0.45431  0.00000  0.09138
      16     C     3.08888  3.08888  0.00000 -0.17777
      17     H     0.45582  0.45582  0.00000  0.08836
      18     H     0.45110  0.45110  0.00000  0.09779
      19     C     3.15387  3.15387  0.00000 -0.30774
      20     H     0.44995  0.44995  0.00000  0.10011
      21     H     0.45546  0.45546  0.00000  0.08907
      22     H     0.45619  0.45619  0.00000  0.08763
      23     H     0.44730  0.44730  0.00000  0.10540
      24     H     0.45047  0.45047  0.00000  0.09905

   Total alpha = 33.00000, Total beta = 33.00000, Total charge =  0.00000

*** Psi4 exiting successfully. Buy a developer a beer!
