                              Psi4 1.0.54 Driver

  ==> Input File <==

--------------------------------------------------------------------------
set {
	reference rhf
	basis cc-pvtz
}

set_num_threads( 4 )
memory 2 gb

molecule MOL {
0 1

H	 -2.820316	 -0.074149	 0.862623
O	 -2.346257	 -0.289210	 0.080372
C	 -1.183935	 0.486039	 -0.009831
C	 0.062853	 -0.375310	 0.027457
H	 -1.178881	 1.094526	 -0.908634
H	 -1.184406	 1.155156	 0.838676
O	 1.172093	 0.457955	 -0.054438
H	 0.052476	 -1.081302	 -0.804627
H	 0.076323	 -0.955658	 0.947560
C	 2.395478	 -0.199028	 -0.000366
H	 2.505946	 -0.901710	 -0.823354
H	 3.174616	 0.545641	 -0.071768
H	 2.513730	 -0.742241	 0.934223

	symmetry c1
}
set optking {
	frozen_dihedral = ("
		1 2 3 5
	")
}

ee,wfn = optimize('scf', return_wfn=True)
oeprop( wfn, 'DIPOLE', 'QUADRUPOLE', 'MULLIKEN_CHARGES')
f=open( 'psi4out.xyz', 'w' )
f.write( "13  " )
f.write( str(ee) + "\n" )
f.write( MOL.save_string_xyz() )
f.close()
--------------------------------------------------------------------------

    Molecular point group: c1
  Charge       = 0
  Multiplicity = 1
  Basis Set: CC-PVTZ
  Basis Set:
  @DF-RHF Final Energy:  -268.06019810608950
    Total Energy =                       -268.0601981060896151
    Molecular point group: c1
  Basis Set: CC-PVTZ
  Basis Set:
  Basis Set: CC-PVTZ
  Basis Set:
  @DF-RHF Final Energy:  -268.02402595820325
    Total Energy =                       -268.0240259582031968
  Basis Set: CC-PVTZ
  Basis Set:
  Basis Set: CC-PVTZ
  Basis Set:
  @DF-RHF Final Energy:  -268.06035656792216
    Total Energy =                       -268.0603565679220992
  Basis Set: CC-PVTZ
  Basis Set:
  Basis Set: CC-PVTZ
  Basis Set:
  @DF-RHF Final Energy:  -268.06143907818603
    Total Energy =                       -268.0614390781859129
  Basis Set: CC-PVTZ
  Basis Set:
  Basis Set: CC-PVTZ
  Basis Set:
  @DF-RHF Final Energy:  -268.06146705281634
    Total Energy =                       -268.0614670528163970
  Basis Set: CC-PVTZ
  Basis Set:
  Charge       = 0
  Multiplicity = 1
  Basis Set: CC-PVTZ
  Basis Set:

    Orbital Energies (a.u.)
    -----------------------

    Doubly Occupied:

       1A    -20.553104     2A    -20.551365     3A    -11.267873
       4A    -11.265408     5A    -11.265089     6A     -1.389066
       7A     -1.367527     8A     -1.019263     9A     -0.912429
      10A     -0.835140    11A     -0.715759    12A     -0.679379
      13A     -0.649731    14A     -0.643014    15A     -0.605792
      16A     -0.554309    17A     -0.548126    18A     -0.492344
      19A     -0.479824    20A     -0.441012    21A     -0.421618

  @DF-RHF Final Energy:  -268.06146855036587

   => Energetics <=

    Nuclear Repulsion Energy =            190.4631486547966119
    One-Electron Energy =                -743.7348904222239980
    Two-Electron Energy =                 285.2102732170615127
    DFT Exchange-Correlation Energy =       0.0000000000000000
    Empirical Dispersion Energy =           0.0000000000000000
    PCM Polarization Energy =               0.0000000000000000
    EFP Energy =                            0.0000000000000000
    Total Energy =                       -268.0614685503658166
    Molecular point group: c1
  Basis Set: CC-PVTZ
  Basis Set:

  -Total Gradient:
     Atom            X                  Y                   Z
    ------   -----------------  -----------------  -----------------
       1        0.000003900585    -0.000021558550     0.000001428872
       2       -0.000021713035     0.000058113255     0.000008380705
       3       -0.000026294819    -0.000069787875     0.000035236583
       4       -0.000012860550     0.000025983511    -0.000015946371
       5        0.000040634702    -0.000034016905    -0.000009086378
       6       -0.000002194587    -0.000001607002    -0.000006598263
       7        0.000058751453     0.000041536034     0.000007483914
       8        0.000007509257    -0.000012971680     0.000000540679
       9       -0.000034898945     0.000016773902    -0.000010897120
      10       -0.000003142478    -0.000013220706    -0.000022913084
      11        0.000010702230     0.000002556687     0.000008035910
      12       -0.000015724532    -0.000003083614     0.000004074503
      13       -0.000004669280     0.000011282943     0.000000260049

  **** Optimization is complete! (in 6 steps) ****
    Final optimized geometry and variables:
    Molecular point group: c1

    Geometry (in Angstrom), charge = 0, multiplicity = 1:

    H           -2.757128801536    -0.686955658225     0.817141160439
    O           -2.271887425236    -0.577292886169     0.022751792874
    C           -1.218449327148     0.331934837874     0.207009615977
    C            0.097379930214    -0.355833831834    -0.087377414203
    H           -1.344786727861     1.169437274409    -0.468178131463
    H           -1.201955441255     0.724552110318     1.217493285777
    O            1.117433392981     0.580460309128     0.044441607592
    H            0.072587014093    -0.766254049119    -1.094746801044
    H            0.241207425737    -1.186188270781     0.602112481292
    C            2.389214543312     0.090261397185    -0.224951331899
    H            2.466017526603    -0.275501153192    -1.246224244116
    H            3.091701168543     0.899886092188    -0.091095333492
    H            2.654794090233    -0.719411412750     0.451106395682

  Mulliken Charges: (a.u.)
   Center  Symbol    Alpha    Beta     Spin     Total
       1     H     0.38891  0.38891  0.00000  0.22218
       2     O     4.20677  4.20677  0.00000 -0.41353
       3     C     2.97157  2.97157  0.00000  0.05686
       4     C     2.95850  2.95850  0.00000  0.08300
       5     H     0.46166  0.46166  0.00000  0.07669
       6     H     0.46933  0.46933  0.00000  0.06133
       7     O     4.17656  4.17656  0.00000 -0.35313
       8     H     0.47073  0.47073  0.00000  0.05854
       9     H     0.47695  0.47695  0.00000  0.04610
      10     C     3.03097  3.03097  0.00000 -0.06195
      11     H     0.47007  0.47007  0.00000  0.05986
      12     H     0.44685  0.44685  0.00000  0.10629
      13     H     0.47112  0.47112  0.00000  0.05775

   Total alpha = 21.00000, Total beta = 21.00000, Total charge = -0.00000

*** Psi4 exiting successfully. Buy a developer a beer!
