  ==> Input File <==

--------------------------------------------------------------------------
set {
	reference rhf
	basis 6-31G*
}

set_num_threads( 4 )
memory 2 gb

molecule MOL {
0 1

O	 2.862325	 1.357334	 0.000267
C	 2.843464	 0.164689	 -0.000222
C	 1.546494	 -0.624492	 -0.000609
C	 4.124123	 -0.644674	 -0.000428
C	 0.291004	 0.242674	 0.000989
H	 1.557904	 -1.283758	 -0.867573
H	 1.558622	 -1.285963	 0.864672
C	 -0.248609	 0.495643	 -1.407765
H	 0.512035	 1.187725	 0.486945
H	 -0.471109	 -0.235846	 0.607908
C	 -1.506883	 1.365333	 -1.418557
H	 0.521856	 0.972485	 -2.011961
H	 -0.466640	 -0.456223	 -1.889929
C	 -2.052659	 1.623011	 -2.824169
H	 -1.289897	 2.317413	 -0.937432
H	 -2.278063	 0.889205	 -0.815582
C	 -3.309413	 2.492635	 -2.826737
H	 -1.283062	 2.100017	 -3.427500
H	 -2.271357	 0.672073	 -3.305569
H	 -3.114519	 3.464422	 -2.381994
H	 -3.671848	 2.657966	 -3.836691
H	 -4.110203	 2.025843	 -2.260182
H	 4.165367	 -1.288615	 -0.874074
H	 4.976217	 0.020734	 -0.001915
H	 4.166763	 -1.286207	 0.874930

	symmetry c1
}
set optking {
	frozen_dihedral = ("
		9 5 3 6
	")
}

ee = optimize('scf')
oeprop('DIPOLE', 'QUADRUPOLE', 'MULLIKEN_CHARGES')
f=open( 'psi4out.xyz', 'w' )
f.write( "25  " )
f.write( str(ee) + "\n" )
f.write( MOL.save_string_xyz() )
f.close()
--------------------------------------------------------------------------

    Molecular point group: c1
  Charge       = 0
  Multiplicity = 1
  Basis Set: 6-31G*
  Basis Set:
  @DF-RHF Final Energy:  -387.13395207650478
    Total Energy =                       -387.1339520765051248
    Molecular point group: c1
  Basis Set: 6-31G*
  Basis Set:
  Basis Set: 6-31G*
  Basis Set:
  @DF-RHF Final Energy:  -387.13430789513353
    Total Energy =                       -387.1343078951338157
  Basis Set: 6-31G*
  Basis Set:
  Basis Set: 6-31G*
  Basis Set:
  @DF-RHF Final Energy:  -387.13436346357577
    Total Energy =                       -387.1343634635754825
  Basis Set: 6-31G*
  Basis Set:
  Basis Set: 6-31G*
  Basis Set:
  @DF-RHF Final Energy:  -387.13391350896404
    Total Energy =                       -387.1339135089642696
  Basis Set: 6-31G*
  Basis Set:
  @DF-RHF Final Energy:  -387.13439158394164
    Total Energy =                       -387.1343915839407828
  @DF-RHF Final Energy:  -387.13439619676853
    Total Energy =                       -387.1343961967688756
  @DF-RHF Final Energy:  -387.13439856300499
    Total Energy =                       -387.1343985630045381
  Basis Set: 6-31G*
  Basis Set:
  @DF-RHF Final Energy:  -387.13440027852272
    Total Energy =                       -387.1344002785226621
  Basis Set: 6-31G*
  Basis Set:
  Basis Set: 6-31G*
  Basis Set:
  @DF-RHF Final Energy:  -387.13440172003232
    Total Energy =                       -387.1344017200320877
  Basis Set: 6-31G*
  Basis Set:
  Basis Set: 6-31G*
  Basis Set:
  @DF-RHF Final Energy:  -387.13439994702259
    Total Energy =                       -387.1343999470225299
  Basis Set: 6-31G*
  Basis Set:
  Charge       = 0
  Multiplicity = 1
  Basis Set: 6-31G*
  Basis Set:

    Orbital Energies (a.u.)
    -----------------------

    Doubly Occupied:

       1A    -20.551661     2A    -11.327404     3A    -11.232153
       4A    -11.228930     5A    -11.215704     6A    -11.212013
       7A    -11.211673     8A    -11.209809     9A    -11.205715
      10A     -1.397076    11A     -1.090427    12A     -1.054281
      13A     -1.013706    14A     -0.966792    15A     -0.888728
      16A     -0.814028    17A     -0.787522    18A     -0.728414
      19A     -0.668463    20A     -0.637420    21A     -0.633958
      22A     -0.621600    23A     -0.591216    24A     -0.583929
      25A     -0.574516    26A     -0.556185    27A     -0.532891
      28A     -0.524820    29A     -0.516075    30A     -0.497082
      31A     -0.481543    32A     -0.473423    33A     -0.460399
      34A     -0.458396    35A     -0.440128    36A     -0.401426

  @DF-RHF Final Energy:  -387.13439963257855

   => Energetics <=

    Nuclear Repulsion Energy =            445.8432457549139940
    One-Electron Energy =               -1408.3762785815770258
    Two-Electron Energy =                 575.3986331940845957
    DFT Exchange-Correlation Energy =       0.0000000000000000
    Empirical Dispersion Energy =           0.0000000000000000
    PCM Polarization Energy =               0.0000000000000000
    EFP Energy =                            0.0000000000000000
    Total Energy =                       -387.1343996325783792
    Molecular point group: c1
  Basis Set: 6-31G*
  Basis Set:

  -Total Gradient:
     Atom            X                  Y                   Z
    ------   -----------------  -----------------  -----------------
       1        0.000135660904    -0.000164150239     0.000206718499
       2       -0.000413297096     0.000445730159    -0.000546253607
       3       -0.001353532965    -0.003263604582     0.001517787910
       4        0.000050839757    -0.000117526725    -0.000040472102
       5       -0.000553425102    -0.001005917028     0.003415383927
       6        0.001399654424     0.002664363597    -0.001809721948
       7       -0.000098585751    -0.000036999084     0.000174796601
       8        0.000066001483    -0.000068129061    -0.000257949043
       9        0.000754510325     0.001272808845    -0.002910592782
      10        0.000021332807     0.000247797126    -0.000151377628
      11       -0.000075157709    -0.000103025816     0.000192533728
      12        0.000078157848    -0.000118738914    -0.000027274689
      13       -0.000008371079     0.000107085996     0.000107282643
      14       -0.000062000041    -0.000019965791    -0.000072138170
      15        0.000021372497    -0.000046188491    -0.000004791363
      16       -0.000027063476     0.000041258820     0.000018511800
      17        0.000023365196     0.000041321346    -0.000020800616
      18       -0.000026561212     0.000019794199    -0.000006789992
      19        0.000018656902    -0.000015341086    -0.000001649563
      20       -0.000016129133     0.000024055550     0.000004802481
      21        0.000005409085     0.000000621081     0.000003424761
      22        0.000019478889    -0.000013836288    -0.000003625309
      23       -0.000040776609     0.000103759808     0.000062244208
      24        0.000072647939     0.000035479654     0.000066608509
      25        0.000007812115    -0.000030653077     0.000083341745

  **** Optimization is complete! (in 11 steps) ****
    Final optimized geometry and variables:
    Molecular point group: c1

    Geometry (in Angstrom), charge = 0, multiplicity = 1:

    O            2.324597253888     0.633066557743     0.823491566376
    C            2.327951041663    -0.556147752259     0.914603091463
    C            1.049222040473    -1.378769438108     0.976562731298
    C            3.625595812108    -1.336529472679     0.972149930721
    C           -0.233141066046    -0.539538749486     0.974967821206
    H            1.075665879114    -2.041058194794     0.112627500429
    H            1.108894604240    -2.020072619886     1.852821251434
    C           -0.757947764656    -0.260228239897    -0.436534813341
    H           -0.031363777982     0.409820092129     1.456124353588
    H           -1.001317368469    -1.047032562617     1.550852598052
    C           -2.003758363217     0.626236079825    -0.445288064690
    H            0.027466115777     0.215774328120    -1.018861113807
    H           -0.984566059249    -1.203792810829    -0.931171359267
    C           -2.538652388267     0.904282486840    -1.851449796107
    H           -1.773871464304     1.570680433064     0.044107900082
    H           -2.786058539040     0.156553815300     0.149506635285
    C           -3.780931021537     1.794473977250    -1.853069925565
    H           -1.758134383618     1.373965995257    -2.445985169956
    H           -2.770296143000    -0.038915964457    -2.342166647321
    H           -3.572129404704     2.759316907779    -1.399636800537
    H           -4.135647657815     1.973931108314    -2.863389737072
    H           -4.592288917327     1.336385598256    -1.294235844575
    H            3.668047497144    -2.065240981166     0.168269462804
    H            4.463563691278    -0.658181929179     0.890963608038
    H            3.693550539513    -1.884231992524     1.907775267477

  Mulliken Charges: (a.u.)
   Center  Symbol    Alpha    Beta     Spin     Total
       1     O     4.26158  4.26158  0.00000 -0.52317
       2     C     2.73790  2.73790  0.00000  0.52421
       3     C     3.21210  3.21210  0.00000 -0.42421
       4     C     3.28683  3.28683  0.00000 -0.57365
       5     C     3.15364  3.15364  0.00000 -0.30728
       6     H     0.40842  0.40842  0.00000  0.18315
       7     H     0.40708  0.40708  0.00000  0.18583
       8     C     3.15568  3.15568  0.00000 -0.31136
       9     H     0.40218  0.40218  0.00000  0.19564
      10     H     0.42069  0.42069  0.00000  0.15861
      11     C     3.15175  3.15175  0.00000 -0.30350
      12     H     0.41503  0.41503  0.00000  0.16995
      13     H     0.42722  0.42722  0.00000  0.14556
      14     C     3.15152  3.15152  0.00000 -0.30305
      15     H     0.42018  0.42018  0.00000  0.15964
      16     H     0.42567  0.42567  0.00000  0.14866
      17     C     3.23929  3.23929  0.00000 -0.47858
      18     H     0.42179  0.42179  0.00000  0.15643
      19     H     0.42449  0.42449  0.00000  0.15102
      20     H     0.42102  0.42102  0.00000  0.15796
      21     H     0.41987  0.41987  0.00000  0.16026
      22     H     0.42255  0.42255  0.00000  0.15490
      23     H     0.40880  0.40880  0.00000  0.18241
      24     H     0.39640  0.39640  0.00000  0.20719
      25     H     0.40831  0.40831  0.00000  0.18338

   Total alpha = 36.00000, Total beta = 36.00000, Total charge =  0.00000
