                              Psi4 1.0.54 Driver

  ==> Input File <==

--------------------------------------------------------------------------
set {
	reference rhf
	basis cc-pvtz
}

set_num_threads( 4 )
memory 2 gb

molecule MOL {
0 1

H	 -3.937044	 -1.231643	 -0.923610
C	 -2.871662	 -1.106095	 -0.960699
C	 -2.250501	 -0.833805	 -2.166377
C	 -2.124395	 -1.216994	 0.196572
H	 -2.831164	 -0.747866	 -3.064232
C	 -0.881445	 -0.672605	 -2.213239
H	 -2.607062	 -1.428179	 1.131081
C	 -0.753455	 -1.055846	 0.151274
H	 -0.384349	 -0.461428	 -3.138095
C	 -0.127897	 -0.782988	 -1.054851
H	 -0.171817	 -1.141096	 1.045678
C	 1.348186	 -0.600280	 -1.158368
O	 1.968286	 -0.725612	 -0.000027
O	 1.914103	 -0.366276	 -2.173336
C	 3.373556	 -0.568203	 0.000011
H	 3.695416	 -0.031588	 -0.879663
H	 3.782700	 -1.565294	 -0.000152
H	 3.695405	 -0.031851	 0.879862

	symmetry c1
}
set optking {
	frozen_dihedral = ("
		12 13 15 16
	")
}

ee,wfn = optimize('scf', return_wfn=True)
oeprop( wfn, 'DIPOLE', 'QUADRUPOLE', 'MULLIKEN_CHARGES')
f=open( 'psi4out.xyz', 'w' )
f.write( "18  " )
f.write( str(ee) + "\n" )
f.write( MOL.save_string_xyz() )
f.close()
--------------------------------------------------------------------------

    Molecular point group: c1
  Charge       = 0
  Multiplicity = 1
  Basis Set: CC-PVTZ
  Basis Set:
  @DF-RHF Final Energy:  -457.50735103048311
    Total Energy =                       -457.5073510304829369
    Molecular point group: c1
  Basis Set: CC-PVTZ
  Basis Set:
  Basis Set: CC-PVTZ
  Basis Set:
  @DF-RHF Final Energy:  -457.50804645449233
    Total Energy =                       -457.5080464544925007
  Basis Set: CC-PVTZ
  Basis Set:
  Basis Set: CC-PVTZ
  Basis Set:
  @DF-RHF Final Energy:  -457.50825608751171
    Total Energy =                       -457.5082560875116542
  Basis Set: CC-PVTZ
  Basis Set:
  Basis Set: CC-PVTZ
  Basis Set:
  @DF-RHF Final Energy:  -457.50845067371091
    Total Energy =                       -457.5084506737109677
  Basis Set: CC-PVTZ
  Basis Set:
  Basis Set: CC-PVTZ
  Basis Set:
  @DF-RHF Final Energy:  -457.50857289906889
    Total Energy =                       -457.5085728990686675
  Basis Set: CC-PVTZ
  Basis Set:
  Basis Set: CC-PVTZ
  Basis Set:
  @DF-RHF Final Energy:  -457.50857321306995
    Total Energy =                       -457.5085732130698943
  Basis Set: CC-PVTZ
  Basis Set:
  Charge       = 0
  Multiplicity = 1
  Basis Set: CC-PVTZ
  Basis Set:

    Orbital Energies (a.u.)
    -----------------------

    Doubly Occupied:

       1A    -20.600187     2A    -20.533843     3A    -11.372915
       4A    -11.280224     5A    -11.244621     6A    -11.243236
       7A    -11.242326     8A    -11.239698     9A    -11.235757
      10A    -11.234993    11A     -1.475044    12A     -1.369023
      13A     -1.170431    14A     -1.051624    15A     -1.028741
      16A     -0.981437    17A     -0.862849    18A     -0.838123
      19A     -0.780670    20A     -0.745105    21A     -0.688320
      22A     -0.679685    23A     -0.676160    24A     -0.634269
      25A     -0.629814    26A     -0.601000    27A     -0.587957
      28A     -0.569514    29A     -0.527706    30A     -0.520117
      31A     -0.509891    32A     -0.501676    33A     -0.461238
      34A     -0.449618    35A     -0.350028    36A     -0.345939

  @DF-RHF Final Energy:  -457.50857508788494

   => Energetics <=

    Nuclear Repulsion Energy =            493.7037425648824751
    One-Electron Energy =               -1601.8970765522958573
    Two-Electron Energy =                 650.6847588995281058
    DFT Exchange-Correlation Energy =       0.0000000000000000
    Empirical Dispersion Energy =           0.0000000000000000
    PCM Polarization Energy =               0.0000000000000000
    EFP Energy =                            0.0000000000000000
    Total Energy =                       -457.5085750878852195
    Molecular point group: c1
  Basis Set: CC-PVTZ
  Basis Set:

  -Total Gradient:
     Atom            X                  Y                   Z
    ------   -----------------  -----------------  -----------------
       1        0.000005367391    -0.000000371960     0.000001339186
       2        0.000004579814     0.000000028686    -0.000000547982
       3        0.000010096626     0.000004122958     0.000000617483
       4        0.000015598235     0.000003413696     0.000000292560
       5        0.000007453282     0.000001633460     0.000000393328
       6        0.000014929497    -0.000003371061    -0.000001433643
       7        0.000005228730     0.000000515521     0.000001463622
       8        0.000008182933    -0.000005163801    -0.000009582966
       9        0.000001177887     0.000001501261    -0.000006947208
      10        0.000017562830     0.000006264953     0.000010297617
      11        0.000006970272     0.000001271208     0.000009360284
      12       -0.000075822889     0.001156134681     0.000217882672
      13        0.000218117999    -0.002003637563    -0.000455219283
      14       -0.000054589975     0.000002093985    -0.000024383700
      15       -0.000329000929     0.001977758367     0.000944398238
      16        0.000157357661    -0.001151510300    -0.000693102260
      17       -0.000010391378    -0.000004597824    -0.000000982606
      18       -0.000002817981     0.000013913733     0.000006154654

  **** Optimization is complete! (in 7 steps) ****
    Final optimized geometry and variables:
    Molecular point group: c1

    Geometry (in Angstrom), charge = 0, multiplicity = 1:

    H           -4.024424170461    -0.435086144173     0.035809836120
    C           -2.958866951601    -0.314240620330    -0.011464126447
    C           -2.347889702268    -0.045555570681    -1.223215363290
    C           -2.200949599415    -0.427695965463     1.138537889765
    H           -2.936583076260     0.042293983111    -2.115706805361
    C           -0.978655083914     0.109412914064    -1.283198505265
    H           -2.675340073518    -0.636200164908     2.077917857357
    C           -0.829675757805    -0.272604665831     1.080083312021
    H           -0.489703780439     0.317519876474    -2.213085776684
    C           -0.214352678165    -0.003203041629    -0.131958318403
    H           -0.240245904074    -0.360125375403     1.969103779967
    C            1.262307788649     0.173798167624    -0.251440435128
    O            1.886951449303     0.040331823680     0.904115896406
    O            1.812437328782     0.407102142302    -1.274786067981
    C            3.290810382388     0.211449415148     0.951303877609
    H            3.640185609412     0.766161338914     0.097799629761
    H            3.764615612069    -0.760328041210     0.964565053351
    H            3.513031573564     0.735354319062     1.867651385372

  Mulliken Charges: (a.u.)
   Center  Symbol    Alpha    Beta     Spin     Total
       1     H     0.42034  0.42034  0.00000  0.15933
       2     C     3.06975  3.06975  0.00000 -0.13950
       3     C     3.07554  3.07554  0.00000 -0.15109
       4     C     3.07487  3.07487  0.00000 -0.14974
       5     H     0.42047  0.42047  0.00000  0.15907
       6     C     3.07592  3.07592  0.00000 -0.15185
       7     H     0.42196  0.42196  0.00000  0.15607
       8     C     3.08194  3.08194  0.00000 -0.16389
       9     H     0.40642  0.40642  0.00000  0.18717
      10     C     3.01781  3.01781  0.00000 -0.03561
      11     H     0.41121  0.41121  0.00000  0.17759
      12     C     2.77567  2.77567  0.00000  0.44867
      13     O     4.14980  4.14980  0.00000 -0.29960
      14     O     4.21154  4.21154  0.00000 -0.42308
      15     C     3.04077  3.04077  0.00000 -0.08154
      16     H     0.44196  0.44196  0.00000  0.11609
      17     H     0.45498  0.45498  0.00000  0.09003
      18     H     0.44906  0.44906  0.00000  0.10189

   Total alpha = 36.00000, Total beta = 36.00000, Total charge = -0.00000

*** Psi4 exiting successfully. Buy a developer a beer!
