                              Psi4 1.0.54 Driver

  ==> Input File <==

--------------------------------------------------------------------------
set {
	reference rhf
	basis cc-pvtz
}

set_num_threads( 4 )
memory 2 gb

molecule MOL {
0 1

H	 -3.034039	 -0.667848	 0.004703
O	 -2.240597	 -1.171748	 0.000934
C	 -1.159675	 -0.364500	 0.000370
C	 -0.912780	 0.542632	 1.010602
C	 -0.285340	 -0.475181	 -1.069837
H	 -1.590279	 0.631484	 1.840156
C	 0.217534	 1.338411	 0.937447
H	 -0.507464	 -1.188595	 -1.839665
C	 0.842553	 0.317482	 -1.139987
H	 0.411432	 2.047467	 1.720016
C	 1.089546	 1.233823	 -0.122489
C	 1.805918	 0.180497	 -2.291858
H	 1.960167	 1.860449	 -0.165132
H	 2.123637	 1.151711	 -2.650496
H	 1.358865	 -0.355600	 -3.117987
H	 2.693924	 -0.361500	 -1.984729

	symmetry c1
}
set optking {
	frozen_dihedral = ("
		5 3 2 1
	")
}

ee,wfn = optimize('scf', return_wfn=True)
oeprop( wfn, 'DIPOLE', 'QUADRUPOLE', 'MULLIKEN_CHARGES')
f=open( 'psi4out.xyz', 'w' )
f.write( "16  " )
f.write( str(ee) + "\n" )
f.write( MOL.save_string_xyz() )
f.close()
--------------------------------------------------------------------------

    Molecular point group: c1
  Charge       = 0
  Multiplicity = 1
  Basis Set: CC-PVTZ
  Basis Set:
  @DF-RHF Final Energy:  -344.71685144612479
    Total Energy =                       -344.7168514461245650
    Molecular point group: c1
  Basis Set: CC-PVTZ
  Basis Set:
  Basis Set: CC-PVTZ
  Basis Set:
  @DF-RHF Final Energy:  -344.71718509882839
    Total Energy =                       -344.7171850988286792
  Basis Set: CC-PVTZ
  Basis Set:
  Basis Set: CC-PVTZ
  Basis Set:
  @DF-RHF Final Energy:  -344.71722188356006
    Total Energy =                       -344.7172218835598869
  Basis Set: CC-PVTZ
  Basis Set:
  Basis Set: CC-PVTZ
  Basis Set:
  @DF-RHF Final Energy:  -344.71722611194718
    Total Energy =                       -344.7172261119474115
  Basis Set: CC-PVTZ
  Basis Set:
  @DF-RHF Final Energy:  -344.71722776413276
    Total Energy =                       -344.7172277641327582
  @DF-RHF Final Energy:  -344.71722971670641
    Total Energy =                       -344.7172297167061288
  @DF-RHF Final Energy:  -344.71723242665200
    Total Energy =                       -344.7172324266517762
  @DF-RHF Final Energy:  -344.71721484593286
    Total Energy =                       -344.7172148459328582
  @DF-RHF Final Energy:  -344.71724184978387
    Total Energy =                       -344.7172418497839317
  @DF-RHF Final Energy:  -344.71618962850823
    Total Energy =                       -344.7161896285081184
  @DF-RHF Final Energy:  -344.71725231352218
    Total Energy =                       -344.7172523135220672
  @DF-RHF Final Energy:  -344.71726134743648
    Total Energy =                       -344.7172613474361356
  Basis Set: CC-PVTZ
  Basis Set:
  @DF-RHF Final Energy:  -344.71726093232132
    Total Energy =                       -344.7172609323217785
  Basis Set: CC-PVTZ
  Basis Set:
  Basis Set: CC-PVTZ
  Basis Set:
  @DF-RHF Final Energy:  -344.71726538698169
    Total Energy =                       -344.7172653869818078
  Basis Set: CC-PVTZ
  Basis Set:
  Basis Set: CC-PVTZ
  Basis Set:
  @DF-RHF Final Energy:  -344.71726590206185
    Total Energy =                       -344.7172659020619676
  Basis Set: CC-PVTZ
  Basis Set:
  Charge       = 0
  Multiplicity = 1
  Basis Set: CC-PVTZ
  Basis Set:

    Orbital Energies (a.u.)
    -----------------------

    Doubly Occupied:

       1A    -20.572074     2A    -11.288583     3A    -11.240194
       4A    -11.231635     5A    -11.220347     6A    -11.220003
       7A    -11.217811     8A    -11.216557     9A     -1.399755
      10A     -1.154804    11A     -1.046661    12A     -1.007881
      13A     -0.938781    14A     -0.828806    15A     -0.816786
      16A     -0.718947    17A     -0.680945    18A     -0.659710
      19A     -0.621317    20A     -0.593783    21A     -0.576970
      22A     -0.571000    23A     -0.553885    24A     -0.517445
      25A     -0.507666    26A     -0.485289    27A     -0.468663
      28A     -0.332529    29A     -0.320873

  @DF-RHF Final Energy:  -344.71726631746338

   => Energetics <=

    Nuclear Repulsion Energy =            345.9649288265721339
    One-Electron Energy =               -1153.3449880548014335
    Two-Electron Energy =                 462.6627929107660862
    DFT Exchange-Correlation Energy =       0.0000000000000000
    Empirical Dispersion Energy =           0.0000000000000000
    PCM Polarization Energy =               0.0000000000000000
    EFP Energy =                            0.0000000000000000
    Total Energy =                       -344.7172663174632703
    Molecular point group: c1
  Basis Set: CC-PVTZ
  Basis Set:

  -Total Gradient:
     Atom            X                  Y                   Z
    ------   -----------------  -----------------  -----------------
       1       -0.000079036578    -0.000108574938    -0.002250214637
       2       -0.000295444626     0.000558415142     0.002448797377
       3        0.001165412016    -0.001338427797     0.000547090602
       4        0.000047389153    -0.000097087591     0.000049525662
       5       -0.000841554046     0.000980513025    -0.000794321322
       6        0.000001524558     0.000001792460     0.000000603661
       7        0.000025658582     0.000001066078    -0.000010792821
       8       -0.000001565744     0.000002145391     0.000002157766
       9       -0.000017837619    -0.000001487369    -0.000017612668
      10       -0.000002263603    -0.000000593734     0.000000947697
      11       -0.000005472184     0.000008331360     0.000025213394
      12        0.000008567471     0.000002575748    -0.000006649602
      13       -0.000000936047    -0.000000667012    -0.000003776273
      14       -0.000006902637    -0.000009524468     0.000002517733
      15        0.000004913084    -0.000001497388     0.000006794187
      16       -0.000002451778     0.000003021093    -0.000000280752

  **** Optimization is complete! (in 16 steps) ****
    Final optimized geometry and variables:
    Molecular point group: c1

    Geometry (in Angstrom), charge = 0, multiplicity = 1:

    H           -2.872019758767    -0.952550589057     0.455321432103
    O           -2.057656375186    -1.423270529584     0.450170978684
    C           -1.005695416460    -0.558632595102     0.372930595100
    C           -0.787149130401     0.384673395767     1.361005346471
    C           -0.147312704892    -0.657093034563    -0.701348617853
    H           -1.454888548170     0.445073180118     2.199117916433
    C            0.299364423128     1.227141267461     1.253394399928
    H           -0.347524141047    -1.398118374242    -1.451683743988
    C            0.955185462613     0.179112286887    -0.805484058678
    H            0.475366769817     1.964451796456     2.013636434915
    C            1.167126772569     1.127451007523     0.180944830638
    C            1.903596298411     0.039628661676    -1.969638182924
    H            2.009951164422     1.788941260550     0.114939384416
    H            2.543391124660     0.907092416562    -2.060389055826
    H            1.364147693724    -0.080942430217    -2.900998819126
    H            2.538911484151    -0.830652376285    -1.844850411732

  Mulliken Charges: (a.u.)
   Center  Symbol    Alpha    Beta     Spin     Total
       1     H     0.38660  0.38660  0.00000  0.22681
       2     O     4.18917  4.18917  0.00000 -0.37834
       3     C     2.85625  2.85625  0.00000  0.28749
       4     C     3.13316  3.13316  0.00000 -0.26632
       5     C     3.13413  3.13413  0.00000 -0.26827
       6     H     0.42181  0.42181  0.00000  0.15639
       7     C     3.05890  3.05890  0.00000 -0.11781
       8     H     0.42009  0.42009  0.00000  0.15983
       9     C     2.94309  2.94309  0.00000  0.11381
      10     H     0.42265  0.42265  0.00000  0.15469
      11     C     3.11546  3.11546  0.00000 -0.23092
      12     C     3.14645  3.14645  0.00000 -0.29290
      13     H     0.42642  0.42642  0.00000  0.14715
      14     H     0.45067  0.45067  0.00000  0.09866
      15     H     0.44861  0.44861  0.00000  0.10277
      16     H     0.44652  0.44652  0.00000  0.10695

   Total alpha = 29.00000, Total beta = 29.00000, Total charge = -0.00000

*** Psi4 exiting successfully. Buy a developer a beer!
