  ==> Input File <==

--------------------------------------------------------------------------
set {
	reference rhf
	basis cc-pvtz
}

set_num_threads( 4 )
memory 2 gb

molecule MOL {
0 1

H	 2.547388	 0.257503	 1.930666
O	 1.852582	 0.797901	 1.603146
C	 1.135873	 0.113391	 0.608264
C	 0.027642	 1.012027	 0.090274
H	 0.695979	 -0.793552	 1.015343
H	 1.798196	 -0.182208	 -0.200693
C	 -1.138737	 0.285728	 -0.581921
H	 0.464661	 1.708096	 -0.618252
H	 -0.340737	 1.603071	 0.925246
C	 -1.933983	 -0.631436	 0.343653
H	 -0.763151	 -0.285569	 -1.422081
H	 -1.808359	 1.035291	 -0.992333
H	 -2.789188	 -1.049673	 -0.174718
H	 -1.335629	 -1.461368	 0.700418
H	 -2.305435	 -0.092167	 1.209725

	symmetry c1
}
set optking {
	frozen_dihedral = ("
		2 3 4 8
	")
}

ee = optimize('scf')
oeprop('DIPOLE', 'QUADRUPOLE', 'MULLIKEN_CHARGES')
f=open( 'psi4out.xyz', 'w' )
f.write( "15  " )
f.write( str(ee) + "\n" )
f.write( MOL.save_string_xyz() )
f.close()
--------------------------------------------------------------------------

    Molecular point group: c1
  Charge       = 0
  Multiplicity = 1
  Basis Set: CC-PVTZ
  Basis Set:
  @DF-RHF Final Energy:  -232.23483032249203
    Total Energy =                       -232.2348303224920869
    Molecular point group: c1
  Basis Set: CC-PVTZ
  Basis Set:
  Basis Set: CC-PVTZ
  Basis Set:
  @DF-RHF Final Energy:  -232.23527905075562
    Total Energy =                       -232.2352790507554801
  Basis Set: CC-PVTZ
  Basis Set:
  Basis Set: CC-PVTZ
  Basis Set:
  @DF-RHF Final Energy:  -232.23553390753005
    Total Energy =                       -232.2355339075302254
  Basis Set: CC-PVTZ
  Basis Set:
  Basis Set: CC-PVTZ
  Basis Set:
  @DF-RHF Final Energy:  -232.23555566810927
    Total Energy =                       -232.2355556681093844
  Basis Set: CC-PVTZ
  Basis Set:
  Basis Set: CC-PVTZ
  Basis Set:
  @DF-RHF Final Energy:  -232.23555801766622
    Total Energy =                       -232.2355580176661078
  Basis Set: CC-PVTZ
  Basis Set:
  Charge       = 0
  Multiplicity = 1
  Basis Set: CC-PVTZ
  Basis Set:

    Orbital Energies (a.u.)
    -----------------------

    Doubly Occupied:

       1A    -20.545390     2A    -11.264976     3A    -11.216383
       4A    -11.209790     5A    -11.207405     6A     -1.362900
       7A     -1.069985     8A     -0.971641     9A     -0.868096
      10A     -0.786511    11A     -0.698014    12A     -0.653312
      13A     -0.620368    14A     -0.577742    15A     -0.557494
      16A     -0.544288    17A     -0.504186    18A     -0.476420
      19A     -0.472813    20A     -0.458482    21A     -0.434011

  @DF-RHF Final Energy:  -232.23555887519893

   => Energetics <=

    Nuclear Repulsion Energy =            188.3901084637225836
    One-Electron Energy =                -688.2509162548633412
    Two-Electron Energy =                 267.6252489159419383
    DFT Exchange-Correlation Energy =       0.0000000000000000
    Empirical Dispersion Energy =           0.0000000000000000
    PCM Polarization Energy =               0.0000000000000000
    EFP Energy =                            0.0000000000000000
    Total Energy =                       -232.2355588751988194
    Molecular point group: c1
  Basis Set: CC-PVTZ
  Basis Set:

  -Total Gradient:
     Atom            X                  Y                   Z
    ------   -----------------  -----------------  -----------------
       1       -0.000007658852    -0.000000511707    -0.000006500305
       2       -0.001645344790    -0.001217390217     0.001971441585
       3        0.002005217897     0.001086813156    -0.003179660007
       4        0.000321341136     0.002331211298     0.004077473504
       5       -0.000009344734    -0.000003471003    -0.000002121986
       6       -0.000012258767     0.000004379999     0.000001258119
       7       -0.000029975261     0.000006933141     0.000001493990
       8       -0.000637971137    -0.002191507695    -0.002867458575
       9        0.000002354777    -0.000004507372    -0.000003272070
      10        0.000007019831    -0.000016683915    -0.000003988193
      11        0.000001617047     0.000005502450     0.000014837711
      12        0.000002539799     0.000007844197    -0.000015574401
      13        0.000002366180     0.000004264135     0.000005703471
      14       -0.000002482150    -0.000010431955     0.000010927759
      15        0.000002579028    -0.000002444515    -0.000004560601

  **** Optimization is complete! (in 6 steps) ****
    Final optimized geometry and variables:
    Molecular point group: c1

    Geometry (in Angstrom), charge = 0, multiplicity = 1:

    H            2.596914288338    -0.040540406327     1.375775963114
    O            1.837799993961     0.461336422385     1.143064241641
    C            1.126504761656    -0.185698210382     0.119855395291
    C           -0.031311091813     0.704893060824    -0.304635261316
    H            0.756629090911    -1.141741173386     0.478868594852
    H            1.770886332250    -0.385959527445    -0.732682565855
    C           -1.150687601835    -0.049388386931    -1.028836643549
    H            0.349420414129     1.470255821785    -0.971958174932
    H           -0.423651717617     1.201894130948     0.575035874894
    C           -2.036671801959    -0.896873719822    -0.118420378112
    H           -0.721293589286    -0.677279508537    -1.806123523563
    H           -1.775704440473     0.673521213995    -1.542368650596
    H           -2.816806281872    -1.387929170535    -0.688904604334
    H           -1.476578743044    -1.668182422265     0.396643352515
    H           -2.515975944031    -0.280766107753     0.634789739826

  Mulliken Charges: (a.u.)
   Center  Symbol    Alpha    Beta     Spin     Total
       1     H     0.39615  0.39615  0.00000  0.20771
       2     O     4.19643  4.19643  0.00000 -0.39286
       3     C     2.96190  2.96190  0.00000  0.07621
       4     C     3.08971  3.08971  0.00000 -0.17941
       5     H     0.47600  0.47600  0.00000  0.04800
       6     H     0.47251  0.47251  0.00000  0.05499
       7     C     3.09900  3.09900  0.00000 -0.19801
       8     H     0.45025  0.45025  0.00000  0.09950
       9     H     0.44936  0.44936  0.00000  0.10129
      10     C     3.14745  3.14745  0.00000 -0.29490
      11     H     0.45633  0.45633  0.00000  0.08735
      12     H     0.44741  0.44741  0.00000  0.10519
      13     H     0.44801  0.44801  0.00000  0.10397
      14     H     0.45608  0.45608  0.00000  0.08785
      15     H     0.45343  0.45343  0.00000  0.09313

   Total alpha = 21.00000, Total beta = 21.00000, Total charge = -0.00000
