  ==> Input File <==

--------------------------------------------------------------------------
set {
	reference rhf
	basis 6-31G*
}

set_num_threads( 4 )
memory 2 gb

molecule MOL {
0 1

H	 -0.615961	 1.489150	 -2.356586
C	 0.040664	 1.801935	 -1.535176
C	 0.065331	 0.871482	 -0.349150
O	 0.669611	 2.806147	 -1.622935
C	 -1.339775	 0.583656	 0.198860
H	 0.706524	 1.303057	 0.410803
H	 0.519148	 -0.061350	 -0.680866
C	 -1.808407	 -0.848507	 -0.061364
H	 -2.036183	 1.280685	 -0.256307
H	 -1.360094	 0.788874	 1.267089
H	 -1.828843	 -1.063152	 -1.125336
H	 -2.808409	 -1.004529	 0.329750
H	 -1.153967	 -1.577789	 0.406873

	symmetry c1
}
set optking {
	frozen_dihedral = ("
		6 3 5 9
	")
}

ee = optimize('scf')
oeprop('DIPOLE', 'QUADRUPOLE', 'MULLIKEN_CHARGES')
f=open( 'psi4out.xyz', 'w' )
f.write( "13  " )
f.write( str(ee) + "\n" )
f.write( MOL.save_string_xyz() )
f.close()
--------------------------------------------------------------------------

    Molecular point group: c1
  Charge       = 0
  Multiplicity = 1
  Basis Set: 6-31G*
  Basis Set:
  @DF-RHF Final Energy:  -230.97984301546782
    Total Energy =                       -230.9798430154678215
    Molecular point group: c1
  Basis Set: 6-31G*
  Basis Set:
  Basis Set: 6-31G*
  Basis Set:
  @DF-RHF Final Energy:  -230.97959694735826
    Total Energy =                       -230.9795969473582318
  Basis Set: 6-31G*
  Basis Set:
  Basis Set: 6-31G*
  Basis Set:
  @DF-RHF Final Energy:  -230.97654752167449
    Total Energy =                       -230.9765475216745472
  Basis Set: 6-31G*
  Basis Set:
  Basis Set: 6-31G*
  Basis Set:
  @DF-RHF Final Energy:  -230.98020778806526
    Total Energy =                       -230.9802077880650870
  Basis Set: 6-31G*
  Basis Set:
  @DF-RHF Final Energy:  -230.98024155581061
    Total Energy =                       -230.9802415558104940
  Basis Set: 6-31G*
  Basis Set:
  @DF-RHF Final Energy:  -230.98024745661129
    Total Energy =                       -230.9802474566112380
  Basis Set: 6-31G*
  Basis Set:
  Basis Set: 6-31G*
  Basis Set:
  @DF-RHF Final Energy:  -230.98025153686754
    Total Energy =                       -230.9802515368673141
  Basis Set: 6-31G*
  Basis Set:
  Basis Set: 6-31G*
  Basis Set:
  @DF-RHF Final Energy:  -230.98025366247211
    Total Energy =                       -230.9802536624723359
  Basis Set: 6-31G*
  Basis Set:
  Charge       = 0
  Multiplicity = 1
  Basis Set: 6-31G*
  Basis Set:

    Orbital Energies (a.u.)
    -----------------------

    Doubly Occupied:

       1A    -20.562577     2A    -11.327711     3A    -11.239119
       4A    -11.235796     5A    -11.225208     6A     -1.402985
       7A     -1.085154     8A     -0.975768     9A     -0.845102
      10A     -0.793679    11A     -0.672224    12A     -0.648875
      13A     -0.611141    14A     -0.590030    15A     -0.583342
      16A     -0.525462    17A     -0.506366    18A     -0.491158
      19A     -0.484696    20A     -0.410935

  @DF-RHF Final Energy:  -230.98025397192183

   => Energetics <=

    Nuclear Repulsion Energy =            170.7701814586719422
    One-Electron Energy =                -651.0662127228813461
    Two-Electron Energy =                 249.3157772922877200
    DFT Exchange-Correlation Energy =       0.0000000000000000
    Empirical Dispersion Energy =           0.0000000000000000
    PCM Polarization Energy =               0.0000000000000000
    EFP Energy =                            0.0000000000000000
    Total Energy =                       -230.9802539719217123
    Molecular point group: c1
  Basis Set: 6-31G*
  Basis Set:

  -Total Gradient:
     Atom            X                  Y                   Z
    ------   -----------------  -----------------  -----------------
       1        0.000013688041    -0.000012788265    -0.000010011555
       2        0.000003842714     0.000001716933     0.000001415472
       3       -0.000604360901     0.001459192681    -0.000749424015
       4       -0.000016514068     0.000011228317     0.000009819648
       5        0.000369296992     0.000794091410     0.001415505771
       6        0.000447199717    -0.001326767859     0.000390330082
       7       -0.000013447826    -0.000009381425    -0.000004808812
       8        0.000004500645    -0.000001413212     0.000008524302
       9       -0.000208835874    -0.000911961840    -0.001058452518
      10        0.000004000638    -0.000005476763    -0.000004808438
      11        0.000004368648     0.000004783626     0.000002501518
      12       -0.000002049867     0.000000990871    -0.000003769996
      13       -0.000001688859    -0.000004214477     0.000003178542

  **** Optimization is complete! (in 9 steps) ****
    Final optimized geometry and variables:
    Molecular point group: c1

    Geometry (in Angstrom), charge = 0, multiplicity = 1:

    H           -0.236889067147     0.531638059882    -1.614443976948
    C            0.505962054547     0.778359847987    -0.845841845631
    C            0.521253069757    -0.140035772689     0.349595360686
    O            1.229230357739     1.709259201046    -0.991592212806
    C           -0.894738199107    -0.446605279976     0.890623534410
    H            1.162844168678     0.298171238040     1.103803681569
    H            1.000909995507    -1.064374662893     0.030504457956
    C           -1.350343727669    -1.882036299516     0.625581374116
    H           -1.616298867255     0.233546516470     0.443323899776
    H           -0.919428301198    -0.250909021412     1.956632046642
    H           -1.363064209792    -2.101329208062    -0.438544570114
    H           -2.350909458741    -2.051403247942     1.009900864836
    H           -0.685010691259    -2.596202630030     1.101641380170

  Mulliken Charges: (a.u.)
   Center  Symbol    Alpha    Beta     Spin     Total
       1     H     0.43191  0.43191  0.00000  0.13618
       2     C     2.83120  2.83120  0.00000  0.33759
       3     C     3.21156  3.21156  0.00000 -0.42312
       4     O     4.23830  4.23830  0.00000 -0.47659
       5     C     3.16730  3.16730  0.00000 -0.33460
       6     H     0.39606  0.39606  0.00000  0.20787
       7     H     0.40449  0.40449  0.00000  0.19103
       8     C     3.24135  3.24135  0.00000 -0.48271
       9     H     0.41529  0.41529  0.00000  0.16942
      10     H     0.40900  0.40900  0.00000  0.18200
      11     H     0.42068  0.42068  0.00000  0.15864
      12     H     0.41520  0.41520  0.00000  0.16959
      13     H     0.41766  0.41766  0.00000  0.16469

   Total alpha = 20.00000, Total beta = 20.00000, Total charge =  0.00000
