  ==> Input File <==

--------------------------------------------------------------------------
set {
	reference rhf
	basis cc-pvtz
}

set_num_threads( 4 )
memory 2 gb

molecule MOL {
0 1

H	 -2.703082	 0.688670	 0.864306
C	 -2.197863	 1.649557	 0.930132
O	 -0.823588	 1.512052	 0.788705
H	 -2.550873	 2.283385	 0.129799
H	 -2.458010	 2.110318	 1.881398
C	 -0.222750	 0.723314	 1.762627
C	 1.243796	 0.558040	 1.452348
H	 -0.325816	 1.189652	 2.742360
H	 -0.691560	 -0.257338	 1.806987
O	 1.401606	 -0.295166	 0.366636
H	 1.676795	 1.533481	 1.241498
H	 1.746217	 0.149817	 2.329217
C	 2.714315	 -0.441627	 -0.061017
H	 2.765292	 -0.641548	 -1.128869
H	 3.305661	 0.447341	 0.150952
H	 3.143725	 -1.278506	 0.470147

	symmetry c1
}
set optking {
	frozen_dihedral = ("
		7 10 13 14
	")
}

ee = optimize('scf')
oeprop('DIPOLE', 'QUADRUPOLE', 'MULLIKEN_CHARGES')
f=open( 'psi4out.xyz', 'w' )
f.write( "16  " )
f.write( str(ee) + "\n" )
f.write( MOL.save_string_xyz() )
f.close()
--------------------------------------------------------------------------

    Molecular point group: c1
  Charge       = 0
  Multiplicity = 1
  Basis Set: CC-PVTZ
  Basis Set:
  @DF-RHF Final Energy:  -307.09512880654177
    Total Energy =                       -307.0951288065417089
    Molecular point group: c1
  Basis Set: CC-PVTZ
  Basis Set:
  Basis Set: CC-PVTZ
  Basis Set:
  @DF-RHF Final Energy:  -307.09595298679642
    Total Energy =                       -307.0959529867962488
  Basis Set: CC-PVTZ
  Basis Set:
  Basis Set: CC-PVTZ
  Basis Set:
  @DF-RHF Final Energy:  -307.09611928398323
    Total Energy =                       -307.0961192839831710
  Basis Set: CC-PVTZ
  Basis Set:
  Charge       = 0
  Multiplicity = 1
  Basis Set: CC-PVTZ
  Basis Set:

    Orbital Energies (a.u.)
    -----------------------

    Doubly Occupied:

       1A    -20.547614     2A    -20.546075     3A    -11.267670
       4A    -11.266781     5A    -11.261478     6A    -11.261281
       7A     -1.390627     8A     -1.373116     9A     -1.031960
      10A     -0.937282    11A     -0.892181    12A     -0.824243
      13A     -0.685572    14A     -0.682100    15A     -0.658863
      16A     -0.638096    17A     -0.631025    18A     -0.597764
      19A     -0.553551    20A     -0.536649    21A     -0.508891
      22A     -0.478820    23A     -0.464296    24A     -0.422384
      25A     -0.412292

  @DF-RHF Final Energy:  -307.09612002999967

   => Energetics <=

    Nuclear Repulsion Energy =            258.7823923827804151
    One-Electron Energy =                -932.0158074628529903
    Two-Electron Energy =                 366.1372950500728507
    DFT Exchange-Correlation Energy =       0.0000000000000000
    Empirical Dispersion Energy =           0.0000000000000000
    PCM Polarization Energy =               0.0000000000000000
    EFP Energy =                            0.0000000000000000
    Total Energy =                       -307.0961200299996676
    Molecular point group: c1
  Basis Set: CC-PVTZ
  Basis Set:

  -Total Gradient:
     Atom            X                  Y                   Z
    ------   -----------------  -----------------  -----------------
       1       -0.000000165544     0.000000068710    -0.000001454539
       2        0.000003195040    -0.000009368454     0.000017378792
       3        0.000020100469     0.000009344711    -0.000004420219
       4        0.000009459854    -0.000001646327    -0.000000303644
       5       -0.000003786124     0.000001579700    -0.000000171869
       6       -0.000015486587    -0.000053338819    -0.000008359104
       7       -0.000197841077     0.001916378746    -0.001435165296
       8        0.000007977981     0.000002924532    -0.000003643808
       9       -0.000012680027    -0.000002458779     0.000003891819
      10        0.000374008776    -0.001985420071     0.001870758880
      11        0.000015056858     0.000020397810     0.000012223677
      12       -0.000017498117    -0.000024934167    -0.000050885374
      13       -0.000274638080    -0.002674659230     0.000081025019
      14        0.000128582834     0.002798473062    -0.000486521274
      15       -0.000023993893     0.000014070405     0.000002761260
      16       -0.000012292359    -0.000011411828     0.000002885681

  **** Optimization is complete! (in 4 steps) ****
    Final optimized geometry and variables:
    Molecular point group: c1

    Geometry (in Angstrom), charge = 0, multiplicity = 1:

    H           -3.052024980809     0.071265438492    -0.020904751795
    C           -2.547547984581     1.032168775266     0.050087823734
    O           -1.172184059681     0.895086942177    -0.080344959133
    H           -2.894167675469     1.666833544262    -0.752374324885
    H           -2.815558063294     1.491836172450     0.999725447157
    C           -0.579235118669     0.105059060694     0.897325258409
    C            0.889988834134    -0.059123080255     0.598861745028
    H           -0.689862472228     0.570432408200     1.876759430571
    H           -1.048603140792    -0.875444734059     0.936963903397
    O            1.053822792866    -0.904759271582    -0.492298021293
    H            1.324780206346     0.916471464603     0.396352573157
    H            1.381825791713    -0.471079793078     1.480192367976
    C            2.364446209052    -1.068917117526    -0.928933916134
    H            2.345795312588    -1.258608683197    -1.993169983062
    H            2.954505019659    -0.171032240695    -0.765319580860
    H            2.851859419338    -1.896562324087    -0.420537892702

  Mulliken Charges: (a.u.)
   Center  Symbol    Alpha    Beta     Spin     Total
       1     H     0.47019  0.47019  0.00000  0.05961
       2     C     3.03203  3.03203  0.00000 -0.06407
       3     O     4.17030  4.17030  0.00000 -0.34061
       4     H     0.44642  0.44642  0.00000  0.10717
       5     H     0.47372  0.47372  0.00000  0.05255
       6     C     2.96209  2.96209  0.00000  0.07582
       7     C     2.95983  2.95983  0.00000  0.08034
       8     H     0.47623  0.47623  0.00000  0.04754
       9     H     0.47078  0.47078  0.00000  0.05843
      10     O     4.17274  4.17274  0.00000 -0.34548
      11     H     0.46900  0.46900  0.00000  0.06201
      12     H     0.47734  0.47734  0.00000  0.04532
      13     C     3.02919  3.02919  0.00000 -0.05838
      14     H     0.44924  0.44924  0.00000  0.10153
      15     H     0.47460  0.47460  0.00000  0.05080
      16     H     0.46629  0.46629  0.00000  0.06743

   Total alpha = 25.00000, Total beta = 25.00000, Total charge = -0.00000
