  ==> Input File <==

--------------------------------------------------------------------------
set {
	reference rhf
	basis 6-31G*
}

set_num_threads( 4 )
memory 2 gb

molecule MOL {
0 1

O	 1.944598	 2.798912	 -1.830772
C	 1.429635	 2.385554	 -2.824103
C	 0.148715	 1.571162	 -2.793311
C	 2.026929	 2.649634	 -4.191092
C	 -0.405134	 1.336181	 -1.391074
H	 -0.585013	 2.080542	 -3.416660
H	 0.344073	 0.623698	 -3.293859
C	 -1.694554	 0.513335	 -1.400277
H	 -0.582124	 2.294577	 -0.913287
H	 0.347869	 0.835893	 -0.790369
C	 -2.259874	 0.272531	 0.000494
H	 -2.444161	 1.019026	 -2.007246
H	 -1.510353	 -0.445759	 -1.882228
C	 -3.549786	 -0.549746	 -0.000374
H	 -2.445058	 1.230630	 0.482958
H	 -1.511690	 -0.233717	 0.607890
C	 -4.809590	 0.315458	 -0.000369
H	 -3.560515	 -1.202009	 -0.871156
H	 -3.561123	 -1.202955	 0.869711
H	 -4.844746	 0.956611	 -0.876632
H	 -5.706986	 -0.295590	 -0.001609
H	 -4.845960	 0.954827	 0.877144
H	 1.317888	 3.182410	 -4.818011
H	 2.929250	 3.236138	 -4.087836
H	 2.258400	 1.713330	 -4.690482

	symmetry c1
}
set optking {
	frozen_dihedral = ("
		15 11 14 18
	")
}

ee = optimize('scf')
oeprop('DIPOLE', 'QUADRUPOLE', 'MULLIKEN_CHARGES')
f=open( 'psi4out.xyz', 'w' )
f.write( "25  " )
f.write( str(ee) + "\n" )
f.write( MOL.save_string_xyz() )
f.close()
--------------------------------------------------------------------------

    Molecular point group: c1
  Charge       = 0
  Multiplicity = 1
  Basis Set: 6-31G*
  Basis Set:
  @DF-RHF Final Energy:  -387.13260983894116
    Total Energy =                       -387.1326098389404251
    Molecular point group: c1
  Basis Set: 6-31G*
  Basis Set:
  Basis Set: 6-31G*
  Basis Set:
  @DF-RHF Final Energy:  -387.13285172856570
    Total Energy =                       -387.1328517285658108
  Basis Set: 6-31G*
  Basis Set:
  Basis Set: 6-31G*
  Basis Set:
  @DF-RHF Final Energy:  -387.13293781987369
    Total Energy =                       -387.1329378198732911
  Basis Set: 6-31G*
  Basis Set:
  Basis Set: 6-31G*
  Basis Set:
  @DF-RHF Final Energy:  -387.13291798743961
    Total Energy =                       -387.1329179874389865
  Basis Set: 6-31G*
  Basis Set:
  Basis Set: 6-31G*
  Basis Set:
  @DF-RHF Final Energy:  -387.13291632178050
    Total Energy =                       -387.1329163217807263
  Basis Set: 6-31G*
  Basis Set:
  Basis Set: 6-31G*
  Basis Set:
  @DF-RHF Final Energy:  -387.13294056385911
    Total Energy =                       -387.1329405638588241
  Basis Set: 6-31G*
  Basis Set:
  Basis Set: 6-31G*
  Basis Set:
  @DF-RHF Final Energy:  -387.13294192398450
    Total Energy =                       -387.1329419239845038
  Basis Set: 6-31G*
  Basis Set:
  Charge       = 0
  Multiplicity = 1
  Basis Set: 6-31G*
  Basis Set:

    Orbital Energies (a.u.)
    -----------------------

    Doubly Occupied:

       1A    -20.550498     2A    -11.326335     3A    -11.231951
       4A    -11.228374     5A    -11.217125     6A    -11.216480
       7A    -11.215403     8A    -11.213535     9A    -11.208908
      10A     -1.395803    11A     -1.093326    12A     -1.055392
      13A     -1.013770    14A     -0.967868    15A     -0.892306
      16A     -0.819210    17A     -0.785759    18A     -0.729747
      19A     -0.658228    20A     -0.653098    21A     -0.624699
      22A     -0.620187    23A     -0.609818    24A     -0.588183
      25A     -0.569245    26A     -0.556741    27A     -0.535556
      28A     -0.524239    29A     -0.515891    30A     -0.491522
      31A     -0.485977    32A     -0.477882    33A     -0.463354
      34A     -0.455659    35A     -0.450411    36A     -0.399418

  @DF-RHF Final Energy:  -387.13294192136425

   => Energetics <=

    Nuclear Repulsion Energy =            441.3891720498245377
    One-Electron Energy =               -1399.3604320601684776
    Two-Electron Energy =                 570.8383180889792357
    DFT Exchange-Correlation Energy =       0.0000000000000000
    Empirical Dispersion Energy =           0.0000000000000000
    PCM Polarization Energy =               0.0000000000000000
    EFP Energy =                            0.0000000000000000
    Total Energy =                       -387.1329419213647043
    Molecular point group: c1
  Basis Set: 6-31G*
  Basis Set:

  -Total Gradient:
     Atom            X                  Y                   Z
    ------   -----------------  -----------------  -----------------
       1       -0.000000561401     0.000001383590    -0.000000425615
       2        0.000002649423    -0.000003967239     0.000000414839
       3       -0.000001015799     0.000001704297     0.000000612098
       4        0.000000362415     0.000000513401     0.000000000503
       5       -0.000003033889     0.000003136499    -0.000000545669
       6       -0.000000392239    -0.000000638502     0.000000564770
       7        0.000000148445     0.000000145553     0.000000214105
       8        0.000000969726    -0.000007968470    -0.000003235953
       9        0.000000713972     0.000000137597     0.000000065214
      10        0.000000285873    -0.000000230333    -0.000000636568
      11        0.000620742638    -0.001067723369     0.003159427387
      12        0.000001916348     0.000000283509     0.000001205859
      13        0.000000040948    -0.000000885231    -0.000002801186
      14        0.001566709376    -0.002643565030     0.001472760591
      15       -0.000781482041     0.001322966473    -0.002892238261
      16       -0.000004758078    -0.000004053964     0.000001358720
      17        0.000004757097     0.000006501316    -0.000000112499
      18       -0.001411969484     0.002391846832    -0.001740274370
      19        0.000005130544     0.000001101159     0.000003095884
      20        0.000000184594     0.000002014090     0.000001632788
      21        0.000003181422    -0.000001710663    -0.000003525444
      22       -0.000004428077    -0.000001874025     0.000002783464
      23        0.000000056056     0.000000344312     0.000000151484
      24        0.000000161589     0.000000248392    -0.000000461552
      25       -0.000000369463     0.000000289805    -0.000000030590

  **** Optimization is complete! (in 8 steps) ****
    Final optimized geometry and variables:
    Molecular point group: c1

    Geometry (in Angstrom), charge = 0, multiplicity = 1:

    O            2.719427590355     1.573424755938    -0.231893832525
    C            2.216913626884     1.138455971747    -1.222354332065
    C            0.952582221313     0.298676356029    -1.187089187628
    C            2.814177842136     1.399047707391    -2.590025790678
    C            0.398522491781     0.067672047724     0.215752548667
    H            0.211001780395     0.786512128868    -1.818371972523
    H            1.168799269163    -0.649918795912    -1.676744219190
    C           -0.874459784674    -0.779944925664     0.211589666595
    H            0.201901503020     1.027444642999     0.682983698274
    H            1.159065347169    -0.411769794327     0.824140762817
    C           -1.428734145923    -1.032279270294     1.617651783429
    H           -1.634076804156    -0.289696331895    -0.395557996350
    H           -0.673320795660    -1.736442303550    -0.268368209180
    C           -2.753380533797    -1.816728551991     1.615370297222
    H           -1.581428987139    -0.068840456834     2.099426992082
    H           -0.679512562835    -1.561141602559     2.200424304493
    C           -3.987219090138    -0.911268827924     1.580439401792
    H           -2.785454556768    -2.468344648019     0.745228316095
    H           -2.810332939808    -2.456794668775     2.490751749408
    H           -3.971361901368    -0.252210236193     0.716875215531
    H           -4.901516510032    -1.494918163921     1.530839867959
    H           -4.039418215135    -0.288413837714     2.468752315466
    H            2.096990703780     1.910181617870    -3.225638717888
    H            3.703999674956     2.004898067208    -2.490117427935
    H            3.066559633852     0.462032915988    -3.077828481153

  Mulliken Charges: (a.u.)
   Center  Symbol    Alpha    Beta     Spin     Total
       1     O     4.26113  4.26113  0.00000 -0.52227
       2     C     2.73572  2.73572  0.00000  0.52855
       3     C     3.21076  3.21076  0.00000 -0.42151
       4     C     3.28664  3.28664  0.00000 -0.57329
       5     C     3.14819  3.14819  0.00000 -0.29638
       6     H     0.41005  0.41005  0.00000  0.17989
       7     H     0.41000  0.41000  0.00000  0.18001
       8     C     3.15561  3.15561  0.00000 -0.31122
       9     H     0.41209  0.41209  0.00000  0.17582
      10     H     0.41228  0.41228  0.00000  0.17544
      11     C     3.15398  3.15398  0.00000 -0.30796
      12     H     0.42458  0.42458  0.00000  0.15084
      13     H     0.42454  0.42454  0.00000  0.15091
      14     C     3.15462  3.15462  0.00000 -0.30923
      15     H     0.42107  0.42107  0.00000  0.15787
      16     H     0.41948  0.41948  0.00000  0.16104
      17     C     3.24018  3.24018  0.00000 -0.48036
      18     H     0.42250  0.42250  0.00000  0.15499
      19     H     0.41935  0.41935  0.00000  0.16131
      20     H     0.42250  0.42250  0.00000  0.15501
      21     H     0.41997  0.41997  0.00000  0.16006
      22     H     0.42087  0.42087  0.00000  0.15825
      23     H     0.40874  0.40874  0.00000  0.18252
      24     H     0.39645  0.39645  0.00000  0.20710
      25     H     0.40869  0.40869  0.00000  0.18261

   Total alpha = 36.00000, Total beta = 36.00000, Total charge =  0.00000
