  ==> Input File <==

--------------------------------------------------------------------------
set {
	reference rhf
	basis cc-pvtz
}

set_num_threads( 4 )
memory 2 gb

molecule MOL {
0 1

H	 -3.941973	 0.934228	 -0.390224
C	 -3.240162	 0.342701	 0.161016
C	 -2.105997	 -0.000418	 -0.398703
H	 -3.485368	 0.047206	 1.162193
O	 -1.189946	 -0.765863	 0.237511
H	 -1.846458	 0.297311	 -1.398265
C	 0.026572	 -0.995256	 -0.379403
C	 1.057223	 0.049888	 -0.004615
H	 -0.054361	 -1.010670	 -1.459674
H	 0.397526	 -1.952058	 -0.044198
F	 0.506061	 1.246191	 -0.051092
F	 1.518369	 -0.130295	 1.214559
F	 2.082009	 0.046896	 -0.822089

	symmetry c1
}
set optking {
	frozen_dihedral = ("
		11 8 7 9
	")
}

ee = optimize('scf')
oeprop('DIPOLE', 'QUADRUPOLE', 'MULLIKEN_CHARGES')
f=open( 'psi4out.xyz', 'w' )
f.write( "13  " )
f.write( str(ee) + "\n" )
f.write( MOL.save_string_xyz() )
f.close()
--------------------------------------------------------------------------

    Molecular point group: c1
  Charge       = 0
  Multiplicity = 1
  Basis Set: CC-PVTZ
  Basis Set:
  @DF-RHF Final Energy:  -527.74012484352590
    Total Energy =                       -527.7401248435257912
    Molecular point group: c1
  Basis Set: CC-PVTZ
  Basis Set:
  Basis Set: CC-PVTZ
  Basis Set:
  @DF-RHF Final Energy:  -527.74065140499295
    Total Energy =                       -527.7406514049926045
  Basis Set: CC-PVTZ
  Basis Set:
  Basis Set: CC-PVTZ
  Basis Set:
  @DF-RHF Final Energy:  -527.74076209289569
    Total Energy =                       -527.7407620928959204
  Basis Set: CC-PVTZ
  Basis Set:
  Basis Set: CC-PVTZ
  Basis Set:
  @DF-RHF Final Energy:  -527.74078338031723
    Total Energy =                       -527.7407833803172252
  Basis Set: CC-PVTZ
  Basis Set:
  Basis Set: CC-PVTZ
  Basis Set:
  @DF-RHF Final Energy:  -527.74078998853963
    Total Energy =                       -527.7407899885400866
  Basis Set: CC-PVTZ
  Basis Set:
  Basis Set: CC-PVTZ
  Basis Set:
  @DF-RHF Final Energy:  -527.74079364175896
    Total Energy =                       -527.7407936417589553
  Basis Set: CC-PVTZ
  Basis Set:
  Charge       = 0
  Multiplicity = 1
  Basis Set: CC-PVTZ
  Basis Set:

    Orbital Energies (a.u.)
    -----------------------

    Doubly Occupied:

       1A    -26.342926     2A    -26.340718     3A    -26.336568
       4A    -20.604509     5A    -11.498250     6A    -11.319916
       7A    -11.298787     8A    -11.213890     9A     -1.750551
      10A     -1.648394    11A     -1.643770    12A     -1.445173
      13A     -1.087720    14A     -1.020421    15A     -0.932420
      16A     -0.844026    17A     -0.839611    18A     -0.827509
      19A     -0.797055    20A     -0.731233    21A     -0.719775
      22A     -0.704379    23A     -0.680720    24A     -0.669148
      25A     -0.660977    26A     -0.650623    27A     -0.638780
      28A     -0.587684    29A     -0.565803    30A     -0.529743
      31A     -0.517854    32A     -0.356776

  @DF-RHF Final Energy:  -527.74079461354654

   => Energetics <=

    Nuclear Repulsion Energy =            413.1862071454862644
    One-Electron Energy =               -1550.2425856758982263
    Two-Electron Energy =                 609.3155839168655348
    DFT Exchange-Correlation Energy =       0.0000000000000000
    Empirical Dispersion Energy =           0.0000000000000000
    PCM Polarization Energy =               0.0000000000000000
    EFP Energy =                            0.0000000000000000
    Total Energy =                       -527.7407946135465409
    Molecular point group: c1
  Basis Set: CC-PVTZ
  Basis Set:

  -Total Gradient:
     Atom            X                  Y                   Z
    ------   -----------------  -----------------  -----------------
       1       -0.000004546473     0.000001929794     0.000001155351
       2        0.000024997886     0.000015150607     0.000001881510
       3       -0.000118062057     0.000017144658     0.000015318013
       4        0.000005854716     0.000004278322    -0.000002562991
       5       -0.000009550433     0.000008966513    -0.000013716788
       6        0.000018770489    -0.000014604045    -0.000004010388
       7       -0.003687966465     0.003247558867     0.001155905361
       8        0.001726056851    -0.000205363697    -0.004220898186
       9        0.002826056292    -0.002767810433    -0.000065038083
      10        0.000009922884     0.000005096838    -0.000025304693
      11       -0.000918700276    -0.000246488301     0.003208505239
      12        0.000019251867    -0.000024690364     0.000027674629
      13        0.000107914729    -0.000041168759    -0.000078908975

  **** Optimization is complete! (in 7 steps) ****
    Final optimized geometry and variables:
    Molecular point group: c1

    Geometry (in Angstrom), charge = 0, multiplicity = 1:

    H           -3.964688599435     0.909443586786    -0.389485171741
    C           -3.264728930469     0.311342320989     0.156997779196
    C           -2.111718576771     0.009112659577    -0.387390307007
    H           -3.526469736009    -0.022504075530     1.141812697860
    O           -1.193641467406    -0.756647216251     0.245804270429
    H           -1.835690749671     0.345016844770    -1.370249999186
    C            0.017445822572    -0.986968820329    -0.376536660160
    C            1.063242275911     0.053156869744    -0.012901234846
    H           -0.055359564306    -1.032256452637    -1.456484359194
    H            0.390727860182    -1.940738531988    -0.033679454215
    F            0.589523599228     1.276428801563    -0.077441861086
    F            1.517026021398    -0.123901324849     1.208293647515
    F            2.088705356207    -0.035725536949    -0.834462199471

  Mulliken Charges: (a.u.)
   Center  Symbol    Alpha    Beta     Spin     Total
       1     H     0.42521  0.42521  0.00000  0.14958
       2     C     3.19727  3.19727  0.00000 -0.39453
       3     C     2.95680  2.95680  0.00000  0.08640
       4     H     0.42493  0.42493  0.00000  0.15014
       5     O     4.14359  4.14359  0.00000 -0.28718
       6     H     0.43471  0.43471  0.00000  0.13058
       7     C     3.02389  3.02389  0.00000 -0.04778
       8     C     2.67338  2.67338  0.00000  0.65324
       9     H     0.45544  0.45544  0.00000  0.08913
      10     H     0.43626  0.43626  0.00000  0.12748
      11     F     4.60760  4.60760  0.00000 -0.21521
      12     F     4.60904  4.60904  0.00000 -0.21807
      13     F     4.61188  4.61188  0.00000 -0.22376

   Total alpha = 32.00000, Total beta = 32.00000, Total charge =  0.00000
