  ==> Input File <==

--------------------------------------------------------------------------
set {
	reference rhf
	basis 6-31G*
}

set_num_threads( 1 )
memory 2 gb

molecule MOL {
0 1

H	 -3.948330	 0.575396	 -0.795070
O	 -3.517110	 -0.026191	 -0.205115
C	 -2.306886	 0.532354	 0.237577
C	 -1.177863	 -0.397191	 -0.171080
H	 -2.156308	 1.517575	 -0.201710
H	 -2.315015	 0.655684	 1.319734
C	 0.198102	 0.111031	 0.262842
H	 -1.208843	 -0.518759	 -1.250427
H	 -1.368741	 -1.376554	 0.258909
C	 1.331804	 -0.827780	 -0.158768
H	 0.361943	 1.100838	 -0.156218
H	 0.217265	 0.229072	 1.345532
C	 2.723619	 -0.410569	 0.329459
H	 1.342964	 -0.912588	 -1.244120
H	 1.116806	 -1.824343	 0.220779
C	 3.243875	 0.895854	 -0.272975
H	 3.424222	 -1.207124	 0.091250
H	 2.714788	 -0.329854	 1.414619
H	 3.251977	 0.848779	 -1.358681
H	 2.637085	 1.747371	 0.016682
H	 4.259473	 1.094070	 0.055697

	symmetry c1
}
set optking {
	frozen_dihedral = ("
		2 3 4 8,
		8 4 7 10,
		4 7 10 14,
		16 13 10 14
	")
}

ee = energy('scf')
oeprop('DIPOLE', 'QUADRUPOLE', 'MULLIKEN_CHARGES')
f=open( 'psi4out.xyz', 'w' )
f.write( "21  " )
f.write( str(ee) + "\n" )
f.write( MOL.save_string_xyz() )
f.close()
--------------------------------------------------------------------------

    Molecular point group: c1

    Geometry (in Angstrom), charge = 0, multiplicity = 1:

       Center              X                  Y                   Z               Mass
    ------------   -----------------  -----------------  -----------------  -----------------
           H         -3.951174153508     0.575028290097    -0.786829659252     1.007825032070
           O         -3.519954153508    -0.026558709903    -0.196874659252    15.994914619560
           C         -2.309730153508     0.531986290097     0.245817340748    12.000000000000
           C         -1.180707153508    -0.397558709903    -0.162839659252    12.000000000000
           H         -2.159152153508     1.517207290097    -0.193469659252     1.007825032070
           H         -2.317859153508     0.655316290097     1.327974340748     1.007825032070
           C          0.195257846492     0.110663290097     0.271082340748    12.000000000000
           H         -1.211687153508    -0.519126709903    -1.242186659252     1.007825032070
           H         -1.371585153508    -1.376921709903     0.267149340748     1.007825032070
           C          1.328959846492    -0.828147709903    -0.150527659252    12.000000000000
           H          0.359098846492     1.100470290097    -0.147977659252     1.007825032070
           H          0.214420846492     0.228704290097     1.353772340748     1.007825032070
           C          2.720774846492    -0.410936709903     0.337699340748    12.000000000000
           H          1.340119846492    -0.912955709903    -1.235879659252     1.007825032070
           H          1.113961846492    -1.824710709903     0.229019340748     1.007825032070
           C          3.241030846492     0.895486290097    -0.264734659252    12.000000000000
           H          3.421377846492    -1.207491709903     0.099490340748     1.007825032070
           H          2.711943846492    -0.330221709903     1.422859340748     1.007825032070
           H          3.249132846492     0.848411290097    -1.350440659252     1.007825032070
           H          2.634240846492     1.747003290097     0.024922340748     1.007825032070
           H          4.256628846492     1.093702290097     0.063937340748     1.007825032070

  Charge       = 0
  Multiplicity = 1
  Basis Set: 6-31G*
  Basis Set:

    Orbital Energies (a.u.)
    -----------------------

    Doubly Occupied:

       1A    -20.551214     2A    -11.267614     3A    -11.215142
       4A    -11.214925     5A    -11.213529     6A    -11.208893
       7A    -11.208509     8A     -1.359109     9A     -1.085994
      10A     -1.032849    11A     -0.954221    12A     -0.876232
      13A     -0.809125    14A     -0.778713    15A     -0.700531
      16A     -0.650349    17A     -0.623266    18A     -0.602003
      19A     -0.591424    20A     -0.569935    21A     -0.539095
      22A     -0.520924    23A     -0.508793    24A     -0.488995
      25A     -0.475617    26A     -0.463816    27A     -0.458965
      28A     -0.455022    29A     -0.419317

  @DF-RHF Final Energy:  -310.21038526289124

   => Energetics <=

    Nuclear Repulsion Energy =            312.6340264186796958
    One-Electron Energy =               -1040.0005953624640824
    Two-Electron Energy =                 417.1561836808924681
    DFT Exchange-Correlation Energy =       0.0000000000000000
    Empirical Dispersion Energy =           0.0000000000000000
    PCM Polarization Energy =               0.0000000000000000
    EFP Energy =                            0.0000000000000000
    Total Energy =                       -310.2103852628919185

  Mulliken Charges: (a.u.)
   Center  Symbol    Alpha    Beta     Spin     Total
       1     H     0.27968  0.27968  0.00000  0.44064
       2     O     4.37209  4.37209  0.00000 -0.74417
       3     C     2.99454  2.99454  0.00000  0.01091
       4     C     3.15485  3.15485  0.00000 -0.30969
       5     H     0.43301  0.43301  0.00000  0.13397
       6     H     0.42400  0.42400  0.00000  0.15199
       7     C     3.16304  3.16304  0.00000 -0.32609
       8     H     0.42147  0.42147  0.00000  0.15707
       9     H     0.41465  0.41465  0.00000  0.17070
      10     C     3.15139  3.15139  0.00000 -0.30278
      11     H     0.42311  0.42311  0.00000  0.15377
      12     H     0.42357  0.42357  0.00000  0.15287
      13     C     3.15241  3.15241  0.00000 -0.30481
      14     H     0.42386  0.42386  0.00000  0.15229
      15     H     0.42085  0.42085  0.00000  0.15830
      16     C     3.24112  3.24112  0.00000 -0.48225
      17     H     0.42077  0.42077  0.00000  0.15846
      18     H     0.42332  0.42332  0.00000  0.15335
      19     H     0.42240  0.42240  0.00000  0.15520
      20     H     0.42071  0.42071  0.00000  0.15858
      21     H     0.41916  0.41916  0.00000  0.16168

   Total alpha = 29.00000, Total beta = 29.00000, Total charge =  0.00000
