                              Psi4 1.0.54 Driver

  ==> Input File <==

--------------------------------------------------------------------------
set {
	reference rhf
	basis cc-pvtz
}

set_num_threads( 4 )
memory 2 gb

molecule MOL {
0 1

O	 3.219313	 0.959291	 -0.614106
C	 2.698710	 0.058177	 -0.050237
C	 1.246364	 -0.005813	 0.348416
O	 3.344101	 -1.038700	 0.312317
C	 0.453207	 1.232821	 -0.049003
H	 0.839270	 -0.907818	 -0.092281
H	 1.216683	 -0.160521	 1.422434
C	 -0.998367	 1.217982	 0.432195
H	 0.481498	 1.345443	 -1.127236
H	 0.951413	 2.105557	 0.354893
C	 -1.882951	 0.151251	 -0.211235
H	 -1.429490	 2.193659	 0.228843
H	 -1.019755	 1.099323	 1.513279
C	 -3.342450	 0.243269	 0.226009
H	 -1.826223	 0.246578	 -1.293162
H	 -1.508033	 -0.839650	 0.027695
C	 -4.234517	 -0.821434	 -0.405970
H	 -3.730149	 1.228245	 -0.022691
H	 -3.398860	 0.159952	 1.308941
C	 -3.660804	 -1.395318	 -1.697205
H	 -4.391993	 -1.626452	 0.306678
H	 -5.214478	 -0.396412	 -0.605692
H	 -4.317824	 -2.147052	 -2.119349
H	 -2.695582	 -1.859545	 -1.524146
H	 -3.523652	 -0.619598	 -2.443299
C	 4.720529	 -1.114346	 0.001449
H	 4.874321	 -1.055557	 -1.065852
H	 5.057824	 -2.067950	 0.373977
H	 5.264321	 -0.313596	 0.480350

	symmetry c1
}
set optking {
	frozen_dihedral = ("
		21 17 14 11
	")
}

ee,wfn = optimize('scf', return_wfn=True)
oeprop( wfn, 'DIPOLE', 'QUADRUPOLE', 'MULLIKEN_CHARGES')
f=open( 'psi4out.xyz', 'w' )
f.write( "29  " )
f.write( str(ee) + "\n" )
f.write( MOL.save_string_xyz() )
f.close()
--------------------------------------------------------------------------

    Molecular point group: c1
  Charge       = 0
  Multiplicity = 1
  Basis Set: CC-PVTZ
  Basis Set:
  @DF-RHF Final Energy:  -501.21429221878873
    Total Energy =                       -501.2142922187889553
    Molecular point group: c1
  Basis Set: CC-PVTZ
  Basis Set:
  Basis Set: CC-PVTZ
  Basis Set:
  @DF-RHF Final Energy:  -500.73962192140493
    Total Energy =                       -500.7396219214039093
  Basis Set: CC-PVTZ
  Basis Set:
  Basis Set: CC-PVTZ
  Basis Set:
  @DF-RHF Final Energy:  -500.94226611614260
    Total Energy =                       -500.9422661161429460
  Basis Set: CC-PVTZ
  Basis Set:
  Basis Set: CC-PVTZ
  Basis Set:
  @DF-RHF Final Energy:  -501.15841862640821
    Total Energy =                       -501.1584186264080927
  Basis Set: CC-PVTZ
  Basis Set:
  @DF-RHF Final Energy:  -501.21459840160799
    Total Energy =                       -501.2145984016079865
  @DF-RHF Final Energy:  -501.21736830901864
    Total Energy =                       -501.2173683090185250
  @DF-RHF Final Energy:  -501.21752485000036
    Total Energy =                       -501.2175248499997906
  @DF-RHF Final Energy:  -501.21623902620797
    Total Energy =                       -501.2162390262080862
  Basis Set: CC-PVTZ
  Basis Set:
  @DF-RHF Final Energy:  -501.21759724418416
    Total Energy =                       -501.2175972441843896
  Basis Set: CC-PVTZ
  Basis Set:
  Basis Set: CC-PVTZ
  Basis Set:
  @DF-RHF Final Energy:  -501.21759883049413
    Total Energy =                       -501.2175988304941257
  Basis Set: CC-PVTZ
  Basis Set:
  Basis Set: CC-PVTZ
  Basis Set:
  @DF-RHF Final Energy:  -501.21760104546263
    Total Energy =                       -501.2176010454618336
  Basis Set: CC-PVTZ
  Basis Set:
  Charge       = 0
  Multiplicity = 1
  Basis Set: CC-PVTZ
  Basis Set:

    Orbital Energies (a.u.)
    -----------------------

    Doubly Occupied:

       1A    -20.595925     2A    -20.533777     3A    -11.364168
       4A    -11.278196     5A    -11.232833     6A    -11.216846
       7A    -11.215184     8A    -11.214343     9A    -11.213226
      10A    -11.212613    11A    -11.207575    12A     -1.471826
      13A     -1.365432    14A     -1.098483    15A     -1.065470
      16A     -1.018565    17A     -0.976525    18A     -0.928870
      19A     -0.874243    20A     -0.805106    21A     -0.774815
      22A     -0.764810    23A     -0.702584    24A     -0.685355
      25A     -0.675982    26A     -0.648487    27A     -0.627519
      28A     -0.604484    29A     -0.602311    30A     -0.587823
      31A     -0.559149    32A     -0.550403    33A     -0.543034
      34A     -0.526724    35A     -0.520964    36A     -0.505463
      37A     -0.504261    38A     -0.478508    39A     -0.472868
      40A     -0.460864    41A     -0.457244    42A     -0.446657
      43A     -0.444409    44A     -0.437858

  @DF-RHF Final Energy:  -501.21760185584446

   => Energetics <=

    Nuclear Repulsion Energy =            618.4317731112874981
    One-Electron Energy =               -1908.3551767386329630
    Two-Electron Energy =                 788.7058017715005462
    DFT Exchange-Correlation Energy =       0.0000000000000000
    Empirical Dispersion Energy =           0.0000000000000000
    PCM Polarization Energy =               0.0000000000000000
    EFP Energy =                            0.0000000000000000
    Total Energy =                       -501.2176018558450323
    Molecular point group: c1
  Basis Set: CC-PVTZ
  Basis Set:

  -Total Gradient:
     Atom            X                  Y                   Z
    ------   -----------------  -----------------  -----------------
       1       -0.000067044348    -0.000028551334     0.000074437830
       2        0.000109309592    -0.000007874385    -0.000098411292
       3       -0.000003955007     0.000033886669     0.000024736771
       4       -0.000007133387     0.000019474170     0.000024588036
       5       -0.000003343668     0.000007515308    -0.000008262231
       6       -0.000009540568    -0.000018122636    -0.000011991533
       7       -0.000002589077    -0.000002162017    -0.000010477553
       8       -0.000003149003     0.000011541113     0.000003236054
       9       -0.000005546171    -0.000008563102     0.000007588787
      10        0.000000597263     0.000005276384     0.000018171538
      11        0.000050126222     0.000428346404    -0.004557665036
      12       -0.000001019286    -0.000009569203    -0.000010016734
      13        0.000001455355     0.000005971316     0.000007884575
      14       -0.001217771281     0.000160264767     0.006320059794
      15       -0.000002997826     0.000027663484     0.000006413711
      16        0.000005151704    -0.000010870686     0.000011922350
      17        0.006167724301    -0.003904682521    -0.000996152261
      18       -0.000001276436    -0.000001378248    -0.000002348540
      19        0.000001840835     0.000002544304     0.000002442315
      20        0.000009248366    -0.000005272458    -0.000003049451
      21       -0.004986871305     0.003312480609    -0.000790932707
      22       -0.000002362373    -0.000006510988    -0.000019312678
      23       -0.000002290623    -0.000004398661    -0.000000149403
      24       -0.000007121437    -0.000010011290     0.000015455366
      25       -0.000014865402     0.000006977955    -0.000002511122
      26       -0.000021071902    -0.000001866936    -0.000004536852
      27        0.000007814414     0.000001981852    -0.000000057332
      28        0.000005083679    -0.000006971726     0.000003283979
      29        0.000001597374     0.000002881863    -0.000004346375

  **** Optimization is complete! (in 12 steps) ****
    Final optimized geometry and variables:
    Molecular point group: c1

    Geometry (in Angstrom), charge = 0, multiplicity = 1:

    O            3.100935703753     0.967971645029    -0.276161536874
    C            2.450877511373     0.425503717528     0.550887458591
    C            0.944828492305     0.415234175876     0.616287398253
    O            2.978889377769    -0.260761404836     1.551619006200
    C            0.283124071857     1.194945804787    -0.513113122994
    H            0.638402152716    -0.623859433397     0.626293897129
    H            0.664213093985     0.816825949256     1.584892567034
    C           -1.240582660957     1.268144324032    -0.403959589277
    H            0.562654921340     0.754524035317    -1.463874608410
    H            0.686307361218     2.200196990839    -0.520377757086
    C           -1.966510714320    -0.065671398262    -0.576836334539
    H           -1.598601322976     1.957869588988    -1.162600661979
    H           -1.513785346652     1.706386814903     0.553356259250
    C           -3.486096807690     0.101362604064    -0.573721541957
    H           -1.649063882948    -0.520585762073    -1.509262828708
    H           -1.674157455675    -0.750133424899     0.214433523085
    C           -4.324413652110    -1.189093344451    -0.701634880154
    H           -3.739765481344     0.761385249260    -1.398972423822
    H           -3.787272134076     0.626412079889     0.326956228659
    C           -3.672200245078    -2.370646147038    -1.412402527058
    H           -4.678652226315    -1.489789069166     0.279660535800
    H           -5.232358861635    -0.935141345097    -1.240985551908
    H           -4.373801101582    -3.193487119782    -1.487226685903
    H           -2.797900555088    -2.733676455060    -0.886264686076
    H           -3.367751055662    -2.108998509607    -2.420106702933
    C            4.388632885410    -0.334831926937     1.614906082940
    H            4.786007675222    -0.807255982831     0.728807167169
    H            4.616887809371    -0.926892936016     2.486291144321
    H            4.818481537415     0.651190949412     1.711188275536

  Mulliken Charges: (a.u.)
   Center  Symbol    Alpha    Beta     Spin     Total
       1     O     4.19696  4.19696  0.00000 -0.39391
       2     C     2.80497  2.80497  0.00000  0.39006
       3     C     3.10148  3.10148  0.00000 -0.20296
       4     O     4.14724  4.14724  0.00000 -0.29447
       5     C     3.09224  3.09224  0.00000 -0.18447
       6     H     0.43929  0.43929  0.00000  0.12143
       7     H     0.43983  0.43983  0.00000  0.12034
       8     C     3.10449  3.10449  0.00000 -0.20898
       9     H     0.44642  0.44642  0.00000  0.10717
      10     H     0.43977  0.43977  0.00000  0.12047
      11     C     3.09688  3.09688  0.00000 -0.19376
      12     H     0.44539  0.44539  0.00000  0.10923
      13     H     0.45327  0.45327  0.00000  0.09347
      14     C     3.09591  3.09591  0.00000 -0.19182
      15     H     0.44911  0.44911  0.00000  0.10178
      16     H     0.45255  0.45255  0.00000  0.09490
      17     C     3.08744  3.08744  0.00000 -0.17489
      18     H     0.45265  0.45265  0.00000  0.09471
      19     H     0.45044  0.45044  0.00000  0.09912
      20     C     3.15706  3.15706  0.00000 -0.31412
      21     H     0.45249  0.45249  0.00000  0.09503
      22     H     0.45196  0.45196  0.00000  0.09609
      23     H     0.44444  0.44444  0.00000  0.11112
      24     H     0.45281  0.45281  0.00000  0.09438
      25     H     0.45292  0.45292  0.00000  0.09415
      26     C     3.03814  3.03814  0.00000 -0.07628
      27     H     0.45436  0.45436  0.00000  0.09128
      28     H     0.44529  0.44529  0.00000  0.10943
      29     H     0.45423  0.45423  0.00000  0.09153

   Total alpha = 44.00000, Total beta = 44.00000, Total charge = -0.00000

*** Psi4 exiting successfully. Buy a developer a beer!
