  ==> Input File <==

--------------------------------------------------------------------------
set {
	reference rhf
	basis 6-31G*
}

set_num_threads( 4 )
memory 2 gb

molecule MOL {
0 1

H	 -3.407059	 -1.043082	 0.000000
O	 -3.119761	 -0.140267	 0.000000
C	 -1.777559	 -0.059267	 0.000000
C	 -1.091798	 0.886016	 0.757083
C	 -1.083347	 -0.964302	 -0.793125
H	 -1.637480	 1.583824	 1.369133
C	 0.286230	 0.922434	 0.717932
H	 -1.634810	 -1.683856	 -1.367932
C	 0.294773	 -0.915316	 -0.821755
H	 0.828196	 1.646411	 1.296923
C	 0.995967	 0.023100	 -0.071204
H	 0.833224	 -1.616438	 -1.436215
C	 2.471000	 0.063438	 -0.111976
O	 3.146521	 0.832839	 0.498311
H	 2.935651	 -0.685054	 -0.762380

	symmetry c1
}
set optking {
	frozen_dihedral = ("
		5 3 2 1
	")
}

ee = optimize('scf')
oeprop('DIPOLE', 'QUADRUPOLE', 'MULLIKEN_CHARGES')
f=open( 'psi4out.xyz', 'w' )
f.write( "15  " )
f.write( str(ee) + "\n" )
f.write( MOL.save_string_xyz() )
f.close()
--------------------------------------------------------------------------

    Molecular point group: c1
  Charge       = 0
  Multiplicity = 1
  Basis Set: 6-31G*
  Basis Set:
  @DF-RHF Final Energy:  -418.28551658545319
    Total Energy =                       -418.2855165854533652
    Molecular point group: c1
  Basis Set: 6-31G*
  Basis Set:
  Basis Set: 6-31G*
  Basis Set:
  @DF-RHF Final Energy:  -418.28726164556298
    Total Energy =                       -418.2872616455632624
  Basis Set: 6-31G*
  Basis Set:
  Basis Set: 6-31G*
  Basis Set:
  @DF-RHF Final Energy:  -418.28735787521794
    Total Energy =                       -418.2873578752178219
  Basis Set: 6-31G*
  Basis Set:
  Basis Set: 6-31G*
  Basis Set:
  @DF-RHF Final Energy:  -418.28617907198088
    Total Energy =                       -418.2861790719809960
  Basis Set: 6-31G*
  Basis Set:
  Basis Set: 6-31G*
  Basis Set:
  @DF-RHF Final Energy:  -418.28740960310972
    Total Energy =                       -418.2874096031099498
  Basis Set: 6-31G*
  Basis Set:
  Charge       = 0
  Multiplicity = 1
  Basis Set: 6-31G*
  Basis Set:

    Orbital Energies (a.u.)
    -----------------------

    Doubly Occupied:

       1A    -20.603967     2A    -20.557726     3A    -11.329272
       4A    -11.319592     5A    -11.262331     6A    -11.253476
       7A    -11.244922     8A    -11.241223     9A    -11.238712
      10A     -1.423492    11A     -1.398889    12A     -1.170643
      13A     -1.042306    14A     -1.036884    15A     -0.891467
      16A     -0.857111    17A     -0.801081    18A     -0.754661
      19A     -0.697726    20A     -0.682149    21A     -0.641383
      22A     -0.626010    23A     -0.617717    24A     -0.607306
      25A     -0.565861    26A     -0.553687    27A     -0.547461
      28A     -0.503812    29A     -0.483677    30A     -0.419794
      31A     -0.356237    32A     -0.332035

  @DF-RHF Final Energy:  -418.28741286573774

   => Energetics <=

    Nuclear Repulsion Energy =            401.1170871696078279
    One-Electron Energy =               -1364.6837795036544776
    Two-Electron Energy =                 545.2792794683092552
    DFT Exchange-Correlation Energy =       0.0000000000000000
    Empirical Dispersion Energy =           0.0000000000000000
    PCM Polarization Energy =               0.0000000000000000
    EFP Energy =                            0.0000000000000000
    Total Energy =                       -418.2874128657373376
    Molecular point group: c1
  Basis Set: 6-31G*
  Basis Set:

  -Total Gradient:
     Atom            X                  Y                   Z
    ------   -----------------  -----------------  -----------------
       1        0.000052433240    -0.000132572317     0.003414466255
       2       -0.000110883615     0.001076169362    -0.005330075430
       3        0.000205022257    -0.002502862126     0.003977289085
       4       -0.000314354917    -0.000119125072    -0.000069474435
       5        0.000173676318     0.001672501285    -0.002003255085
       6        0.000008030725    -0.000011410927    -0.000008381141
       7        0.000373916792    -0.000125768559    -0.000166654053
       8       -0.000007106007    -0.000012363490    -0.000006562369
       9       -0.000314263431    -0.000183732181    -0.000060627534
      10       -0.000016333257     0.000010969829     0.000015259067
      11       -0.000022479206     0.000320200119     0.000293371937
      12        0.000000302181     0.000022954658    -0.000005742860
      13        0.000028311749     0.000023451251    -0.000102980818
      14       -0.000038204768    -0.000011358392     0.000037090708
      15       -0.000018068068    -0.000027053441     0.000016276672

  **** Optimization is complete! (in 6 steps) ****
    Final optimized geometry and variables:
    Molecular point group: c1

    Geometry (in Angstrom), charge = 0, multiplicity = 1:

    H           -3.469174992358    -1.035784089914    -0.009580248042
    O           -3.120756495112    -0.154804782973     0.008702053457
    C           -1.767972238045    -0.168054640213    -0.022998190070
    C           -1.094495463203     0.791041431071     0.726645179046
    C           -1.066995797337    -1.056216395744    -0.824992120267
    H           -1.665222032927     1.472445864681     1.328867013629
    C            0.280839538317     0.845092609212     0.682946371291
    H           -1.598840589753    -1.775773518537    -1.422162233619
    C            0.314984691229    -0.999544062661    -0.851122120480
    H            0.816880507402     1.576544665690     1.258020911914
    C            1.000954340961    -0.053567772938    -0.103163145353
    H            0.860138866582    -1.692152539712    -1.469172083474
    C            2.477031611837    -0.000331489805    -0.145316865700
    O            3.145299882146     0.774737706478     0.464845229745
    H            2.947985643589    -0.744878782578    -0.795627942477

  Mulliken Charges: (a.u.)
   Center  Symbol    Alpha    Beta     Spin     Total
       1     H     0.26944  0.26944  0.00000  0.46113
       2     O     4.37706  4.37706  0.00000 -0.75412
       3     C     2.79501  2.79501  0.00000  0.40998
       4     C     3.12387  3.12387  0.00000 -0.24775
       5     C     3.13930  3.13930  0.00000 -0.27861
       6     H     0.38578  0.38578  0.00000  0.22845
       7     C     3.08123  3.08123  0.00000 -0.16245
       8     H     0.39586  0.39586  0.00000  0.20829
       9     C     3.09446  3.09446  0.00000 -0.18891
      10     H     0.37476  0.37476  0.00000  0.25048
      11     C     3.06490  3.06490  0.00000 -0.12980
      12     H     0.39001  0.39001  0.00000  0.21999
      13     C     2.83076  2.83076  0.00000  0.33849
      14     O     4.25278  4.25278  0.00000 -0.50557
      15     H     0.42480  0.42480  0.00000  0.15041

   Total alpha = 32.00000, Total beta = 32.00000, Total charge =  0.00000
