                              Psi4 1.0.54 Driver

  ==> Input File <==

--------------------------------------------------------------------------
set {
	reference rhf
	basis cc-pvtz
}

set_num_threads( 4 )
memory 2 gb

molecule MOL {
0 1

O	 -2.081319	 -0.951530	 -0.502732
N	 -1.613558	 0.006676	 0.014756
C	 -0.329345	 -0.171618	 0.743966
O	 -2.068523	 1.100482	 -0.024385
C	 0.835904	 0.041968	 -0.213982
H	 -0.346048	 -1.174374	 1.137184
H	 -0.333613	 0.555559	 1.538590
C	 2.177039	 -0.130175	 0.494460
H	 0.754456	 -0.665923	 -1.030569
H	 0.765464	 1.037260	 -0.637266
C	 3.270294	 0.744658	 -0.108815
H	 2.479799	 -1.172010	 0.445957
H	 2.062369	 0.109399	 1.547485
H	 3.430803	 0.504374	 -1.153898
H	 3.009174	 1.795188	 -0.046202
H	 4.209610	 0.604571	 0.411977

	symmetry c1
}
set optking {
	frozen_dihedral = ("
		11 8 5 9
	")
}

ee,wfn = optimize('scf', return_wfn=True)
oeprop( wfn, 'DIPOLE', 'QUADRUPOLE', 'MULLIKEN_CHARGES')
f=open( 'psi4out.xyz', 'w' )
f.write( "16  " )
f.write( str(ee) + "\n" )
f.write( MOL.save_string_xyz() )
f.close()
--------------------------------------------------------------------------

    Molecular point group: c1
  Charge       = 0
  Multiplicity = 1
  Basis Set: CC-PVTZ
  Basis Set:
  @DF-RHF Final Energy:  -360.90656917504373
    Total Energy =                       -360.9065691750440692
    Molecular point group: c1
  Basis Set: CC-PVTZ
  Basis Set:
  Basis Set: CC-PVTZ
  Basis Set:
  @DF-RHF Final Energy:  -360.90682961044547
    Total Energy =                       -360.9068296104454703
  Basis Set: CC-PVTZ
  Basis Set:
  Basis Set: CC-PVTZ
  Basis Set:
  @DF-RHF Final Energy:  -360.90685575407235
    Total Energy =                       -360.9068557540720121
  Basis Set: CC-PVTZ
  Basis Set:
  Basis Set: CC-PVTZ
  Basis Set:
  @DF-RHF Final Energy:  -360.90643763881201
    Total Energy =                       -360.9064376388116671
  Basis Set: CC-PVTZ
  Basis Set:
  Basis Set: CC-PVTZ
  Basis Set:
  @DF-RHF Final Energy:  -360.90687169571055
    Total Energy =                       -360.9068716957104925
  Basis Set: CC-PVTZ
  Basis Set:
  Charge       = 0
  Multiplicity = 1
  Basis Set: CC-PVTZ
  Basis Set:

    Orbital Energies (a.u.)
    -----------------------

    Doubly Occupied:

       1A    -20.589710     2A    -20.589510     3A    -15.835934
       4A    -11.296210     5A    -11.250828     6A    -11.242077
       7A    -11.226171     8A     -1.635001     9A     -1.419415
      10A     -1.136075    11A     -1.059106    12A     -0.948854
      13A     -0.843724    14A     -0.829442    15A     -0.758205
      16A     -0.737696    17A     -0.727605    18A     -0.676474
      19A     -0.619302    20A     -0.607283    21A     -0.564876
      22A     -0.545837    23A     -0.516336    24A     -0.504687
      25A     -0.494547    26A     -0.486009    27A     -0.469180
      28A     -0.452097

  @DF-RHF Final Energy:  -360.90687242836043

   => Energetics <=

    Nuclear Repulsion Energy =            313.0413841091354925
    One-Electron Energy =               -1111.7721321208896370
    Two-Electron Energy =                 437.8238755833937148
    DFT Exchange-Correlation Energy =       0.0000000000000000
    Empirical Dispersion Energy =           0.0000000000000000
    PCM Polarization Energy =               0.0000000000000000
    EFP Energy =                            0.0000000000000000
    Total Energy =                       -360.9068724283604297
    Molecular point group: c1
  Basis Set: CC-PVTZ
  Basis Set:

  -Total Gradient:
     Atom            X                  Y                   Z
    ------   -----------------  -----------------  -----------------
       1        0.000081157200    -0.000144034246     0.000041082864
       2       -0.000102469991     0.000040978848    -0.000132794574
       3       -0.000024840933     0.000002900711    -0.000024714404
       4        0.000067506017     0.000117119303     0.000103455948
       5        0.001892001149     0.004295644565    -0.002448608054
       6       -0.000010217542    -0.000006676830     0.000003364138
       7       -0.000005507976     0.000000522699     0.000001200955
       8        0.000484749430    -0.003646497959    -0.002036848159
       9       -0.001778799508    -0.002788019506     0.002567137476
      10        0.000006847601    -0.000028736782    -0.000029189851
      11       -0.000655159828     0.002174122863     0.001949875960
      12        0.000030657735     0.000023969024    -0.000035918477
      13        0.000023145831    -0.000027765191     0.000032036074
      14       -0.000001536440    -0.000000302090     0.000003887452
      15       -0.000017280756    -0.000017915858     0.000010305329
      16        0.000009748006     0.000004690451    -0.000004272676

  **** Optimization is complete! (in 6 steps) ****
    Final optimized geometry and variables:
    Molecular point group: c1

    Geometry (in Angstrom), charge = 0, multiplicity = 1:

    O           -2.032009496219    -1.101793238404    -0.547633572095
    N           -1.604216960700    -0.124356789648    -0.031072030078
    C           -0.312020164593    -0.247236532671     0.695492798464
    O           -2.105016359728     0.949371042492    -0.068945246640
    C            0.843417776836     0.013323298047    -0.265634026310
    H           -0.285174643119    -1.249556465905     1.090000963260
    H           -0.345015704951     0.480049758727     1.489172991135
    C            2.193528757840    -0.186785640576     0.435142493416
    H            0.744473186428    -0.681374854448    -1.090627045275
    H            0.756202242665     1.020023988935    -0.653657559593
    C            3.301686341492     0.677183917249    -0.157529399452
    H            2.471143424740    -1.233989894574     0.395054980547
    H            2.095307797816     0.061229687952     1.488381367720
    H            3.438265451426     0.474342977891    -1.214377882549
    H            3.067924564409     1.730168170388    -0.050017281514
    H            4.246183438823     0.492090828242     0.339602120876

  Mulliken Charges: (a.u.)
   Center  Symbol    Alpha    Beta     Spin     Total
       1     O     4.17411  4.17411  0.00000 -0.34821
       2     N     3.27620  3.27620  0.00000  0.44760
       3     C     3.04064  3.04064  0.00000 -0.08128
       4     O     4.17417  4.17417  0.00000 -0.34834
       5     C     3.10211  3.10211  0.00000 -0.20421
       6     H     0.43382  0.43382  0.00000  0.13235
       7     H     0.43434  0.43434  0.00000  0.13133
       8     C     3.09365  3.09365  0.00000 -0.18730
       9     H     0.43640  0.43640  0.00000  0.12719
      10     H     0.43798  0.43798  0.00000  0.12404
      11     C     3.14705  3.14705  0.00000 -0.29411
      12     H     0.44608  0.44608  0.00000  0.10784
      13     H     0.45417  0.45417  0.00000  0.09167
      14     H     0.45104  0.45104  0.00000  0.09793
      15     H     0.45225  0.45225  0.00000  0.09550
      16     H     0.44600  0.44600  0.00000  0.10801

   Total alpha = 28.00000, Total beta = 28.00000, Total charge =  0.00000

*** Psi4 exiting successfully. Buy a developer a beer!
