  ==> Input File <==

--------------------------------------------------------------------------
set {
	reference rhf
	basis 6-31G*
}

set_num_threads( 4 )
memory 2 gb

molecule MOL {
0 1

H	 -1.836216	 1.387520	 -0.000064
C	 -1.301823	 0.443321	 -0.000031
O	 -0.003969	 0.658512	 0.000451
O	 -1.829879	 -0.616434	 -0.000857
C	 0.850537	 -0.484732	 0.000380
C	 2.136234	 -0.090486	 -0.693791
H	 0.349322	 -1.294505	 -0.511841
H	 1.023395	 -0.791367	 1.022823
H	 1.942893	 0.221294	 -1.713813
H	 2.816604	 -0.935380	 -0.715806
H	 2.620357	 0.726872	 -0.171836

	symmetry c1
}
set optking {
	frozen_dihedral = ("
		7 5 3 2
	")
}

ee = optimize('scf')
oeprop('DIPOLE', 'QUADRUPOLE', 'MULLIKEN_CHARGES')
f=open( 'psi4out.xyz', 'w' )
f.write( "11  " )
f.write( str(ee) + "\n" )
f.write( MOL.save_string_xyz() )
f.close()
--------------------------------------------------------------------------

    Molecular point group: c1
  Charge       = 0
  Multiplicity = 1
  Basis Set: 6-31G*
  Basis Set:
  @DF-RHF Final Energy:  -266.82772239873026
    Total Energy =                       -266.8277223987303159
    Molecular point group: c1
  Basis Set: 6-31G*
  Basis Set:
  Basis Set: 6-31G*
  Basis Set:
  @DF-RHF Final Energy:  -266.82782177486177
    Total Energy =                       -266.8278217748618317
  Basis Set: 6-31G*
  Basis Set:
  Basis Set: 6-31G*
  Basis Set:
  @DF-RHF Final Energy:  -266.82711248440523
    Total Energy =                       -266.8271124844051201
  Basis Set: 6-31G*
  Basis Set:
  Basis Set: 6-31G*
  Basis Set:
  @DF-RHF Final Energy:  -266.82790288117087
    Total Energy =                       -266.8279028811710418
  Basis Set: 6-31G*
  Basis Set:
  Basis Set: 6-31G*
  Basis Set:
  @DF-RHF Final Energy:  -266.82796815173333
    Total Energy =                       -266.8279681517332165
  Basis Set: 6-31G*
  Basis Set:
  Charge       = 0
  Multiplicity = 1
  Basis Set: 6-31G*
  Basis Set:

    Orbital Energies (a.u.)
    -----------------------

    Doubly Occupied:

       1A    -20.612618     2A    -20.556550     3A    -11.378932
       4A    -11.291323     5A    -11.226998     6A     -1.475024
       7A     -1.374123     8A     -1.052784     9A     -0.904282
      10A     -0.804135    11A     -0.740249    12A     -0.686673
      13A     -0.675931    14A     -0.596016    15A     -0.573497
      16A     -0.557125    17A     -0.525223    18A     -0.508833
      19A     -0.459420    20A     -0.452812

  @DF-RHF Final Energy:  -266.82796872761173

   => Energetics <=

    Nuclear Repulsion Energy =            179.1965507413250123
    One-Electron Energy =                -719.1439454415117325
    Two-Electron Energy =                 273.1194259725750726
    DFT Exchange-Correlation Energy =       0.0000000000000000
    Empirical Dispersion Energy =           0.0000000000000000
    PCM Polarization Energy =               0.0000000000000000
    EFP Energy =                            0.0000000000000000
    Total Energy =                       -266.8279687276116192
    Molecular point group: c1
  Basis Set: 6-31G*
  Basis Set:

  -Total Gradient:
     Atom            X                  Y                   Z
    ------   -----------------  -----------------  -----------------
       1        0.000019407832    -0.000018950204    -0.000001603618
       2        0.000014225523    -0.000054589820    -0.001388715502
       3       -0.000121440557     0.000030295827     0.002317094318
       4       -0.000091214740    -0.000000177888    -0.000012980600
       5        0.000773043639     0.000605615332    -0.002293174876
       6       -0.000022179981     0.000000433431     0.000013721950
       7       -0.000595529160    -0.000508846037     0.001388694336
       8        0.000042063464    -0.000047475260    -0.000023153053
       9       -0.000007741022    -0.000001036536     0.000001574067
      10       -0.000006798945    -0.000000662849    -0.000000425398
      11       -0.000003836052    -0.000004605994    -0.000001031624

  **** Optimization is complete! (in 6 steps) ****
    Final optimized geometry and variables:
    Molecular point group: c1

    Geometry (in Angstrom), charge = 0, multiplicity = 1:

    H           -1.790994324726     1.422519491810     0.125132172328
    C           -1.275029243317     0.468442177758     0.144948351374
    O            0.026234350748     0.665089308177     0.133640103517
    O           -1.826429920010    -0.578923268921     0.173512235931
    C            0.889357467777    -0.472956822623     0.115028808170
    C            2.181747338378    -0.064839136933    -0.559049407992
    H            0.396559501328    -1.285049658252    -0.396428108102
    H            1.058257567009    -0.778920275786     1.139883287039
    H            2.001313253685     0.236002457337    -1.584764715306
    H            2.874975680878    -0.899690448828    -0.562307285141
    H            2.644734346068     0.763404460010    -0.035243846501

  Mulliken Charges: (a.u.)
   Center  Symbol    Alpha    Beta     Spin     Total
       1     H     0.41130  0.41130  0.00000  0.17740
       2     C     2.72721  2.72721  0.00000  0.54557
       3     O     4.29178  4.29178  0.00000 -0.58356
       4     O     4.26317  4.26317  0.00000 -0.52634
       5     C     3.01010  3.01010  0.00000 -0.02020
       6     C     3.24830  3.24830  0.00000 -0.49660
       7     H     0.39950  0.39950  0.00000  0.20100
       8     H     0.41193  0.41193  0.00000  0.17615
       9     H     0.41135  0.41135  0.00000  0.17730
      10     H     0.41534  0.41534  0.00000  0.16931
      11     H     0.41002  0.41002  0.00000  0.17996

   Total alpha = 20.00000, Total beta = 20.00000, Total charge = -0.00000
