  ==> Input File <==

--------------------------------------------------------------------------
set {
	reference rhf
	basis 6-31G*
}

set_num_threads( 4 )
memory 2 gb

molecule MOL {
0 1

H	 2.742726	 -0.067585	 0.909201
N	 2.332695	 -0.069570	 0.000000
C	 0.936681	 -0.007078	 0.000000
H	 2.772928	 0.607088	 -0.585753
C	 0.227108	 -0.002120	 -1.198267
C	 0.227108	 -0.002120	 1.198267
H	 0.761569	 -0.014657	 -2.132680
C	 -1.156334	 0.010459	 -1.192360
H	 0.761569	 -0.014657	 2.132680
C	 -1.156334	 0.010459	 1.192360
H	 -1.684791	 0.014915	 -2.129421
C	 -1.862085	 0.017996	 0.000000
H	 -1.684791	 0.014915	 2.129421
H	 -2.936703	 0.028387	 0.000000

	symmetry c1
}
set optking {
	frozen_dihedral = ("
		1 2 3 5
	")
}

ee = optimize('scf')
oeprop('DIPOLE', 'QUADRUPOLE', 'MULLIKEN_CHARGES')
f=open( 'psi4out.xyz', 'w' )
f.write( "14  " )
f.write( str(ee) + "\n" )
f.write( MOL.save_string_xyz() )
f.close()
--------------------------------------------------------------------------

    Molecular point group: c1
  Charge       = 0
  Multiplicity = 1
  Basis Set: 6-31G*
  Basis Set:
  @DF-RHF Final Energy:  -285.72913588070014
    Total Energy =                       -285.7291358806999142
    Molecular point group: c1
  Basis Set: 6-31G*
  Basis Set:
  Basis Set: 6-31G*
  Basis Set:
  @DF-RHF Final Energy:  -285.72928731455215
    Total Energy =                       -285.7292873145524368
  Basis Set: 6-31G*
  Basis Set:
  Basis Set: 6-31G*
  Basis Set:
  @DF-RHF Final Energy:  -285.72931670056983
    Total Energy =                       -285.7293167005697114
  Basis Set: 6-31G*
  Basis Set:
  Basis Set: 6-31G*
  Basis Set:
  @DF-RHF Final Energy:  -285.72931933246332
    Total Energy =                       -285.7293193324628646
  Basis Set: 6-31G*
  Basis Set:
  Charge       = 0
  Multiplicity = 1
  Basis Set: 6-31G*
  Basis Set:

    Orbital Energies (a.u.)
    -----------------------

    Doubly Occupied:

       1A    -15.557735     2A    -11.269024     3A    -11.228236
       4A    -11.227809     5A    -11.218430     6A    -11.216762
       7A    -11.214649     8A     -1.218727     9A     -1.124887
      10A     -1.008985    11A     -0.983609    12A     -0.827742
      13A     -0.808575    14A     -0.702643    15A     -0.682002
      16A     -0.650891    17A     -0.599494    18A     -0.591145
      19A     -0.578854    20A     -0.520856    21A     -0.502185
      22A     -0.484983    23A     -0.437623    24A     -0.330390
      25A     -0.292266

  @DF-RHF Final Energy:  -285.72931996627631

   => Energetics <=

    Nuclear Repulsion Energy =            272.9720406690848904
    One-Electron Energy =                -926.8457166717954578
    Two-Electron Energy =                 368.1443560364346013
    DFT Exchange-Correlation Energy =       0.0000000000000000
    Empirical Dispersion Energy =           0.0000000000000000
    PCM Polarization Energy =               0.0000000000000000
    EFP Energy =                            0.0000000000000000
    Total Energy =                       -285.7293199662759662
    Molecular point group: c1
  Basis Set: 6-31G*
  Basis Set:

  -Total Gradient:
     Atom            X                  Y                   Z
    ------   -----------------  -----------------  -----------------
       1       -0.000154369301    -0.002949198953     0.000068997552
       2        0.000225732472     0.002706303045    -0.000084427127
       3        0.000007000323     0.002470450044    -0.000059492748
       4       -0.000032310370     0.000000477973     0.000017770371
       5       -0.000069815669    -0.002233263151     0.000046094273
       6        0.000063336540     0.000001260161     0.000000282946
       7        0.000015975263    -0.000001218509     0.000004383028
       8       -0.000021454938     0.000018539450    -0.000003195006
       9       -0.000008948726    -0.000008608851    -0.000008767623
      10       -0.000028480421     0.000009882210    -0.000004533993
      11        0.000002213728    -0.000002761390     0.000011966907
      12        0.000022530631    -0.000011675745     0.000002243725
      13       -0.000014878572     0.000002672654    -0.000009276972
      14       -0.000006530957    -0.000002858939     0.000017954665

  **** Optimization is complete! (in 5 steps) ****
    Final optimized geometry and variables:
    Molecular point group: c1

    Geometry (in Angstrom), charge = 0, multiplicity = 1:

    H            2.756838427838    -0.058846940102     0.891849967698
    N            2.334436894042    -0.065982776691    -0.011116619975
    C            0.935473496403     0.001082915024     0.005018489968
    H            2.778045019184     0.581507415649    -0.626493888730
    C            0.230546269243    -0.001644495733    -1.197217006678
    C            0.222584198549    -0.002314620649     1.198625835406
    H            0.773463945319    -0.028311638936    -2.125803088631
    C           -1.151099540570     0.019778477318    -1.197538407501
    H            0.752225501201    -0.005965308864     2.136088445017
    C           -1.163190998652    -0.001417725782     1.188561108849
    H           -1.677230157224     0.024485206938    -2.135942596179
    C           -1.861522395610     0.016893645682    -0.005691764065
    H           -1.695677696977    -0.006242795503     2.123375202487
    H           -2.936329205446     0.024640240651    -0.010482795810

  Mulliken Charges: (a.u.)
   Center  Symbol    Alpha    Beta     Spin     Total
       1     H     0.32027  0.32027  0.00000  0.35946
       2     N     3.94902  3.94902  0.00000 -0.89804
       3     C     2.85578  2.85578  0.00000  0.28844
       4     H     0.31935  0.31935  0.00000  0.36129
       5     C     3.11990  3.11990  0.00000 -0.23979
       6     C     3.12815  3.12815  0.00000 -0.25630
       7     H     0.40132  0.40132  0.00000  0.19737
       8     C     3.09161  3.09161  0.00000 -0.18323
       9     H     0.40542  0.40542  0.00000  0.18916
      10     C     3.09082  3.09082  0.00000 -0.18164
      11     H     0.40079  0.40079  0.00000  0.19843
      12     C     3.11404  3.11404  0.00000 -0.22808
      13     H     0.40092  0.40092  0.00000  0.19816
      14     H     0.40261  0.40261  0.00000  0.19478

   Total alpha = 25.00000, Total beta = 25.00000, Total charge = -0.00000
