  ==> Input File <==

--------------------------------------------------------------------------
set {
	reference rhf
	basis 6-31G*
}

set_num_threads( 1 )
memory 2 gb

molecule MOL {
0 1

O	 1.846825	 1.296220	 0.000415
C	 1.705091	 0.115954	 0.001797
C	 0.381791	 -0.609817	 0.001258
O	 2.721346	 -0.737485	 -0.000216
C	 -0.823008	 0.326187	 0.001381
H	 0.371250	 -1.265087	 -0.865474
H	 0.370908	 -1.265746	 0.867490
C	 -2.143553	 -0.427516	 -0.163399
H	 -0.711043	 1.053233	 -0.796777
H	 -0.834925	 0.893649	 0.926667
C	 -3.362740	 0.496299	 -0.166334
H	 -2.123951	 -0.997382	 -1.091227
H	 -2.248830	 -1.156660	 0.638566
C	 -4.681975	 -0.257461	 -0.329784
H	 -3.260336	 1.223696	 -0.968549
H	 -3.384199	 1.065607	 0.760254
H	 -4.705058	 -0.809773	 -1.265002
H	 -5.526859	 0.424168	 -0.327762
H	 -4.829683	 -0.969500	 0.477367
C	 4.024888	 -0.184556	 -0.001949
H	 4.179030	 0.422472	 -0.882452
H	 4.701782	 -1.024608	 -0.003642
H	 4.181981	 0.421185	 0.878906

	symmetry c1
}
set optking {
	frozen_dihedral = ("
		15 11 8 12,
		9 5 8 12,
		1 2 3 6,
		1 2 4 20
	")
}

ee = energy('scf')
oeprop('DIPOLE', 'QUADRUPOLE', 'MULLIKEN_CHARGES')
f=open( 'psi4out.xyz', 'w' )
f.write( "23  " )
f.write( str(ee) + "\n" )
f.write( MOL.save_string_xyz() )
f.close()
--------------------------------------------------------------------------

    Molecular point group: c1

    Geometry (in Angstrom), charge = 0, multiplicity = 1:

       Center              X                  Y                   Z               Mass
    ------------   -----------------  -----------------  -----------------  -----------------
           O          1.844170423979     1.292793988900     0.073787648907    15.994914619560
           C          1.702436423979     0.112527988900     0.075169648907    12.000000000000
           C          0.379136423979    -0.613243011100     0.074630648907    12.000000000000
           O          2.718691423979    -0.740911011100     0.073156648907    15.994914619560
           C         -0.825662576021     0.322760988900     0.074753648907    12.000000000000
           H          0.368595423979    -1.268513011100    -0.792101351093     1.007825032070
           H          0.368253423979    -1.269172011100     0.940862648907     1.007825032070
           C         -2.146207576021    -0.430942011100    -0.090026351093    12.000000000000
           H         -0.713697576021     1.049806988900    -0.723404351093     1.007825032070
           H         -0.837579576021     0.890222988900     1.000039648907     1.007825032070
           C         -3.365394576021     0.492872988900    -0.092961351093    12.000000000000
           H         -2.126605576021    -1.000808011100    -1.017854351093     1.007825032070
           H         -2.251484576021    -1.160086011100     0.711938648907     1.007825032070
           C         -4.684629576021    -0.260887011100    -0.256411351093    12.000000000000
           H         -3.262990576021     1.220269988900    -0.895176351093     1.007825032070
           H         -3.386853576021     1.062180988900     0.833626648907     1.007825032070
           H         -4.707712576021    -0.813199011100    -1.191629351093     1.007825032070
           H         -5.529513576021     0.420741988900    -0.254389351093     1.007825032070
           H         -4.832337576021    -0.972926011100     0.550739648907     1.007825032070
           C          4.022233423979    -0.187982011100     0.071423648907    12.000000000000
           H          4.176375423979     0.419045988900    -0.809079351093     1.007825032070
           H          4.699127423979    -1.028034011100     0.069730648907     1.007825032070
           H          4.179326423979     0.417758988900     0.952278648907     1.007825032070

  Charge       = 0
  Multiplicity = 1
  Basis Set: 6-31G*
  Basis Set:

    Orbital Energies (a.u.)
    -----------------------

    Doubly Occupied:

       1A    -20.603650     2A    -20.545446     3A    -11.372281
       4A    -11.280864     5A    -11.235506     6A    -11.219146
       7A    -11.217841     8A    -11.216427     9A    -11.209624
      10A     -1.469347    11A     -1.362791    12A     -1.093184
      13A     -1.043640    14A     -0.987041    15A     -0.932084
      16A     -0.843544    17A     -0.795075    18A     -0.767273
      19A     -0.697012    20A     -0.683789    21A     -0.671531
      22A     -0.651638    23A     -0.609332    24A     -0.599428
      25A     -0.572696    26A     -0.558024    27A     -0.557238
      28A     -0.523850    29A     -0.521271    30A     -0.507519
      31A     -0.484386    32A     -0.469748    33A     -0.466167
      34A     -0.461211    35A     -0.455651    36A     -0.435543

  @DF-RHF Final Energy:  -422.97616120193447

   => Energetics <=

    Nuclear Repulsion Energy =            452.1728003620925165
    One-Electron Energy =               -1472.0562911142576468
    Two-Electron Energy =                 596.9073295502322480
    DFT Exchange-Correlation Energy =       0.0000000000000000
    Empirical Dispersion Energy =           0.0000000000000000
    PCM Polarization Energy =               0.0000000000000000
    EFP Energy =                            0.0000000000000000
    Total Energy =                       -422.9761612019328822

  Mulliken Charges: (a.u.)
   Center  Symbol    Alpha    Beta     Spin     Total
       1     O     4.28603  4.28603  0.00000 -0.57206
       2     C     2.60509  2.60509  0.00000  0.78982
       3     C     3.20830  3.20830  0.00000 -0.41659
       4     O     4.30735  4.30735  0.00000 -0.61469
       5     C     3.15268  3.15268  0.00000 -0.30536
       6     H     0.40070  0.40070  0.00000  0.19859
       7     H     0.40041  0.40041  0.00000  0.19919
       8     C     3.15343  3.15343  0.00000 -0.30685
       9     H     0.40968  0.40968  0.00000  0.18064
      10     H     0.41337  0.41337  0.00000  0.17326
      11     C     3.15157  3.15157  0.00000 -0.30315
      12     H     0.42385  0.42385  0.00000  0.15230
      13     H     0.42417  0.42417  0.00000  0.15167
      14     C     3.23958  3.23958  0.00000 -0.47915
      15     H     0.42115  0.42115  0.00000  0.15770
      16     H     0.42151  0.42151  0.00000  0.15697
      17     H     0.42179  0.42179  0.00000  0.15641
      18     H     0.41848  0.41848  0.00000  0.16303
      19     H     0.42185  0.42185  0.00000  0.15630
      20     C     3.09244  3.09244  0.00000 -0.18488
      21     H     0.40906  0.40906  0.00000  0.18188
      22     H     0.40842  0.40842  0.00000  0.18315
      23     H     0.40909  0.40909  0.00000  0.18183

   Total alpha = 36.00000, Total beta = 36.00000, Total charge = -0.00000
