  ==> Input File <==

--------------------------------------------------------------------------
set {
	reference rhf
	basis 6-31G*
}

set_num_threads( 4 )
memory 2 gb

molecule MOL {
0 1

O	 2.862325	 1.357334	 0.000267
C	 2.843464	 0.164689	 -0.000222
C	 1.546494	 -0.624492	 -0.000609
C	 4.124123	 -0.644674	 -0.000428
C	 0.291004	 0.242674	 0.000989
H	 1.557904	 -1.283758	 -0.867573
H	 1.558622	 -1.285963	 0.864672
C	 0.580746	 1.693075	 0.391053
H	 -0.435989	 -0.185196	 0.684025
H	 -0.165770	 0.209159	 -0.983075
C	 -0.671272	 2.571791	 0.397359
H	 1.041845	 1.719084	 1.377338
H	 1.311679	 2.115506	 -0.296956
C	 -0.389653	 4.024069	 0.786708
H	 -1.402375	 2.150838	 1.085331
H	 -1.132570	 2.547241	 -0.588338
C	 -1.645170	 4.895472	 0.790959
H	 0.070388	 4.049971	 1.772362
H	 0.339912	 4.446416	 0.098800
H	 -2.381666	 4.518308	 1.494856
H	 -1.413574	 5.918470	 1.071211
H	 -2.109602	 4.918517	 -0.190833
H	 4.165367	 -1.288615	 -0.874074
H	 4.976217	 0.020734	 -0.001915
H	 4.166763	 -1.286207	 0.874930

	symmetry c1
}
set optking {
	frozen_dihedral = ("
		9 5 3 6
	")
}

ee = optimize('scf')
oeprop('DIPOLE', 'QUADRUPOLE', 'MULLIKEN_CHARGES')
f=open( 'psi4out.xyz', 'w' )
f.write( "25  " )
f.write( str(ee) + "\n" )
f.write( MOL.save_string_xyz() )
f.close()
--------------------------------------------------------------------------

    Molecular point group: c1
  Charge       = 0
  Multiplicity = 1
  Basis Set: 6-31G*
  Basis Set:
  @DF-RHF Final Energy:  -387.09571578311972
    Total Energy =                       -387.0957157831198856
    Molecular point group: c1
  Basis Set: 6-31G*
  Basis Set:
  Basis Set: 6-31G*
  Basis Set:
  @DF-RHF Final Energy:  -387.11792397467855
    Total Energy =                       -387.1179239746786607
  Basis Set: 6-31G*
  Basis Set:
  Basis Set: 6-31G*
  Basis Set:
  @DF-RHF Final Energy:  -387.12246656318132
    Total Energy =                       -387.1224665631808648
  Basis Set: 6-31G*
  Basis Set:
  Basis Set: 6-31G*
  Basis Set:
  @DF-RHF Final Energy:  -387.12155469669341
    Total Energy =                       -387.1215546966930106
  Basis Set: 6-31G*
  Basis Set:
  @DF-RHF Final Energy:  -387.12406085083245
    Total Energy =                       -387.1240608508328478
  @DF-RHF Final Energy:  -387.12520688582970
    Total Energy =                       -387.1252068858300390
  @DF-RHF Final Energy:  -387.12620638616886
    Total Energy =                       -387.1262063861690876
  @DF-RHF Final Energy:  -387.12666790497673
    Total Energy =                       -387.1266679049772392
  @DF-RHF Final Energy:  -387.12691821665805
    Total Energy =                       -387.1269182166588507
  @DF-RHF Final Energy:  -387.12700986802008
    Total Energy =                       -387.1270098680205365
  @DF-RHF Final Energy:  -387.12702518461060
    Total Energy =                       -387.1270251846107158
  @DF-RHF Final Energy:  -387.12706647621002
    Total Energy =                       -387.1270664762103024
  @DF-RHF Final Energy:  -387.12708486958837
    Total Energy =                       -387.1270848695885434
  @DF-RHF Final Energy:  -387.12709471409244
    Total Energy =                       -387.1270947140926637
  @DF-RHF Final Energy:  -387.12710206953238
    Total Energy =                       -387.1271020695313609
  @DF-RHF Final Energy:  -387.12710761086993
    Total Energy =                       -387.1271076108699845
  Basis Set: 6-31G*
  Basis Set:
  @DF-RHF Final Energy:  -387.12711247056836
    Total Energy =                       -387.1271124705691591
  Basis Set: 6-31G*
  Basis Set:
  Basis Set: 6-31G*
  Basis Set:
  @DF-RHF Final Energy:  -387.12711601475013
    Total Energy =                       -387.1271160147501860
  Basis Set: 6-31G*
  Basis Set:
  Basis Set: 6-31G*
  Basis Set:
  @DF-RHF Final Energy:  -387.12711920207880
    Total Energy =                       -387.1271192020794842
  Basis Set: 6-31G*
  Basis Set:
  Charge       = 0
  Multiplicity = 1
  Basis Set: 6-31G*
  Basis Set:

    Orbital Energies (a.u.)
    -----------------------

    Doubly Occupied:

       1A    -20.546593     2A    -11.325392     3A    -11.230498
       4A    -11.228109     5A    -11.227052     6A    -11.214951
       7A    -11.214601     8A    -11.213930     9A    -11.208011
      10A     -1.393298    11A     -1.092531    12A     -1.054018
      13A     -1.011728    14A     -0.969450    15A     -0.892209
      16A     -0.819161    17A     -0.792149    18A     -0.722935
      19A     -0.664857    20A     -0.640634    21A     -0.633984
      22A     -0.616615    23A     -0.602493    24A     -0.584093
      25A     -0.564570    26A     -0.563547    27A     -0.538078
      28A     -0.535782    29A     -0.513524    30A     -0.494642
      31A     -0.482731    32A     -0.473503    33A     -0.464521
      34A     -0.461415    35A     -0.442659    36A     -0.396006

  @DF-RHF Final Energy:  -387.12712009035982

   => Energetics <=

    Nuclear Repulsion Energy =            451.3397567018702716
    One-Electron Energy =               -1419.2732181122451038
    Two-Electron Energy =                 580.8063413200152354
    DFT Exchange-Correlation Energy =       0.0000000000000000
    Empirical Dispersion Energy =           0.0000000000000000
    PCM Polarization Energy =               0.0000000000000000
    EFP Energy =                            0.0000000000000000
    Total Energy =                       -387.1271200903595400
    Molecular point group: c1
  Basis Set: 6-31G*
  Basis Set:

  -Total Gradient:
     Atom            X                  Y                   Z
    ------   -----------------  -----------------  -----------------
       1       -0.000044873682     0.000058160778    -0.000051307080
       2       -0.000006539366    -0.000105405887     0.000003679050
       3       -0.003119295158    -0.003694785059     0.004138246638
       4        0.000023397517    -0.000063794427    -0.000034400505
       5       -0.001961137959    -0.002042879793    -0.005297458064
       6        0.002952759616     0.003614705615    -0.002646385132
       7       -0.000026069568    -0.000130895390    -0.000113842719
       8        0.000046737966     0.000059190703    -0.000009857150
       9        0.002248076946     0.002458218948     0.003893936472
      10       -0.000137038039    -0.000170616979     0.000034772619
      11       -0.000005754276     0.000003519952    -0.000023066707
      12        0.000064833988     0.000009951066     0.000049867456
      13       -0.000042424981    -0.000013404520     0.000004791657
      14        0.000016325534     0.000013097969    -0.000069615063
      15        0.000008476002    -0.000003192156    -0.000004036277
      16       -0.000016275810     0.000012962667     0.000000634518
      17       -0.000007950122    -0.000027735787     0.000041506362
      18       -0.000018281774     0.000000907421    -0.000009309713
      19        0.000020564979    -0.000001831202    -0.000010512137
      20       -0.000024883697     0.000003563493     0.000004402121
      21        0.000006648627    -0.000011199058     0.000002915234
      22        0.000019482182    -0.000003249426    -0.000000148208
      23        0.000002797096     0.000033199795     0.000029474294
      24       -0.000002413451    -0.000005942121     0.000006110008
      25        0.000002837426     0.000007453393     0.000059602328

  **** Optimization is complete! (in 20 steps) ****
    Final optimized geometry and variables:
    Molecular point group: c1

    Geometry (in Angstrom), charge = 0, multiplicity = 1:

    O            2.040374234567    -0.787313239187    -1.514257964270
    C            1.785076623926    -1.487452907021    -0.581736464469
    C            0.416827996320    -2.144490994399    -0.448595695101
    C            2.811730036796    -1.784982422059     0.487870668574
    C           -0.780232816303    -1.160156732250    -0.360566782297
    H            0.324474028237    -2.732268996349    -1.357013381515
    H            0.412681952959    -2.825024015278     0.394960509727
    C           -0.459486969951     0.245880196956     0.163106236546
    H           -1.505528013351    -1.592739411313     0.322386497197
    H           -1.256127170263    -1.076720286033    -1.330662098206
    C           -1.719277010800     1.095218801189     0.343076784332
    H            0.056683509727     0.170631507582     1.120456069263
    H            0.218319531709     0.747924768636    -0.517266962519
    C           -1.424855034512     2.509423410453     0.846547201733
    H           -2.396529029528     0.600890423874     1.037906175076
    H           -2.248692891864     1.156670981029    -0.606374311708
    C           -2.685881841523     3.354402247099     1.023849855828
    H           -0.894235938996     2.450877223921     1.794641675977
    H           -0.752143291474     3.005664943984     0.150807236702
    H           -3.365461981309     2.900359115280     1.739738799078
    H           -2.444894257148     4.350237447536     1.382730319237
    H           -3.220596042629     3.462056041429     0.084365876176
    H            2.998623538163    -2.854243183961     0.538702545431
    H            3.734228065413    -1.265080869427     0.270085633492
    H            2.438596965462    -1.479605617180     1.461579279066

  Mulliken Charges: (a.u.)
   Center  Symbol    Alpha    Beta     Spin     Total
       1     O     4.26437  4.26437  0.00000 -0.52874
       2     C     2.73622  2.73622  0.00000  0.52755
       3     C     3.20717  3.20717  0.00000 -0.41433
       4     C     3.28993  3.28993  0.00000 -0.57986
       5     C     3.14801  3.14801  0.00000 -0.29602
       6     H     0.39954  0.39954  0.00000  0.20093
       7     H     0.41456  0.41456  0.00000  0.17087
       8     C     3.16750  3.16750  0.00000 -0.33501
       9     H     0.41880  0.41880  0.00000  0.16239
      10     H     0.41171  0.41171  0.00000  0.17658
      11     C     3.15132  3.15132  0.00000 -0.30264
      12     H     0.42846  0.42846  0.00000  0.14309
      13     H     0.40247  0.40247  0.00000  0.19505
      14     C     3.15162  3.15162  0.00000 -0.30325
      15     H     0.42547  0.42547  0.00000  0.14905
      16     H     0.42229  0.42229  0.00000  0.15543
      17     C     3.23943  3.23943  0.00000 -0.47886
      18     H     0.42396  0.42396  0.00000  0.15209
      19     H     0.42034  0.42034  0.00000  0.15932
      20     H     0.42246  0.42246  0.00000  0.15508
      21     H     0.41911  0.41911  0.00000  0.16179
      22     H     0.42132  0.42132  0.00000  0.15735
      23     H     0.40805  0.40805  0.00000  0.18389
      24     H     0.39743  0.39743  0.00000  0.20514
      25     H     0.40845  0.40845  0.00000  0.18311

   Total alpha = 36.00000, Total beta = 36.00000, Total charge =  0.00000
