                              Psi4 1.0.54 Driver

  ==> Input File <==

--------------------------------------------------------------------------
set {
	reference rhf
	basis cc-pvtz
}

set_num_threads( 4 )
memory 2 gb

molecule MOL {
0 1

H	 -2.816458	 -0.841657	 -0.064679
N	 -1.878861	 -0.711874	 0.250184
C	 -1.341419	 0.551458	 -0.220231
H	 -1.333674	 -1.468530	 -0.105118
C	 0.082190	 0.731516	 0.254705
H	 -1.357065	 0.652078	 -1.304747
H	 -1.939897	 1.357530	 0.189797
O	 0.881195	 -0.248324	 -0.336237
H	 0.440901	 1.722476	 -0.020063
H	 0.119896	 0.643586	 1.338114
C	 1.438234	 0.119879	 -1.554167
H	 2.027972	 -0.710581	 -1.914626
H	 0.670057	 0.347981	 -2.290080
H	 2.083487	 0.988997	 -1.450027

	symmetry c1
}
set optking {
	frozen_dihedral = ("
		11 8 5 3
	")
}

ee,wfn = optimize('scf', return_wfn=True)
oeprop( wfn, 'DIPOLE', 'QUADRUPOLE', 'MULLIKEN_CHARGES')
f=open( 'psi4out.xyz', 'w' )
f.write( "14  " )
f.write( str(ee) + "\n" )
f.write( MOL.save_string_xyz() )
f.close()
--------------------------------------------------------------------------

    Molecular point group: c1
  Charge       = 0
  Multiplicity = 1
  Basis Set: CC-PVTZ
  Basis Set:
  @DF-RHF Final Energy:  -248.22134146432450
    Total Energy =                       -248.2213414643246665
    Molecular point group: c1
  Basis Set: CC-PVTZ
  Basis Set:
  Basis Set: CC-PVTZ
  Basis Set:
  @DF-RHF Final Energy:  -248.12967035595284
    Total Energy =                       -248.1296703559529533
  Basis Set: CC-PVTZ
  Basis Set:
  Basis Set: CC-PVTZ
  Basis Set:
  @DF-RHF Final Energy:  -248.15790910398115
    Total Energy =                       -248.1579091039812397
  Basis Set: CC-PVTZ
  Basis Set:
  Basis Set: CC-PVTZ
  Basis Set:
  @DF-RHF Final Energy:  -248.17248254362818
    Total Energy =                       -248.1724825436282345
  Basis Set: CC-PVTZ
  Basis Set:
  @DF-RHF Final Energy:  -248.19199730749958
    Total Energy =                       -248.1919973074994346
  @DF-RHF Final Energy:  -248.22178844192882
    Total Energy =                       -248.2217884419285951
  Basis Set: CC-PVTZ
  Basis Set:
  @DF-RHF Final Energy:  -248.22264828129667
    Total Energy =                       -248.2226482812966424
  Basis Set: CC-PVTZ
  Basis Set:
  Basis Set: CC-PVTZ
  Basis Set:
  @DF-RHF Final Energy:  -248.22271264857608
    Total Energy =                       -248.2227126485760209
  Basis Set: CC-PVTZ
  Basis Set:
  Basis Set: CC-PVTZ
  Basis Set:
  @DF-RHF Final Energy:  -248.22271708027699
    Total Energy =                       -248.2227170802769933
  Basis Set: CC-PVTZ
  Basis Set:
  Charge       = 0
  Multiplicity = 1
  Basis Set: CC-PVTZ
  Basis Set:

    Orbital Energies (a.u.)
    -----------------------

    Doubly Occupied:

       1A    -20.549960     2A    -15.524853     3A    -11.265207
       4A    -11.264499     5A    -11.241204     6A     -1.381782
       7A     -1.177171     8A     -0.998262     9A     -0.917628
      10A     -0.811742    11A     -0.686924    12A     -0.675461
      13A     -0.644305    14A     -0.621213    15A     -0.601327
      16A     -0.544950    17A     -0.531499    18A     -0.510797
      19A     -0.469688    20A     -0.419742    21A     -0.382336

  @DF-RHF Final Energy:  -248.22271731941279

   => Energetics <=

    Nuclear Repulsion Energy =            195.9513045325005862
    One-Electron Energy =                -725.9069481172628002
    Two-Electron Energy =                 281.7329262653494197
    DFT Exchange-Correlation Energy =       0.0000000000000000
    Empirical Dispersion Energy =           0.0000000000000000
    PCM Polarization Energy =               0.0000000000000000
    EFP Energy =                            0.0000000000000000
    Total Energy =                       -248.2227173194128227
    Molecular point group: c1
  Basis Set: CC-PVTZ
  Basis Set:

  -Total Gradient:
     Atom            X                  Y                   Z
    ------   -----------------  -----------------  -----------------
       1        0.000017311170     0.000013285228    -0.000001174994
       2        0.000010893860    -0.000048449563     0.000013555246
       3       -0.000071096339     0.000140962440     0.000350369649
       4       -0.000017714892     0.000014253675    -0.000004329677
       5        0.000224898627    -0.000026748331    -0.000510412862
       6        0.000016182465     0.000001157988     0.000005304380
       7       -0.000002263062    -0.000008242397    -0.000007557508
       8       -0.000451185600    -0.000371535660     0.000164635654
       9       -0.000009330399     0.000011943226    -0.000001482825
      10       -0.000003913914    -0.000015947260    -0.000011303610
      11        0.000268501099     0.000279777736    -0.000009007214
      12       -0.000001777303     0.000006190888     0.000006112234
      13        0.000011394862     0.000007421834     0.000011140078
      14        0.000008099431    -0.000004069804    -0.000005848548

  **** Optimization is complete! (in 10 steps) ****
    Final optimized geometry and variables:
    Molecular point group: c1

    Geometry (in Angstrom), charge = 0, multiplicity = 1:

    H           -2.652768160628    -0.482408488032     0.886168909928
    N           -1.741733086252    -0.085753726942     0.971955444020
    C           -1.231587734460     0.348643614380    -0.314842215337
    H           -1.142686909664    -0.781069796007     1.364082845106
    C            0.187930590658     0.864070430485    -0.167316147184
    H           -1.256707829871    -0.432590689040    -1.075064681011
    H           -1.849704373412     1.162740482060    -0.678856237687
    O            1.073995831062    -0.132203633849     0.261300104825
    H            0.527794197107     1.294924734908    -1.106071202740
    H            0.203329114421     1.638980388478     0.587194655831
    C            1.691707095795    -0.867537094231    -0.744642867688
    H            2.340500009926    -1.589832565483    -0.270364888903
    H            0.976469647597    -1.402201500765    -1.364025861736
    H            2.292710903482    -0.228845456920    -1.387463130549

  Mulliken Charges: (a.u.)
   Center  Symbol    Alpha    Beta     Spin     Total
       1     H     0.43032  0.43032  0.00000  0.13936
       2     N     3.69236  3.69236  0.00000 -0.38472
       3     C     3.02654  3.02654  0.00000 -0.05307
       4     H     0.42320  0.42320  0.00000  0.15361
       5     C     2.98370  2.98370  0.00000  0.03260
       6     H     0.46953  0.46953  0.00000  0.06094
       7     H     0.45512  0.45512  0.00000  0.08975
       8     O     4.18329  4.18329  0.00000 -0.36658
       9     H     0.46631  0.46631  0.00000  0.06738
      10     H     0.44958  0.44958  0.00000  0.10083
      11     C     3.03334  3.03334  0.00000 -0.06668
      12     H     0.44695  0.44695  0.00000  0.10610
      13     H     0.47195  0.47195  0.00000  0.05609
      14     H     0.46780  0.46780  0.00000  0.06439

   Total alpha = 21.00000, Total beta = 21.00000, Total charge =  0.00000

*** Psi4 exiting successfully. Buy a developer a beer!
