  ==> Input File <==

--------------------------------------------------------------------------
set {
	reference rhf
	basis cc-pvtz
}

set_num_threads( 4 )
memory 2 gb

molecule MOL {
0 1

H	 2.124907	 -0.715716	 -0.797679
O	 2.063695	 -0.083403	 -0.105237
C	 0.742924	 0.005675	 0.350750
H	 0.731380	 0.039219	 1.440080
C	 -0.064076	 -1.193495	 -0.124425
C	 -0.047832	 1.190568	 -0.194462
H	 0.194729	 -1.376165	 -1.161308
H	 0.163013	 -2.094508	 0.429933
C	 -1.533112	 -0.752002	 0.006102
H	 0.148003	 1.266545	 -1.259275
H	 0.226235	 2.136493	 0.259722
C	 -1.506634	 0.799189	 0.067162
H	 -2.124360	 -1.110499	 -0.826089
H	 -1.983103	 -1.158030	 0.903403
H	 -2.183808	 1.252169	 -0.644677
H	 -1.813926	 1.138698	 1.049457

	symmetry c1
}
set optking {
	frozen_dihedral = ("
		1 2 3 6
	")
}

ee = optimize('scf')
oeprop('DIPOLE', 'QUADRUPOLE', 'MULLIKEN_CHARGES')
f=open( 'psi4out.xyz', 'w' )
f.write( "16  " )
f.write( str(ee) + "\n" )
f.write( MOL.save_string_xyz() )
f.close()
--------------------------------------------------------------------------

    Molecular point group: c1
  Charge       = 0
  Multiplicity = 1
  Basis Set: CC-PVTZ
  Basis Set:
  @DF-RHF Final Energy:  -270.11338286836457
    Total Energy =                       -270.1133828683647948
    Molecular point group: c1
  Basis Set: CC-PVTZ
  Basis Set:
  Basis Set: CC-PVTZ
  Basis Set:
  @DF-RHF Final Energy:  -270.11494660200037
    Total Energy =                       -270.1149466020004866
  Basis Set: CC-PVTZ
  Basis Set:
  Basis Set: CC-PVTZ
  Basis Set:
  @DF-RHF Final Energy:  -270.11516209895069
    Total Energy =                       -270.1151620989508046
  Basis Set: CC-PVTZ
  Basis Set:
  Basis Set: CC-PVTZ
  Basis Set:
  @DF-RHF Final Energy:  -270.11516741783169
    Total Energy =                       -270.1151674178314579
  Basis Set: CC-PVTZ
  Basis Set:
  Charge       = 0
  Multiplicity = 1
  Basis Set: CC-PVTZ
  Basis Set:

    Orbital Energies (a.u.)
    -----------------------

    Doubly Occupied:

       1A    -20.543923     2A    -11.267402     3A    -11.218606
       4A    -11.217860     5A    -11.215403     6A    -11.207632
       7A     -1.364575     8A     -1.117113     9A     -0.970132
      10A     -0.950039    11A     -0.803180    12A     -0.783630
      13A     -0.682590    14A     -0.665702    15A     -0.608317
      16A     -0.599259    17A     -0.578629    18A     -0.539824
      19A     -0.504864    20A     -0.485167    21A     -0.473763
      22A     -0.459570    23A     -0.452613    24A     -0.417695

  @DF-RHF Final Energy:  -270.11516783346178

   => Energetics <=

    Nuclear Repulsion Energy =            255.4970207059652694
    One-Electron Energy =                -872.9693989423346920
    Two-Electron Energy =                 347.3572104029078673
    DFT Exchange-Correlation Energy =       0.0000000000000000
    Empirical Dispersion Energy =           0.0000000000000000
    PCM Polarization Energy =               0.0000000000000000
    EFP Energy =                            0.0000000000000000
    Total Energy =                       -270.1151678334615553
    Molecular point group: c1
  Basis Set: CC-PVTZ
  Basis Set:

  -Total Gradient:
     Atom            X                  Y                   Z
    ------   -----------------  -----------------  -----------------
       1        0.000225995686    -0.001112076029     0.000962554051
       2       -0.000218406094     0.001598014414    -0.000831253288
       3       -0.000253717656    -0.000950950878    -0.000866559762
       4        0.000005728638    -0.000001519191     0.000010101724
       5        0.000011342757     0.000034088158    -0.000026380701
       6        0.000252907121     0.000470229257     0.000721073069
       7       -0.000004523897    -0.000007235397     0.000001502430
       8        0.000003742755     0.000018925051    -0.000001913135
       9       -0.000011062212     0.000003527026    -0.000024018270
      10        0.000019626052    -0.000000487653    -0.000003152970
      11        0.000010545813    -0.000010764988     0.000000483171
      12       -0.000009901921    -0.000016833281     0.000046025484
      13       -0.000022061022    -0.000006490271     0.000001783994
      14        0.000000002677     0.000001587475     0.000002713719
      15        0.000009980278    -0.000012813164     0.000003192287
      16       -0.000020198969    -0.000007200532     0.000003848195

  **** Optimization is complete! (in 5 steps) ****
    Final optimized geometry and variables:
    Molecular point group: c1

    Geometry (in Angstrom), charge = 0, multiplicity = 1:

    H            2.222603834212    -0.612538353898    -0.759084199291
    O            2.093092037089    -0.021283805977    -0.041125940760
    C            0.744531628607    -0.000613870697     0.336703336256
    H            0.733064189544     0.039274335581     1.422035220380
    C           -0.080958013817    -1.196657324526    -0.127261727534
    C           -0.038576834011     1.189754280699    -0.203940582160
    H            0.147369962826    -1.390251161100    -1.173422992958
    H            0.140820941519    -2.101000614843     0.424984988959
    C           -1.543327134244    -0.737882286755     0.019103728104
    H            0.142270426664     1.267140013000    -1.272421386235
    H            0.259914340984     2.127625862897     0.245974068134
    C           -1.497363700443     0.813589029987     0.076911410939
    H           -2.148633564341    -1.092155250837    -0.804760270448
    H           -1.984202573607    -1.139185278325     0.922674754964
    H           -2.181624105162     1.270800592066    -0.625263362247
    H           -1.787217748614     1.156154693198     1.063246110490

  Mulliken Charges: (a.u.)
   Center  Symbol    Alpha    Beta     Spin     Total
       1     H     0.39256  0.39256  0.00000  0.21488
       2     O     4.20843  4.20843  0.00000 -0.41686
       3     C     2.92708  2.92708  0.00000  0.14584
       4     H     0.45139  0.45139  0.00000  0.09721
       5     C     3.11453  3.11453  0.00000 -0.22906
       6     C     3.09113  3.09113  0.00000 -0.18226
       7     H     0.46101  0.46101  0.00000  0.07798
       8     H     0.44070  0.44070  0.00000  0.11859
       9     C     3.10902  3.10902  0.00000 -0.21804
      10     H     0.46083  0.46083  0.00000  0.07833
      11     H     0.44451  0.44451  0.00000  0.11099
      12     C     3.11474  3.11474  0.00000 -0.22948
      13     H     0.44509  0.44509  0.00000  0.10982
      14     H     0.44635  0.44635  0.00000  0.10729
      15     H     0.44340  0.44340  0.00000  0.11320
      16     H     0.44922  0.44922  0.00000  0.10155

   Total alpha = 24.00000, Total beta = 24.00000, Total charge = -0.00000
