  ==> Input File <==

--------------------------------------------------------------------------
set {
	reference rhf
	basis 6-31G*
}

set_num_threads( 1 )
memory 2 gb

molecule MOL {
0 1

O	 -2.219505	 -0.430936	 1.797735
C	 -1.144145	 -0.009412	 2.098324
C	 0.121295	 -0.631441	 1.534367
C	 -0.986530	 1.176888	 3.023108
C	 0.379448	 -0.143569	 0.099626
H	 -0.014148	 -1.707523	 1.531770
H	 0.975013	 -0.399425	 2.164732
C	 1.631333	 -0.777471	 -0.511575
H	 -0.495418	 -0.373122	 -0.498120
H	 0.487912	 0.939925	 0.095000
C	 2.915987	 -0.544314	 0.291766
H	 1.766672	 -0.399098	 -1.523130
H	 1.471257	 -1.849544	 -0.605828
C	 3.373361	 0.914346	 0.347591
H	 3.708709	 -1.142521	 -0.150311
H	 2.780642	 -0.921148	 1.303579
H	 3.506512	 1.320010	 -0.651625
H	 4.322697	 0.999599	 0.867103
H	 2.660624	 1.545032	 0.868198
H	 -0.511858	 0.858783	 3.947640
H	 -1.954360	 1.604419	 3.245157
H	 -0.344047	 1.930060	 2.576173

	symmetry c1
}
set optking {
	frozen_dihedral = ("
		6 3 2 1,
		6 3 5 8,
		12 8 11 15
	")
}

ee = energy('scf')
oeprop('DIPOLE', 'QUADRUPOLE', 'MULLIKEN_CHARGES')
f=open( 'psi4out.xyz', 'w' )
f.write( "22  " )
f.write( str(ee) + "\n" )
f.write( MOL.save_string_xyz() )
f.close()
--------------------------------------------------------------------------

    Molecular point group: c1

    Geometry (in Angstrom), charge = 0, multiplicity = 1:

       Center              X                  Y                   Z               Mass
    ------------   -----------------  -----------------  -----------------  -----------------
           O         -2.732123600865    -0.390199725361     0.705520965466    15.994914619560
           C         -1.656763600865     0.031324274639     1.006109965466    12.000000000000
           C         -0.391323600865    -0.590704725361     0.442152965466    12.000000000000
           C         -1.499148600865     1.217624274639     1.930893965466    12.000000000000
           C         -0.133170600865    -0.102832725361    -0.992588034534    12.000000000000
           H         -0.526766600865    -1.666786725361     0.439555965466     1.007825032070
           H          0.462394399135    -0.358688725361     1.072517965466     1.007825032070
           C          1.118714399135    -0.736734725361    -1.603789034534    12.000000000000
           H         -1.008036600865    -0.332385725361    -1.590334034534     1.007825032070
           H         -0.024706600865     0.980661274639    -0.997214034534     1.007825032070
           C          2.403368399135    -0.503577725361    -0.800448034534    12.000000000000
           H          1.254053399135    -0.358361725361    -2.615344034534     1.007825032070
           H          0.958638399135    -1.808807725361    -1.698042034534     1.007825032070
           C          2.860742399135     0.955082274639    -0.744623034534    12.000000000000
           H          3.196090399135    -1.101784725361    -1.242525034534     1.007825032070
           H          2.268023399135    -0.880411725361     0.211364965466     1.007825032070
           H          2.993893399135     1.360746274639    -1.743839034534     1.007825032070
           H          3.810078399135     1.040335274639    -0.225111034534     1.007825032070
           H          2.148005399135     1.585768274639    -0.224016034534     1.007825032070
           H         -1.024476600865     0.899519274639     2.855425965466     1.007825032070
           H         -2.466978600865     1.645155274639     2.152942965466     1.007825032070
           H         -0.856665600865     1.970796274639     1.483958965466     1.007825032070

  Charge       = 0
  Multiplicity = 1
  Basis Set: 6-31G*
  Basis Set:

    Orbital Energies (a.u.)
    -----------------------

    Doubly Occupied:

       1A    -20.547036     2A    -11.324299     3A    -11.229420
       4A    -11.228285     5A    -11.228257     6A    -11.222873
       7A    -11.222284     8A    -11.216315     9A     -1.392836
      10A     -1.099117    11A     -1.042037    12A     -0.999569
      13A     -0.941289    14A     -0.864673    15A     -0.779550
      16A     -0.734761    17A     -0.664960    18A     -0.652434
      19A     -0.620707    20A     -0.614876    21A     -0.605730
      22A     -0.571456    23A     -0.568309    24A     -0.552790
      25A     -0.533365    26A     -0.520940    27A     -0.511491
      28A     -0.486551    29A     -0.466158    30A     -0.463275
      31A     -0.457835    32A     -0.397179

  @DF-RHF Final Energy:  -348.09559150115149

   => Energetics <=

    Nuclear Repulsion Energy =            381.0366023234205386
    One-Electron Energy =               -1226.7427466904491666
    Two-Electron Energy =                 497.6105528658770822
    DFT Exchange-Correlation Energy =       0.0000000000000000
    Empirical Dispersion Energy =           0.0000000000000000
    PCM Polarization Energy =               0.0000000000000000
    EFP Energy =                            0.0000000000000000
    Total Energy =                       -348.0955915011515458

  Mulliken Charges: (a.u.)
   Center  Symbol    Alpha    Beta     Spin     Total
       1     O     4.26270  4.26270  0.00000 -0.52540
       2     C     2.73535  2.73535  0.00000  0.52930
       3     C     3.20475  3.20475  0.00000 -0.40951
       4     C     3.28957  3.28957  0.00000 -0.57914
       5     C     3.16460  3.16460  0.00000 -0.32921
       6     H     0.40151  0.40151  0.00000  0.19698
       7     H     0.41461  0.41461  0.00000  0.17078
       8     C     3.15412  3.15412  0.00000 -0.30824
       9     H     0.40299  0.40299  0.00000  0.19402
      10     H     0.41950  0.41950  0.00000  0.16100
      11     C     3.15872  3.15872  0.00000 -0.31744
      12     H     0.41849  0.41849  0.00000  0.16302
      13     H     0.41855  0.41855  0.00000  0.16289
      14     C     3.24099  3.24099  0.00000 -0.48197
      15     H     0.41759  0.41759  0.00000  0.16481
      16     H     0.42125  0.42125  0.00000  0.15750
      17     H     0.41982  0.41982  0.00000  0.16036
      18     H     0.41746  0.41746  0.00000  0.16508
      19     H     0.42339  0.42339  0.00000  0.15321
      20     H     0.40703  0.40703  0.00000  0.18594
      21     H     0.39698  0.39698  0.00000  0.20603
      22     H     0.41001  0.41001  0.00000  0.17997

   Total alpha = 32.00000, Total beta = 32.00000, Total charge =  0.00000
