  ==> Input File <==

--------------------------------------------------------------------------
set {
	reference rhf
	basis 6-31G*
}

set_num_threads( 4 )
memory 2 gb

molecule MOL {
0 1

H	 3.104964	 1.525796	 -2.273890
N	 2.337065	 0.882469	 -2.271375
C	 1.489493	 1.095206	 -1.106948
H	 2.731520	 -0.038922	 -2.254849
C	 0.269786	 0.181093	 -1.156600
H	 1.162514	 2.130444	 -1.122033
H	 2.015392	 0.946816	 -0.160476
C	 -0.679275	 0.379305	 0.025956
H	 -0.253565	 0.358035	 -2.091817
H	 0.603153	 -0.856017	 -1.181201
C	 -1.903357	 -0.536963	 -0.023547
H	 -1.010475	 1.416336	 0.052847
H	 -0.141904	 0.207413	 0.957370
C	 -3.225172	 0.228290	 0.028445
H	 -1.867824	 -1.134999	 -0.931459
H	 -1.860449	 -1.239604	 0.805977
H	 -3.313397	 0.915643	 -0.808262
H	 -4.073500	 -0.448134	 -0.008893
H	 -3.306061	 0.809945	 0.942516

	symmetry c1
}
set optking {
	frozen_dihedral = ("
		12 8 11 15
	")
}

ee = optimize('scf')
oeprop('DIPOLE', 'QUADRUPOLE', 'MULLIKEN_CHARGES')
f=open( 'psi4out.xyz', 'w' )
f.write( "19  " )
f.write( str(ee) + "\n" )
f.write( MOL.save_string_xyz() )
f.close()
--------------------------------------------------------------------------

    Molecular point group: c1
  Charge       = 0
  Multiplicity = 1
  Basis Set: 6-31G*
  Basis Set:
  @DF-RHF Final Energy:  -251.34589972873283
    Total Energy =                       -251.3458997287328884
    Molecular point group: c1
  Basis Set: 6-31G*
  Basis Set:
  Basis Set: 6-31G*
  Basis Set:
  @DF-RHF Final Energy:  -251.34612765371278
    Total Energy =                       -251.3461276537129834
  Basis Set: 6-31G*
  Basis Set:
  Basis Set: 6-31G*
  Basis Set:
  @DF-RHF Final Energy:  -251.34620430061710
    Total Energy =                       -251.3462043006171598
  Basis Set: 6-31G*
  Basis Set:
  Charge       = 0
  Multiplicity = 1
  Basis Set: 6-31G*
  Basis Set:

    Orbital Energies (a.u.)
    -----------------------

    Doubly Occupied:

       1A    -15.532499     2A    -11.239530     3A    -11.213560
       4A    -11.212381     5A    -11.209882     6A    -11.207388
       7A     -1.176530     8A     -1.070068     9A     -0.997764
      10A     -0.899599    11A     -0.815120    12A     -0.788519
      13A     -0.664552    14A     -0.635026    15A     -0.614286
      16A     -0.590409    17A     -0.577583    18A     -0.535892
      19A     -0.531010    20A     -0.497596    21A     -0.488242
      22A     -0.463963    23A     -0.453611    24A     -0.447952
      25A     -0.380934

  @DF-RHF Final Energy:  -251.34620451692314

   => Energetics <=

    Nuclear Repulsion Energy =            246.0903752367326547
    One-Electron Energy =                -826.3853673436659619
    Two-Electron Energy =                 328.9487875900101699
    DFT Exchange-Correlation Energy =       0.0000000000000000
    Empirical Dispersion Energy =           0.0000000000000000
    PCM Polarization Energy =               0.0000000000000000
    EFP Energy =                            0.0000000000000000
    Total Energy =                       -251.3462045169230805
    Molecular point group: c1
  Basis Set: 6-31G*
  Basis Set:

  -Total Gradient:
     Atom            X                  Y                   Z
    ------   -----------------  -----------------  -----------------
       1        0.000017906868    -0.000002459033    -0.000020220431
       2        0.000022641045     0.000030362812    -0.000005786757
       3       -0.000011491045    -0.000012984271    -0.000003277060
       4       -0.000000725035     0.000002306518     0.000002931280
       5       -0.000012449221    -0.000005085466     0.000026521038
       6        0.000008674194     0.000001464224     0.000002033099
       7       -0.000001114635     0.000004393250    -0.000001876984
       8        0.000133266435    -0.000163877321    -0.001260096463
       9       -0.000009456861    -0.000011537504     0.000010922808
      10        0.000001113009     0.000004440911     0.000011404798
      11       -0.000714475403     0.001017994915    -0.000433553634
      12       -0.000007971658    -0.000037256210     0.001124360540
      13        0.000007957354    -0.000011705494    -0.000008122039
      14       -0.000008732742    -0.000014698997     0.000010355958
      15        0.000567475323    -0.000792853738     0.000543089023
      16       -0.000011130830     0.000011903801     0.000002468950
      17        0.000014920285    -0.000012947536     0.000000133336
      18       -0.000008406762    -0.000008157331     0.000004651141
      19        0.000011999681     0.000000696468    -0.000005938604

  **** Optimization is complete! (in 4 steps) ****
    Final optimized geometry and variables:
    Molecular point group: c1

    Geometry (in Angstrom), charge = 0, multiplicity = 1:

    H            3.371411562447     1.142257100043    -1.504947928217
    N            2.602471380725     0.500172445599    -1.503687498585
    C            1.751799635425     0.715789454511    -0.341880677041
    H            2.995467436181    -0.421806408006    -1.484701974290
    C            0.530923943212    -0.195870432585    -0.393661112477
    H            1.426676092294     1.751695946580    -0.358845517886
    H            2.274758069376     0.567609833793     0.606290549487
    C           -0.422514239963     0.004650825373     0.785653956832
    H            0.008729996652    -0.019896678321    -1.329907963555
    H            0.861196950635    -1.234103938161    -0.415738169447
    C           -1.662439250263    -0.917320325813     0.740830880876
    H           -0.741787174142     1.044407734770     0.813109488026
    H            0.120620860088    -0.156995958581     1.713791932950
    C           -2.988831730139    -0.160207281581     0.804240526897
    H           -1.638252496878    -1.518831810848    -0.164161692512
    H           -1.622006852148    -1.626597356431     1.562898409518
    H           -3.085487322683     0.527670393346    -0.031162848858
    H           -3.833857163902    -0.841396182904     0.773164693030
    H           -3.064426071347     0.420389489757     1.719394273605

  Mulliken Charges: (a.u.)
   Center  Symbol    Alpha    Beta     Spin     Total
       1     H     0.33250  0.33250  0.00000  0.33500
       2     N     3.92182  3.92182  0.00000 -0.84365
       3     C     3.06086  3.06086  0.00000 -0.12171
       4     H     0.33537  0.33537  0.00000  0.32927
       5     C     3.15334  3.15334  0.00000 -0.30667
       6     H     0.42079  0.42079  0.00000  0.15841
       7     H     0.43479  0.43479  0.00000  0.13042
       8     C     3.15933  3.15933  0.00000 -0.31866
       9     H     0.41308  0.41308  0.00000  0.17383
      10     H     0.42717  0.42717  0.00000  0.14566
      11     C     3.15441  3.15441  0.00000 -0.30883
      12     H     0.42071  0.42071  0.00000  0.15859
      13     H     0.42211  0.42211  0.00000  0.15577
      14     C     3.23978  3.23978  0.00000 -0.47957
      15     H     0.41913  0.41913  0.00000  0.16173
      16     H     0.42098  0.42098  0.00000  0.15803
      17     H     0.42121  0.42121  0.00000  0.15758
      18     H     0.42072  0.42072  0.00000  0.15857
      19     H     0.42189  0.42189  0.00000  0.15623

   Total alpha = 25.00000, Total beta = 25.00000, Total charge =  0.00000
