                              Psi4 1.0.54 Driver

  ==> Input File <==

--------------------------------------------------------------------------
set {
	reference rhf
	basis cc-pvtz
}

set_num_threads( 4 )
memory 2 gb

molecule MOL {
0 1

O	 -2.081319	 -0.951530	 -0.502732
N	 -1.613558	 0.006676	 0.014756
C	 -0.329345	 -0.171618	 0.743966
O	 -2.068523	 1.100482	 -0.024385
C	 0.358434	 1.178273	 0.904719
H	 0.258402	 -0.852633	 0.151352
H	 -0.584139	 -0.607630	 1.695388
C	 1.682986	 1.042218	 1.651190
H	 0.528154	 1.605836	 -0.076577
H	 -0.302707	 1.848185	 1.442165
C	 2.389141	 2.381279	 1.832133
H	 2.333403	 0.360597	 1.111016
H	 1.504686	 0.593299	 2.623860
H	 2.610679	 2.838766	 0.874363
H	 1.774791	 3.073928	 2.396517
H	 3.324050	 2.257026	 2.364739

	symmetry c1
}
set optking {
	frozen_dihedral = ("
		5 3 2 1
	")
}

ee,wfn = optimize('scf', return_wfn=True)
oeprop( wfn, 'DIPOLE', 'QUADRUPOLE', 'MULLIKEN_CHARGES')
f=open( 'psi4out.xyz', 'w' )
f.write( "16  " )
f.write( str(ee) + "\n" )
f.write( MOL.save_string_xyz() )
f.close()
--------------------------------------------------------------------------

    Molecular point group: c1
  Charge       = 0
  Multiplicity = 1
  Basis Set: CC-PVTZ
  Basis Set:
  @DF-RHF Final Energy:  -360.90664473945566
    Total Energy =                       -360.9066447394557144
    Molecular point group: c1
  Basis Set: CC-PVTZ
  Basis Set:
  Basis Set: CC-PVTZ
  Basis Set:
  @DF-RHF Final Energy:  -360.66380142963146
    Total Energy =                       -360.6638014296314054
  Basis Set: CC-PVTZ
  Basis Set:
  Basis Set: CC-PVTZ
  Basis Set:
  @DF-RHF Final Energy:  -360.81222359681459
    Total Energy =                       -360.8122235968146470
  Basis Set: CC-PVTZ
  Basis Set:
  Basis Set: CC-PVTZ
  Basis Set:
  @DF-RHF Final Energy:  -360.89641812527498
    Total Energy =                       -360.8964181252749768
  Basis Set: CC-PVTZ
  Basis Set:
  @DF-RHF Final Energy:  -360.90474894285347
    Total Energy =                       -360.9047489428538142
  @DF-RHF Final Energy:  -360.90559407228352
    Total Energy =                       -360.9055940722829519
  @DF-RHF Final Energy:  -360.90790697583088
    Total Energy =                       -360.9079069758311107
  @DF-RHF Final Energy:  -360.90808799648443
    Total Energy =                       -360.9080879964842552
  Basis Set: CC-PVTZ
  Basis Set:
  @DF-RHF Final Energy:  -360.90843137807917
    Total Energy =                       -360.9084313780789444
  Basis Set: CC-PVTZ
  Basis Set:
  Basis Set: CC-PVTZ
  Basis Set:
  @DF-RHF Final Energy:  -360.90854644568668
    Total Energy =                       -360.9085464456862269
  Basis Set: CC-PVTZ
  Basis Set:
  Basis Set: CC-PVTZ
  Basis Set:
  @DF-RHF Final Energy:  -360.90854833053766
    Total Energy =                       -360.9085483305376556
  Basis Set: CC-PVTZ
  Basis Set:
  Charge       = 0
  Multiplicity = 1
  Basis Set: CC-PVTZ
  Basis Set:

    Orbital Energies (a.u.)
    -----------------------

    Doubly Occupied:

       1A    -20.592018     2A    -20.588093     3A    -15.837733
       4A    -11.298038     5A    -11.244015     6A    -11.239853
       7A    -11.224313     8A     -1.636492     9A     -1.420547
      10A     -1.134133    11A     -1.058701    12A     -0.948857
      13A     -0.843468    14A     -0.821901    15A     -0.759634
      16A     -0.750184    17A     -0.730512    18A     -0.668026
      19A     -0.615326    20A     -0.603218    21A     -0.565767
      22A     -0.535699    23A     -0.522383    24A     -0.502007
      25A     -0.495035    26A     -0.485811    27A     -0.469268
      28A     -0.453286

  @DF-RHF Final Energy:  -360.90854862567085

   => Energetics <=

    Nuclear Repulsion Energy =            312.4986301726676174
    One-Electron Energy =               -1110.7257222438386179
    Two-Electron Energy =                 437.3185434455002678
    DFT Exchange-Correlation Energy =       0.0000000000000000
    Empirical Dispersion Energy =           0.0000000000000000
    PCM Polarization Energy =               0.0000000000000000
    EFP Energy =                            0.0000000000000000
    Total Energy =                       -360.9085486256707327
    Molecular point group: c1
  Basis Set: CC-PVTZ
  Basis Set:

  -Total Gradient:
     Atom            X                  Y                   Z
    ------   -----------------  -----------------  -----------------
       1       -0.000046828284    -0.000044507810     0.000329513524
       2        0.000016092699     0.000093476140    -0.000356039708
       3        0.000073856785    -0.000033287347    -0.000211093660
       4        0.000026782633    -0.000011682534     0.000005810638
       5       -0.000080464073     0.000001728939     0.000239972582
       6       -0.000005881613     0.000006929851     0.000003015970
       7        0.000003057313    -0.000002276734     0.000004045013
       8        0.000009280193    -0.000005727613    -0.000000327416
       9       -0.000005524552     0.000006140280    -0.000005429741
      10        0.000006861929    -0.000016346335    -0.000006384802
      11       -0.000000940511     0.000003770388    -0.000007517039
      12        0.000005569313     0.000002124586     0.000003383284
      13       -0.000002158755     0.000000583650    -0.000002866994
      14        0.000000610170     0.000000471874     0.000003097350
      15       -0.000000483059     0.000000072616     0.000001405445
      16        0.000000169814    -0.000001469954    -0.000000584446

  **** Optimization is complete! (in 12 steps) ****
    Final optimized geometry and variables:
    Molecular point group: c1

    Geometry (in Angstrom), charge = 0, multiplicity = 1:

    O           -0.967987187621    -2.375298785222    -0.709668969509
    N           -0.991508611843    -1.256112366746    -0.319800638805
    C            0.320609029519    -0.675362288915     0.096348287574
    O           -1.964161114935    -0.590453254869    -0.210228112506
    C            0.336181068904     0.839462782775     0.123039324487
    H            1.038559623732    -1.093433734504    -0.589884113066
    H            0.500367307433    -1.101471232985     1.074073742054
    C            1.714848302127     1.361767777697     0.523990421289
    H            0.068007497076     1.219465494184    -0.856119672904
    H           -0.413847574384     1.198126087138     0.814209336088
    C            1.770525897505     2.884865334624     0.562937157579
    H            2.462296778747     0.991585672143    -0.171823648895
    H            1.982367111008     0.966700803498     1.500067110934
    H            1.540167007841     3.309074505395    -0.408044436030
    H            1.057525941432     3.283580217342     1.275905116480
    H            2.756204946637     3.230025038998     0.850401716083

  Mulliken Charges: (a.u.)
   Center  Symbol    Alpha    Beta     Spin     Total
       1     O     4.17362  4.17362  0.00000 -0.34724
       2     N     3.27290  3.27290  0.00000  0.45421
       3     C     3.05026  3.05026  0.00000 -0.10052
       4     O     4.16961  4.16961  0.00000 -0.33922
       5     C     3.09470  3.09470  0.00000 -0.18940
       6     H     0.43120  0.43120  0.00000  0.13760
       7     H     0.43450  0.43450  0.00000  0.13100
       8     C     3.09431  3.09431  0.00000 -0.18861
       9     H     0.44236  0.44236  0.00000  0.11528
      10     H     0.43581  0.43581  0.00000  0.12839
      11     C     3.14801  3.14801  0.00000 -0.29603
      12     H     0.45139  0.45139  0.00000  0.09721
      13     H     0.45182  0.45182  0.00000  0.09636
      14     H     0.45212  0.45212  0.00000  0.09575
      15     H     0.45180  0.45180  0.00000  0.09640
      16     H     0.44559  0.44559  0.00000  0.10881

   Total alpha = 28.00000, Total beta = 28.00000, Total charge =  0.00000

*** Psi4 exiting successfully. Buy a developer a beer!
