  ==> Input File <==

--------------------------------------------------------------------------
set {
	reference rhf
	basis 6-31G*
}

set_num_threads( 1 )
memory 2 gb

molecule MOL {
0 1

O	 -0.644987	 -1.652990	 1.664992
C	 -1.514987	 -1.440192	 0.882411
C	 -2.775474	 -2.260464	 0.784449
O	 -1.481751	 -0.454642	 0.000584
H	 -3.283566	 -2.233162	 1.740984
H	 -3.433286	 -1.897333	 0.008654
H	 -2.505502	 -3.290827	 0.586090
C	 -0.334255	 0.388708	 0.000906
C	 0.891947	 -0.504646	 0.000751
H	 -0.365390	 1.025305	 -0.873475
H	 -0.365484	 1.024911	 0.875569
C	 2.191998	 0.301789	 0.000897
H	 0.855148	 -1.151283	 -0.871571
H	 0.855132	 -1.151660	 0.872805
C	 3.441114	 -0.581407	 0.000108
H	 2.215074	 0.954890	 -0.869742
H	 2.215465	 0.953923	 0.872248
C	 4.739576	 0.224112	 -0.001102
H	 3.419457	 -1.233487	 -0.870178
H	 3.420834	 -1.233096	 0.870717
H	 4.804918	 0.861552	 -0.878265
H	 5.606527	 -0.429058	 -0.001824
H	 4.806469	 0.861674	 0.875853

	symmetry c1
}
set optking {
	frozen_dihedral = ("
		13 9 8 10,
		16 12 9 13,
		19 15 12 16,
		1 2 4 8
	")
}

ee = energy('scf')
oeprop('DIPOLE', 'QUADRUPOLE', 'MULLIKEN_CHARGES')
f=open( 'psi4out.xyz', 'w' )
f.write( "23  " )
f.write( str(ee) + "\n" )
f.write( MOL.save_string_xyz() )
f.close()
--------------------------------------------------------------------------

    Molecular point group: c1

    Geometry (in Angstrom), charge = 0, multiplicity = 1:

       Center              X                  Y                   Z               Mass
    ------------   -----------------  -----------------  -----------------  -----------------
           O         -1.137307604174    -0.982975028061     1.288218913929    15.994914619560
           C         -2.007307604174    -0.770177028061     0.505637913929    12.000000000000
           C         -3.267794604174    -1.590449028061     0.407675913929    12.000000000000
           O         -1.974071604174     0.215372971939    -0.376189086071    15.994914619560
           H         -3.775886604174    -1.563147028061     1.364210913929     1.007825032070
           H         -3.925606604174    -1.227318028061    -0.368119086071     1.007825032070
           H         -2.997822604174    -2.620812028061     0.209316913929     1.007825032070
           C         -0.826575604174     1.058722971939    -0.375867086071    12.000000000000
           C          0.399626395826     0.165368971939    -0.376022086071    12.000000000000
           H         -0.857710604174     1.695319971939    -1.250248086071     1.007825032070
           H         -0.857804604174     1.694925971939     0.498795913929     1.007825032070
           C          1.699677395826     0.971803971939    -0.375876086071    12.000000000000
           H          0.362827395826    -0.481268028061    -1.248344086071     1.007825032070
           H          0.362811395826    -0.481645028061     0.496031913929     1.007825032070
           C          2.948793395826     0.088607971939    -0.376665086071    12.000000000000
           H          1.722753395826     1.624904971939    -1.246515086071     1.007825032070
           H          1.723144395826     1.623937971939     0.495474913929     1.007825032070
           C          4.247255395826     0.894126971939    -0.377875086071    12.000000000000
           H          2.927136395826    -0.563472028061    -1.246951086071     1.007825032070
           H          2.928513395826    -0.563081028061     0.493943913929     1.007825032070
           H          4.312597395826     1.531566971939    -1.255038086071     1.007825032070
           H          5.114206395826     0.240956971939    -0.378597086071     1.007825032070
           H          4.314148395826     1.531688971939     0.499079913929     1.007825032070

  Charge       = 0
  Multiplicity = 1
  Basis Set: 6-31G*
  Basis Set:

    Orbital Energies (a.u.)
    -----------------------

    Doubly Occupied:

       1A    -20.605220     2A    -20.542113     3A    -11.380247
       4A    -11.282305     5A    -11.235040     6A    -11.212163
       7A    -11.211262     8A    -11.205815     9A    -11.197405
      10A     -1.474365    11A     -1.367306    12A     -1.083769
      13A     -1.040020    14A     -0.997423    15A     -0.928090
      16A     -0.849784    17A     -0.792934    18A     -0.762971
      19A     -0.706950    20A     -0.685836    21A     -0.659108
      22A     -0.639408    23A     -0.604342    24A     -0.588754
      25A     -0.579285    26A     -0.567052    27A     -0.555799
      28A     -0.532802    29A     -0.523790    30A     -0.518200
      31A     -0.488510    32A     -0.472065    33A     -0.463175
      34A     -0.462215    35A     -0.435373    36A     -0.409756

  @DF-RHF Final Energy:  -422.95574165617637

   => Energetics <=

    Nuclear Repulsion Energy =            467.2472582233324943
    One-Electron Energy =               -1502.2845704807973561
    Two-Electron Energy =                 612.0815706012874671
    DFT Exchange-Correlation Energy =       0.0000000000000000
    Empirical Dispersion Energy =           0.0000000000000000
    PCM Polarization Energy =               0.0000000000000000
    EFP Energy =                            0.0000000000000000
    Total Energy =                       -422.9557416561774517

  Mulliken Charges: (a.u.)
   Center  Symbol    Alpha    Beta     Spin     Total
       1     O     4.29004  4.29004  0.00000 -0.58007
       2     C     2.60754  2.60754  0.00000  0.78492
       3     C     3.28783  3.28783  0.00000 -0.57565
       4     O     4.31287  4.31287  0.00000 -0.62574
       5     H     0.39693  0.39693  0.00000  0.20613
       6     H     0.39838  0.39838  0.00000  0.20324
       7     H     0.39756  0.39756  0.00000  0.20488
       8     C     2.99830  2.99830  0.00000  0.00341
       9     C     3.19777  3.19777  0.00000 -0.39553
      10     H     0.40727  0.40727  0.00000  0.18546
      11     H     0.41283  0.41283  0.00000  0.17435
      12     C     3.15579  3.15579  0.00000 -0.31159
      13     H     0.42365  0.42365  0.00000  0.15271
      14     H     0.36344  0.36344  0.00000  0.27311
      15     C     3.15056  3.15056  0.00000 -0.30111
      16     H     0.42894  0.42894  0.00000  0.14212
      17     H     0.42391  0.42391  0.00000  0.15217
      18     C     3.23932  3.23932  0.00000 -0.47864
      19     H     0.42343  0.42343  0.00000  0.15313
      20     H     0.41954  0.41954  0.00000  0.16092
      21     H     0.42270  0.42270  0.00000  0.15460
      22     H     0.41954  0.41954  0.00000  0.16092
      23     H     0.42187  0.42187  0.00000  0.15626

   Total alpha = 36.00000, Total beta = 36.00000, Total charge = -0.00000
