  ==> Input File <==

--------------------------------------------------------------------------
set {
	reference rhf
	basis 6-31G*
}

set_num_threads( 1 )
memory 2 gb

molecule MOL {
0 1

H	 2.591676	 2.013956	 0.335017
O	 3.341076	 1.666752	 -0.126416
C	 3.569581	 0.339145	 0.272707
C	 2.539767	 -0.640285	 -0.279495
H	 4.553106	 0.084646	 -0.100901
H	 3.608576	 0.269204	 1.359154
C	 1.738009	 -0.097687	 -1.465091
H	 3.053672	 -1.551924	 -0.573066
H	 1.858094	 -0.905931	 0.526806
C	 0.676279	 -1.083137	 -1.961514
H	 2.418990	 0.141482	 -2.277143
H	 1.252806	 0.835167	 -1.177508
C	 -0.212910	 -0.555487	 -3.093446
H	 1.163359	 -2.001335	 -2.284795
H	 0.039590	 -1.357336	 -1.122978
C	 0.511573	 -0.305947	 -4.419090
H	 -1.010996	 -1.274902	 -3.264666
H	 -0.699440	 0.363376	 -2.769693
C	 -0.434282	 0.117955	 -5.544746
H	 1.038769	 -1.211468	 -4.716087
H	 1.271577	 0.461161	 -4.291645
C	 0.287188	 0.373900	 -6.867485
H	 -1.189605	 -0.651552	 -5.689084
H	 -0.969078	 1.017141	 -5.245843
H	 0.805513	 -0.517238	 -7.210175
H	 -0.409821	 0.670437	 -7.645224
H	 1.024707	 1.165131	 -6.765590

	symmetry c1
}
set optking {
	frozen_dihedral = ("
		14 10 7 4,
		14 10 13 16,
		10 7 4 8,
		10 13 16 20,
		20 16 19 22,
		4 3 2 1
	")
}

ee = energy('scf')
oeprop('DIPOLE', 'QUADRUPOLE', 'MULLIKEN_CHARGES')
f=open( 'psi4out.xyz', 'w' )
f.write( "27  " )
f.write( str(ee) + "\n" )
f.write( MOL.save_string_xyz() )
f.close()
--------------------------------------------------------------------------

    Molecular point group: c1

    Geometry (in Angstrom), charge = 0, multiplicity = 1:

       Center              X                  Y                   Z               Mass
    ------------   -----------------  -----------------  -----------------  -----------------
           H          1.223075888872     1.998803488177     2.914226511199     1.007825032070
           O          1.972475888872     1.651599488177     2.452793511199    15.994914619560
           C          2.200980888872     0.323992488177     2.851916511199    12.000000000000
           C          1.171166888872    -0.655437511823     2.299714511199    12.000000000000
           H          3.184505888872     0.069493488177     2.478308511199     1.007825032070
           H          2.239975888872     0.254051488177     3.938363511199     1.007825032070
           C          0.369408888872    -0.112839511823     1.114118511199    12.000000000000
           H          1.685071888872    -1.567076511823     2.006143511199     1.007825032070
           H          0.489493888872    -0.921083511823     3.106015511199     1.007825032070
           C         -0.692321111128    -1.098289511823     0.617695511199    12.000000000000
           H          1.050389888872     0.126329488177     0.302066511199     1.007825032070
           H         -0.115794111128     0.820014488177     1.401701511199     1.007825032070
           C         -1.581510111128    -0.570639511823    -0.514236488801    12.000000000000
           H         -0.205241111128    -2.016487511823     0.294414511199     1.007825032070
           H         -1.329010111128    -1.372488511823     1.456231511199     1.007825032070
           C         -0.857027111128    -0.321099511823    -1.839880488801    12.000000000000
           H         -2.379596111128    -1.290054511823    -0.685456488801     1.007825032070
           H         -2.068040111128     0.348223488177    -0.190483488801     1.007825032070
           C         -1.802882111128     0.102802488177    -2.965536488801    12.000000000000
           H         -0.329831111128    -1.226620511823    -2.136877488801     1.007825032070
           H         -0.097023111128     0.446008488177    -1.712435488801     1.007825032070
           C         -1.081412111128     0.358747488177    -4.288275488801    12.000000000000
           H         -2.558205111128    -0.666704511823    -3.109874488801     1.007825032070
           H         -2.337678111128     1.001988488177    -2.666633488801     1.007825032070
           H         -0.563087111128    -0.532390511823    -4.630965488801     1.007825032070
           H         -1.778421111128     0.655284488177    -5.066014488801     1.007825032070
           H         -0.343893111128     1.149978488177    -4.186380488801     1.007825032070

  Charge       = 0
  Multiplicity = 1
  Basis Set: 6-31G*
  Basis Set:

    Orbital Energies (a.u.)
    -----------------------

    Doubly Occupied:

       1A    -20.553000     2A    -11.266792     3A    -11.213825
       4A    -11.212282     5A    -11.211746     6A    -11.211300
       7A    -11.210908     8A    -11.209496     9A    -11.205961
      10A     -1.360689    11A     -1.089866    12A     -1.056942
      13A     -1.008607    14A     -0.945883    15A     -0.884853
      16A     -0.817509    17A     -0.797327    18A     -0.772318
      19A     -0.688486    20A     -0.644680    21A     -0.641125
      22A     -0.613330    23A     -0.603581    24A     -0.584601
      25A     -0.569706    26A     -0.555761    27A     -0.539913
      28A     -0.520310    29A     -0.501199    30A     -0.494766
      31A     -0.476987    32A     -0.466479    33A     -0.460327
      34A     -0.455623    35A     -0.449400    36A     -0.438459
      37A     -0.423628

  @DF-RHF Final Energy:  -388.27478208159039

   => Energetics <=

    Nuclear Repulsion Energy =            461.6908668430021407
    One-Electron Energy =               -1441.6159127011526380
    Two-Electron Energy =                 591.6502637765618147
    DFT Exchange-Correlation Energy =       0.0000000000000000
    Empirical Dispersion Energy =           0.0000000000000000
    PCM Polarization Energy =               0.0000000000000000
    EFP Energy =                            0.0000000000000000
    Total Energy =                       -388.2747820815886826

  Mulliken Charges: (a.u.)
   Center  Symbol    Alpha    Beta     Spin     Total
       1     H     0.28236  0.28236  0.00000  0.43528
       2     O     4.36794  4.36794  0.00000 -0.73587
       3     C     2.99391  2.99391  0.00000  0.01217
       4     C     3.18188  3.18188  0.00000 -0.36376
       5     H     0.41547  0.41547  0.00000  0.16907
       6     H     0.42810  0.42810  0.00000  0.14379
       7     C     3.14252  3.14252  0.00000 -0.28504
       8     H     0.41837  0.41837  0.00000  0.16326
       9     H     0.42452  0.42452  0.00000  0.15096
      10     C     3.15368  3.15368  0.00000 -0.30735
      11     H     0.41462  0.41462  0.00000  0.17076
      12     H     0.42836  0.42836  0.00000  0.14328
      13     C     3.15252  3.15252  0.00000 -0.30505
      14     H     0.42483  0.42483  0.00000  0.15034
      15     H     0.42442  0.42442  0.00000  0.15115
      16     C     3.15322  3.15322  0.00000 -0.30643
      17     H     0.42261  0.42261  0.00000  0.15477
      18     H     0.42475  0.42475  0.00000  0.15050
      19     C     3.15102  3.15102  0.00000 -0.30205
      20     H     0.42510  0.42510  0.00000  0.14981
      21     H     0.41998  0.41998  0.00000  0.16004
      22     C     3.23917  3.23917  0.00000 -0.47833
      23     H     0.42382  0.42382  0.00000  0.15235
      24     H     0.42335  0.42335  0.00000  0.15330
      25     H     0.42215  0.42215  0.00000  0.15569
      26     H     0.41995  0.41995  0.00000  0.16010
      27     H     0.42136  0.42136  0.00000  0.15727

   Total alpha = 37.00000, Total beta = 37.00000, Total charge =  0.00000
