                              Psi4 1.0.54 Driver

  ==> Input File <==

--------------------------------------------------------------------------
set {
	reference rhf
	basis cc-pvtz
}

set_num_threads( 4 )
memory 2 gb

molecule MOL {
0 1

O	 1.847685	 1.294399	 -0.000190
C	 1.704209	 0.119472	 -0.000093
C	 0.380337	 -0.600947	 -0.000234
O	 2.715427	 -0.733672	 0.000025
C	 -0.824290	 0.329213	 -0.000115
H	 0.371455	 -1.255476	 -0.865660
H	 0.371410	 -1.255787	 0.864952
C	 -2.146151	 -0.432825	 -0.000068
H	 -0.773936	 0.979158	 -0.866319
H	 -0.773838	 0.979034	 0.866186
C	 -3.366283	 0.483552	 0.000557
H	 -2.189286	 -1.084450	 -0.869996
H	 -2.188867	 -1.085083	 0.869399
C	 -4.661374	 -0.243538	 0.346233
H	 -3.464067	 0.949928	 -0.975706
H	 -3.206432	 1.291827	 0.708582
H	 -4.867129	 -1.036735	 -0.364919
H	 -5.506561	 0.434929	 0.337584
H	 -4.607612	 -0.691799	 1.332846
C	 4.020999	 -0.192556	 0.000019
H	 4.182809	 0.412891	 -0.879449
H	 4.692590	 -1.035653	 0.000152
H	 4.182726	 0.413087	 0.879368

	symmetry c1
}
set optking {
	frozen_dihedral = ("
		15 11 8 12
	")
}

ee,wfn = optimize('scf', return_wfn=True)
oeprop( wfn, 'DIPOLE', 'QUADRUPOLE', 'MULLIKEN_CHARGES')
f=open( 'psi4out.xyz', 'w' )
f.write( "23  " )
f.write( str(ee) + "\n" )
f.write( MOL.save_string_xyz() )
f.close()
--------------------------------------------------------------------------

    Molecular point group: c1
  Charge       = 0
  Multiplicity = 1
  Basis Set: CC-PVTZ
  Basis Set:
  @DF-RHF Final Energy:  -423.13033681010552
    Total Energy =                       -423.1303368101055185
    Molecular point group: c1
  Basis Set: CC-PVTZ
  Basis Set:
  Basis Set: CC-PVTZ
  Basis Set:
  @DF-RHF Final Energy:  -423.13040502396137
    Total Energy =                       -423.1304050239612025
  Basis Set: CC-PVTZ
  Basis Set:
  Basis Set: CC-PVTZ
  Basis Set:
  @DF-RHF Final Energy:  -423.13044726680027
    Total Energy =                       -423.1304472668003882
  Basis Set: CC-PVTZ
  Basis Set:
  Basis Set: CC-PVTZ
  Basis Set:
  @DF-RHF Final Energy:  -423.13027919752693
    Total Energy =                       -423.1302791975267610
  Basis Set: CC-PVTZ
  Basis Set:
  Basis Set: CC-PVTZ
  Basis Set:
  @DF-RHF Final Energy:  -423.13045597917210
    Total Energy =                       -423.1304559791714155
  Basis Set: CC-PVTZ
  Basis Set:
  Charge       = 0
  Multiplicity = 1
  Basis Set: CC-PVTZ
  Basis Set:

    Orbital Energies (a.u.)
    -----------------------

    Doubly Occupied:

       1A    -20.596252     2A    -20.534072     3A    -11.364498
       4A    -11.278422     5A    -11.233678     6A    -11.217059
       7A    -11.215845     8A    -11.214541     9A    -11.207599
      10A     -1.472144    11A     -1.365727    12A     -1.094335
      13A     -1.044601    14A     -0.987963    15A     -0.932570
      16A     -0.843834    17A     -0.795323    18A     -0.769233
      19A     -0.699054    20A     -0.686883    21A     -0.675359
      22A     -0.652895    23A     -0.610375    24A     -0.600776
      25A     -0.573663    26A     -0.562187    27A     -0.555229
      28A     -0.525254    29A     -0.522669    30A     -0.507332
      31A     -0.485815    32A     -0.469263    33A     -0.467460
      34A     -0.462866    35A     -0.459048    36A     -0.438217

  @DF-RHF Final Energy:  -423.13045626472802

   => Energetics <=

    Nuclear Repulsion Energy =            452.9296012276718670
    One-Electron Energy =               -1473.8760309842891729
    Two-Electron Energy =                 597.8159734918895083
    DFT Exchange-Correlation Energy =       0.0000000000000000
    Empirical Dispersion Energy =           0.0000000000000000
    PCM Polarization Energy =               0.0000000000000000
    EFP Energy =                            0.0000000000000000
    Total Energy =                       -423.1304562647278544
    Molecular point group: c1
  Basis Set: CC-PVTZ
  Basis Set:

  -Total Gradient:
     Atom            X                  Y                   Z
    ------   -----------------  -----------------  -----------------
       1       -0.000006362338    -0.000001551921    -0.000002180804
       2       -0.000013597954     0.000039050297    -0.000001160478
       3        0.000029965788    -0.000018759084    -0.000006000851
       4        0.000018180520    -0.000069969038    -0.000001841600
       5       -0.000005159155     0.000009369293     0.000034521026
       6        0.000006546807    -0.000000073505     0.000000202697
       7        0.000004866021     0.000004732402    -0.000002198572
       8       -0.001989159100    -0.002580374970     0.001492776395
       9       -0.000007165724     0.000002547630     0.000002648195
      10        0.000007196972     0.000001048637    -0.000002676411
      11        0.002115014451     0.002827523775     0.000649918487
      12        0.001339021150     0.001728862154    -0.001367028892
      13       -0.000000682926     0.000012680502    -0.000003875503
      14        0.000008161652     0.000003489224     0.000010741692
      15       -0.001466393040    -0.001971746898    -0.000797613972
      16        0.000001418515    -0.000014193019    -0.000008137044
      17        0.000000455144     0.000011795572     0.000014110349
      18        0.000013896880    -0.000014154230     0.000003588273
      19       -0.000009927245     0.000000197911    -0.000017111964
      20       -0.000014998635     0.000050410529     0.000001794969
      21       -0.000001891640    -0.000008871850     0.000005503563
      22       -0.000027756115    -0.000003448830    -0.000000018019
      23       -0.000001630027    -0.000008564576    -0.000005961534

  **** Optimization is complete! (in 6 steps) ****
    Final optimized geometry and variables:
    Molecular point group: c1

    Geometry (in Angstrom), charge = 0, multiplicity = 1:

    O            1.845778441735     1.289786796013    -0.031784464535
    C            1.702207874458     0.114904981317    -0.040692907803
    C            0.378476888471    -0.605562469583    -0.033267442490
    O            2.713410419642    -0.738210320226    -0.058913029052
    C           -0.826101128264     0.324366706601    -0.012459748818
    H            0.360960932300    -1.252803457263    -0.903998919594
    H            0.378572344596    -1.267696208978     0.826476687030
    C           -2.148892135925    -0.438129038750     0.001361535984
    H           -0.787505956686     0.978817003103    -0.876173963720
    H           -0.764235445306     0.969853860078     0.856147404985
    C           -3.366677985221     0.483633749324    -0.030197958914
    H           -2.180889856992    -1.096970763982    -0.863147244357
    H           -2.192644666453    -1.072214984693     0.883262732672
    C           -4.672936651226    -0.246418824448     0.268884824904
    H           -3.441815540095     0.938585494893    -1.013487564430
    H           -3.233149838596     1.291403395805     0.682753281655
    H           -4.839725962616    -1.054543093820    -0.435919671599
    H           -5.521321997860     0.425336566294     0.206896561858
    H           -4.662809099324    -0.675757534337     1.265125831200
    C            4.018722298904    -0.196807337704    -0.067791570048
    H            4.171300215970     0.416534337570    -0.943429658204
    H            4.690334580905    -1.039766388728    -0.082332028741
    H            4.189748871830     0.400899870866     0.815218319612

  Mulliken Charges: (a.u.)
   Center  Symbol    Alpha    Beta     Spin     Total
       1     O     4.19700  4.19700  0.00000 -0.39400
       2     C     2.80678  2.80678  0.00000  0.38644
       3     C     3.10155  3.10155  0.00000 -0.20310
       4     O     4.14648  4.14648  0.00000 -0.29296
       5     C     3.08336  3.08336  0.00000 -0.16673
       6     H     0.44011  0.44011  0.00000  0.11978
       7     H     0.44009  0.44009  0.00000  0.11983
       8     C     3.08971  3.08971  0.00000 -0.17942
       9     H     0.44636  0.44636  0.00000  0.10729
      10     H     0.44646  0.44646  0.00000  0.10707
      11     C     3.08434  3.08434  0.00000 -0.16867
      12     H     0.45526  0.45526  0.00000  0.08947
      13     H     0.45582  0.45582  0.00000  0.08836
      14     C     3.15002  3.15002  0.00000 -0.30003
      15     H     0.45293  0.45293  0.00000  0.09414
      16     H     0.45309  0.45309  0.00000  0.09382
      17     H     0.45535  0.45535  0.00000  0.08929
      18     H     0.44803  0.44803  0.00000  0.10394
      19     H     0.45541  0.45541  0.00000  0.08919
      20     C     3.03779  3.03779  0.00000 -0.07559
      21     H     0.45437  0.45437  0.00000  0.09127
      22     H     0.44535  0.44535  0.00000  0.10930
      23     H     0.45435  0.45435  0.00000  0.09129

   Total alpha = 36.00000, Total beta = 36.00000, Total charge = -0.00000

*** Psi4 exiting successfully. Buy a developer a beer!
