  ==> Input File <==

--------------------------------------------------------------------------
set {
	reference rhf
	basis 6-31G*
}

set_num_threads( 4 )
memory 2 gb

molecule MOL {
0 1

H	 -1.026832	 0.497929	 4.328671
C	 -1.643607	 -0.202162	 3.751536
C	 -2.101755	 0.309195	 2.409439
O	 -1.904911	 -1.273178	 4.194703
C	 -0.941899	 0.836271	 1.553180
H	 -2.639729	 -0.485672	 1.905972
H	 -2.804239	 1.119924	 2.598886
C	 0.036736	 -0.255303	 1.112682
H	 -1.356170	 1.324663	 0.676175
H	 -0.407154	 1.607908	 2.104887
C	 1.180775	 0.282413	 0.250794
H	 -0.506848	 -1.018583	 0.559721
H	 0.450538	 -0.754607	 1.986754
C	 2.148627	 -0.814315	 -0.201312
H	 0.761402	 0.788813	 -0.614895
H	 1.730252	 1.037577	 0.811317
C	 3.580890	 -0.659131	 0.322722
H	 2.166869	 -0.852443	 -1.289387
H	 1.762857	 -1.776509	 0.128956
C	 4.324889	 0.564933	 -0.213704
H	 4.142010	 -1.551473	 0.056605
H	 3.564836	 -0.624694	 1.410140
H	 4.342616	 0.565491	 -1.300421
H	 3.866655	 1.493402	 0.110242
H	 5.353900	 0.572371	 0.132816

	symmetry c1
}
set optking {
	frozen_dihedral = ("
		8 11 14 18
	")
}

ee = optimize('scf')
oeprop('DIPOLE', 'QUADRUPOLE', 'MULLIKEN_CHARGES')
f=open( 'psi4out.xyz', 'w' )
f.write( "25  " )
f.write( str(ee) + "\n" )
f.write( MOL.save_string_xyz() )
f.close()
--------------------------------------------------------------------------

    Molecular point group: c1
  Charge       = 0
  Multiplicity = 1
  Basis Set: 6-31G*
  Basis Set:
  @DF-RHF Final Energy:  -387.11658311706395
    Total Energy =                       -387.1165831170649199
    Molecular point group: c1
  Basis Set: 6-31G*
  Basis Set:
  Basis Set: 6-31G*
  Basis Set:
  @DF-RHF Final Energy:  -387.11657350485814
    Total Energy =                       -387.1165735048581382
  Basis Set: 6-31G*
  Basis Set:
  Basis Set: 6-31G*
  Basis Set:
  @DF-RHF Final Energy:  -387.11407769202219
    Total Energy =                       -387.1140776920216240
  Basis Set: 6-31G*
  Basis Set:
  Basis Set: 6-31G*
  Basis Set:
  @DF-RHF Final Energy:  -387.11695384585937
    Total Energy =                       -387.1169538458591433
  Basis Set: 6-31G*
  Basis Set:
  @DF-RHF Final Energy:  -387.11702606094650
    Total Energy =                       -387.1170260609462730
  Basis Set: 6-31G*
  Basis Set:
  @DF-RHF Final Energy:  -387.11703109475786
    Total Energy =                       -387.1170310947582038
  Basis Set: 6-31G*
  Basis Set:
  Basis Set: 6-31G*
  Basis Set:
  @DF-RHF Final Energy:  -387.11703082598461
    Total Energy =                       -387.1170308259854664
  Basis Set: 6-31G*
  Basis Set:
  Basis Set: 6-31G*
  Basis Set:
  @DF-RHF Final Energy:  -387.11703213678442
    Total Energy =                       -387.1170321367848146
  Basis Set: 6-31G*
  Basis Set:
  Charge       = 0
  Multiplicity = 1
  Basis Set: 6-31G*
  Basis Set:

    Orbital Energies (a.u.)
    -----------------------

    Doubly Occupied:

       1A    -20.562085     2A    -11.326251     3A    -11.235279
       4A    -11.234687     5A    -11.224349     6A    -11.219914
       7A    -11.218062     8A    -11.216591     9A    -11.210554
      10A     -1.402030    11A     -1.103223    12A     -1.068821
      13A     -1.012622    14A     -0.941300    15A     -0.874976
      16A     -0.823405    17A     -0.787998    18A     -0.780395
      19A     -0.665197    20A     -0.659309    21A     -0.633135
      22A     -0.623626    23A     -0.606365    24A     -0.590893
      25A     -0.573277    26A     -0.554636    27A     -0.532844
      28A     -0.522405    29A     -0.512898    30A     -0.494209
      31A     -0.489563    32A     -0.482959    33A     -0.459659
      34A     -0.456444    35A     -0.442211    36A     -0.409627

  @DF-RHF Final Energy:  -387.11703157730585

   => Energetics <=

    Nuclear Repulsion Energy =            441.1354138595631866
    One-Electron Energy =               -1398.6012957001064478
    Two-Electron Energy =                 570.3488502632376367
    DFT Exchange-Correlation Energy =       0.0000000000000000
    Empirical Dispersion Energy =           0.0000000000000000
    PCM Polarization Energy =               0.0000000000000000
    EFP Energy =                            0.0000000000000000
    Total Energy =                       -387.1170315773056245
    Molecular point group: c1
  Basis Set: 6-31G*
  Basis Set:

  -Total Gradient:
     Atom            X                  Y                   Z
    ------   -----------------  -----------------  -----------------
       1       -0.000008383342     0.000020653637    -0.000013758351
       2        0.000041318085    -0.000032432057    -0.000009934207
       3       -0.000006554147     0.000005090268     0.000039095024
       4       -0.000017970071    -0.000006426445    -0.000021107291
       5       -0.000030359320    -0.000022317685    -0.000058074346
       6       -0.000021206437     0.000014907829    -0.000005188100
       7        0.000016415187    -0.000008945549     0.000031471073
       8        0.000092784384     0.000017622245     0.000157904054
       9        0.000015330161    -0.000005896134    -0.000018745171
      10       -0.000005497223     0.000012653325    -0.000014252056
      11       -0.000042085970     0.000019883039    -0.000139491156
      12       -0.000011337771     0.000007537850     0.000003719005
      13       -0.000009218931     0.000001587184     0.000015054090
      14       -0.000141166604    -0.000148332656     0.000025336091
      15        0.000008461334    -0.000001223055     0.000004532340
      16        0.000012860449     0.000017329987     0.000001590933
      17        0.000000582830     0.000001216481    -0.000017835828
      18        0.000128392516     0.000124543997    -0.000000134952
      19        0.000027498371    -0.000012445754    -0.000006512945
      20       -0.000031993047    -0.000004762979     0.000013030892
      21       -0.000009018274    -0.000012716900     0.000003980730
      22        0.000004320076     0.000024224939    -0.000002845139
      23       -0.000008897725    -0.000009125681     0.000000232729
      24       -0.000005229407     0.000013739115     0.000006165527
      25        0.000000954878    -0.000016364999     0.000005767046

  **** Optimization is complete! (in 9 steps) ****
    Final optimized geometry and variables:
    Molecular point group: c1

    Geometry (in Angstrom), charge = 0, multiplicity = 1:

    H           -1.575601123006     0.578808960942     2.876773076527
    C           -2.196111838162    -0.097065817658     2.275120521043
    C           -2.638620422894     0.458561440127     0.945414767732
    O           -2.477769252345    -1.175113805799     2.687847474424
    C           -1.465429824709     0.989527610412     0.109629857671
    H           -3.186521810513    -0.313446363719     0.417572120600
    H           -3.328905835551     1.275046433289     1.153480157589
    C           -0.499335146010    -0.104228177674    -0.350886043252
    H           -1.866409741530     1.505445637607    -0.758081136970
    H           -0.923645264233     1.739675334619     0.683465359941
    C            0.652731206782     0.435470968685    -1.202372427812
    H           -1.050561862788    -0.850635068939    -0.919047067607
    H           -0.090209396143    -0.625614971285     0.512990236262
    C            1.637749929778    -0.665130334900    -1.660196590373
    H            0.240063218935     0.952816273113    -2.064522516013
    H            1.182487344846     1.192162534243    -0.628788934507
    C            3.066819392664    -0.497832358387    -1.130065369352
    H            1.671862111269    -0.704631394619    -2.746003067747
    H            1.263566111020    -1.634038662047    -1.340182048751
    C            3.817513768841     0.687335016995    -1.738940078448
    H            3.625697185085    -1.407591483634    -1.334631569890
    H            3.039020949619    -0.395154472892    -0.046882711551
    H            3.901824629912     0.579098548760    -2.816798645331
    H            3.316384281824     1.629985139448    -1.541593869730
    H            4.822451931051     0.760746324168    -1.334729953118

  Mulliken Charges: (a.u.)
   Center  Symbol    Alpha    Beta     Spin     Total
       1     H     0.43264  0.43264  0.00000  0.13473
       2     C     2.83084  2.83084  0.00000  0.33833
       3     C     3.20806  3.20806  0.00000 -0.41612
       4     O     4.23777  4.23777  0.00000 -0.47555
       5     C     3.16723  3.16723  0.00000 -0.33446
       6     H     0.39970  0.39970  0.00000  0.20060
       7     H     0.40664  0.40664  0.00000  0.18672
       8     C     3.15727  3.15727  0.00000 -0.31455
       9     H     0.41275  0.41275  0.00000  0.17450
      10     H     0.41966  0.41966  0.00000  0.16068
      11     C     3.15549  3.15549  0.00000 -0.31098
      12     H     0.41747  0.41747  0.00000  0.16505
      13     H     0.41833  0.41833  0.00000  0.16334
      14     C     3.15786  3.15786  0.00000 -0.31572
      15     H     0.41997  0.41997  0.00000  0.16007
      16     H     0.42087  0.42087  0.00000  0.15825
      17     C     3.15402  3.15402  0.00000 -0.30805
      18     H     0.42048  0.42048  0.00000  0.15905
      19     H     0.41706  0.41706  0.00000  0.16587
      20     C     3.24055  3.24055  0.00000 -0.48109
      21     H     0.42037  0.42037  0.00000  0.15925
      22     H     0.42352  0.42352  0.00000  0.15296
      23     H     0.42171  0.42171  0.00000  0.15657
      24     H     0.42093  0.42093  0.00000  0.15814
      25     H     0.41880  0.41880  0.00000  0.16240

   Total alpha = 36.00000, Total beta = 36.00000, Total charge = -0.00000
