  ==> Input File <==

--------------------------------------------------------------------------
set {
	reference rhf
	basis 6-31G*
}

set_num_threads( 1 )
memory 2 gb

molecule MOL {
0 1

H	 3.280409	 -0.507888	 -1.017400
N	 3.092854	 -0.246221	 -0.068770
C	 1.865559	 0.531981	 0.018834
H	 3.875945	 0.297054	 0.241796
C	 0.645745	 -0.382037	 -0.029944
H	 1.841966	 1.207024	 -0.831236
H	 1.815756	 1.155410	 0.915079
C	 -0.679275	 0.379305	 0.025956
H	 0.698998	 -0.976915	 -0.937203
H	 0.693479	 -1.083846	 0.802235
C	 -1.903357	 -0.536963	 -0.023547
H	 -0.726309	 1.082987	 -0.803784
H	 -0.717680	 0.977832	 0.934877
C	 -3.225172	 0.228290	 0.028445
H	 -1.867824	 -1.134999	 -0.931459
H	 -1.860449	 -1.239604	 0.805977
H	 -3.313397	 0.915643	 -0.808262
H	 -4.073500	 -0.448134	 -0.008893
H	 -3.306061	 0.809945	 0.942516

	symmetry c1
}
set optking {
	frozen_dihedral = ("
		6 3 5 9,
		12 8 5 9,
		12 8 11 15
	")
}

ee = energy('scf')
oeprop('DIPOLE', 'QUADRUPOLE', 'MULLIKEN_CHARGES')
f=open( 'psi4out.xyz', 'w' )
f.write( "19  " )
f.write( str(ee) + "\n" )
f.write( MOL.save_string_xyz() )
f.close()
--------------------------------------------------------------------------

    Molecular point group: c1

    Geometry (in Angstrom), charge = 0, multiplicity = 1:

       Center              X                  Y                   Z               Mass
    ------------   -----------------  -----------------  -----------------  -----------------
           H          3.279672332654    -0.510893823835    -1.001014396341     1.007825032070
           N          3.092117332654    -0.249226823835    -0.052384396341    14.003074004780
           C          1.864822332654     0.528975176165     0.035219603659    12.000000000000
           H          3.875208332654     0.294048176165     0.258181603659     1.007825032070
           C          0.645008332654    -0.385042823835    -0.013558396341    12.000000000000
           H          1.841229332654     1.204018176165    -0.814850396341     1.007825032070
           H          1.815019332654     1.152404176165     0.931464603659     1.007825032070
           C         -0.680011667346     0.376299176165     0.042341603659    12.000000000000
           H          0.698261332654    -0.979920823835    -0.920817396341     1.007825032070
           H          0.692742332654    -1.086851823835     0.818620603659     1.007825032070
           C         -1.904093667346    -0.539968823835    -0.007161396341    12.000000000000
           H         -0.727045667346     1.079981176165    -0.787398396341     1.007825032070
           H         -0.718416667346     0.974826176165     0.951262603659     1.007825032070
           C         -3.225908667346     0.225284176165     0.044830603659    12.000000000000
           H         -1.868560667346    -1.138004823835    -0.915073396341     1.007825032070
           H         -1.861185667346    -1.242609823835     0.822362603659     1.007825032070
           H         -3.314133667346     0.912637176165    -0.791876396341     1.007825032070
           H         -4.074236667346    -0.451139823835     0.007492603659     1.007825032070
           H         -3.306797667346     0.806939176165     0.958901603659     1.007825032070

  Charge       = 0
  Multiplicity = 1
  Basis Set: 6-31G*
  Basis Set:

    Orbital Energies (a.u.)
    -----------------------

    Doubly Occupied:

       1A    -15.531239     2A    -11.240255     3A    -11.213027
       4A    -11.211412     5A    -11.206850     6A    -11.206774
       7A     -1.176313     8A     -1.071920     9A     -0.997534
      10A     -0.899627    11A     -0.811308    12A     -0.787475
      13A     -0.669640    14A     -0.637480    15A     -0.613958
      16A     -0.586887    17A     -0.566306    18A     -0.551714
      19A     -0.526709    20A     -0.500623    21A     -0.478950
      22A     -0.464067    23A     -0.460156    24A     -0.449718
      25A     -0.376687

  @DF-RHF Final Energy:  -251.34902262946764

   => Energetics <=

    Nuclear Repulsion Energy =            245.5664228347353628
    One-Electron Energy =                -825.3575570891364350
    Two-Electron Energy =                 328.4421116249328065
    DFT Exchange-Correlation Energy =       0.0000000000000000
    Empirical Dispersion Energy =           0.0000000000000000
    PCM Polarization Energy =               0.0000000000000000
    EFP Energy =                            0.0000000000000000
    Total Energy =                       -251.3490226294682657

  Mulliken Charges: (a.u.)
   Center  Symbol    Alpha    Beta     Spin     Total
       1     H     0.33351  0.33351  0.00000  0.33298
       2     N     3.92241  3.92241  0.00000 -0.84482
       3     C     3.06563  3.06563  0.00000 -0.13126
       4     H     0.33257  0.33257  0.00000  0.33485
       5     C     3.14535  3.14535  0.00000 -0.29069
       6     H     0.43322  0.43322  0.00000  0.13356
       7     H     0.42074  0.42074  0.00000  0.15852
       8     C     3.15577  3.15577  0.00000 -0.31154
       9     H     0.42620  0.42620  0.00000  0.14761
      10     H     0.41563  0.41563  0.00000  0.16875
      11     C     3.15058  3.15058  0.00000 -0.30115
      12     H     0.42540  0.42540  0.00000  0.14920
      13     H     0.42463  0.42463  0.00000  0.15075
      14     C     3.23920  3.23920  0.00000 -0.47839
      15     H     0.42310  0.42310  0.00000  0.15379
      16     H     0.42213  0.42213  0.00000  0.15573
      17     H     0.42236  0.42236  0.00000  0.15527
      18     H     0.41951  0.41951  0.00000  0.16097
      19     H     0.42207  0.42207  0.00000  0.15586

   Total alpha = 25.00000, Total beta = 25.00000, Total charge =  0.00000
