                              Psi4 1.0.54 Driver

  ==> Input File <==

--------------------------------------------------------------------------
set {
	reference rhf
	basis cc-pvtz
}

set_num_threads( 4 )
memory 2 gb

molecule MOL {
0 1

O	 -1.278239	 1.034789	 -0.784693
C	 -1.204115	 0.062668	 -0.112312
C	 -2.386398	 -0.667698	 0.460323
O	 -0.068058	 -0.518372	 0.226882
H	 -2.382952	 -1.693172	 0.114333
H	 -3.296656	 -0.175702	 0.158400
H	 -2.312537	 -0.685191	 1.540100
C	 1.149260	 -0.099449	 -0.398773
C	 2.085238	 -1.290328	 -0.345256
C	 1.701297	 1.122137	 0.313680
H	 0.925636	 0.150544	 -1.424729
H	 1.653231	 -2.139851	 -0.858512
H	 3.026324	 -1.044290	 -0.822261
H	 2.285170	 -1.575933	 0.680606
H	 2.629486	 1.433376	 -0.151182
H	 1.003653	 1.946161	 0.259601
H	 1.899772	 0.896977	 1.355406

	symmetry c1
}
set optking {
	frozen_dihedral = ("
		8 4 2 1
	")
}

ee,wfn = optimize('scf', return_wfn=True)
oeprop( wfn, 'DIPOLE', 'QUADRUPOLE', 'MULLIKEN_CHARGES')
f=open( 'psi4out.xyz', 'w' )
f.write( "17  " )
f.write( str(ee) + "\n" )
f.write( MOL.save_string_xyz() )
f.close()
--------------------------------------------------------------------------

    Molecular point group: c1
  Charge       = 0
  Multiplicity = 1
  Basis Set: CC-PVTZ
  Basis Set:
  @DF-RHF Final Energy:  -345.04277178150886
    Total Energy =                       -345.0427717815092592
    Molecular point group: c1
  Basis Set: CC-PVTZ
  Basis Set:
  Basis Set: CC-PVTZ
  Basis Set:
  @DF-RHF Final Energy:  -345.03877559392396
    Total Energy =                       -345.0387755939239014
  Basis Set: CC-PVTZ
  Basis Set:
  Basis Set: CC-PVTZ
  Basis Set:
  @DF-RHF Final Energy:  -345.04245382486346
    Total Energy =                       -345.0424538248637418
  Basis Set: CC-PVTZ
  Basis Set:
  Basis Set: CC-PVTZ
  Basis Set:
  @DF-RHF Final Energy:  -345.04287762402214
    Total Energy =                       -345.0428776240216848
  Basis Set: CC-PVTZ
  Basis Set:
  @DF-RHF Final Energy:  -345.04288174986249
    Total Energy =                       -345.0428817498620901
  Basis Set: CC-PVTZ
  Basis Set:
  @DF-RHF Final Energy:  -345.04290330159625
    Total Energy =                       -345.0429033015961409
  Basis Set: CC-PVTZ
  Basis Set:
  Basis Set: CC-PVTZ
  Basis Set:
  @DF-RHF Final Energy:  -345.04290611799155
    Total Energy =                       -345.0429061179913219
  Basis Set: CC-PVTZ
  Basis Set:
  Basis Set: CC-PVTZ
  Basis Set:
  @DF-RHF Final Energy:  -345.04290778047675
    Total Energy =                       -345.0429077804766962
  Basis Set: CC-PVTZ
  Basis Set:
  Charge       = 0
  Multiplicity = 1
  Basis Set: CC-PVTZ
  Basis Set:

    Orbital Energies (a.u.)
    -----------------------

    Doubly Occupied:

       1A    -20.590847     2A    -20.531747     3A    -11.366862
       4A    -11.288565     5A    -11.230642     6A    -11.217966
       7A    -11.213070     8A     -1.468291     9A     -1.364524
      10A     -1.079511    11A     -1.005642    12A     -0.948251
      13A     -0.849716    14A     -0.768394    15A     -0.694489
      16A     -0.673453    17A     -0.660664    18A     -0.612881
      19A     -0.587445    20A     -0.579247    21A     -0.564621
      22A     -0.550693    23A     -0.539900    24A     -0.520157
      25A     -0.503429    26A     -0.483398    27A     -0.449488
      28A     -0.439718

  @DF-RHF Final Energy:  -345.04290835065825

   => Energetics <=

    Nuclear Repulsion Energy =            323.4199482562434582
    One-Electron Energy =               -1111.3584905923044062
    Two-Electron Energy =                 442.8956339854030375
    DFT Exchange-Correlation Energy =       0.0000000000000000
    Empirical Dispersion Energy =           0.0000000000000000
    PCM Polarization Energy =               0.0000000000000000
    EFP Energy =                            0.0000000000000000
    Total Energy =                       -345.0429083506578536
    Molecular point group: c1
  Basis Set: CC-PVTZ
  Basis Set:

  -Total Gradient:
     Atom            X                  Y                   Z
    ------   -----------------  -----------------  -----------------
       1        0.000336312086     0.001487148670     0.002757420495
       2       -0.000826245699    -0.003129741556    -0.005197888545
       3        0.000009691854     0.000053482019     0.000056837675
       4        0.000894942513     0.003067968707     0.004132091382
       5        0.000005424454    -0.000010132996     0.000017368542
       6       -0.000002990609    -0.000001545764     0.000006698940
       7       -0.000001390822     0.000010498527     0.000011199226
       8       -0.000492061903    -0.001491715305    -0.001801602409
       9        0.000011279661     0.000009420018    -0.000008435912
      10        0.000083187839    -0.000030285397     0.000020539961
      11        0.000015199528    -0.000004160119     0.000016762442
      12        0.000002826653     0.000004967678     0.000003738102
      13        0.000002911834    -0.000003489998    -0.000000553484
      14       -0.000006773635     0.000005434772    -0.000007269920
      15       -0.000006419402     0.000012992962     0.000003900008
      16       -0.000011674624     0.000011988798     0.000000846121
      17       -0.000014219726     0.000007168984    -0.000011652624

  **** Optimization is complete! (in 9 steps) ****
    Final optimized geometry and variables:
    Molecular point group: c1

    Geometry (in Angstrom), charge = 0, multiplicity = 1:

    O           -1.288195221568     1.183310022950    -0.515824805511
    C           -1.203017781912     0.154311619781     0.064028882514
    C           -2.365814962665    -0.577171367756     0.673884161413
    O           -0.065834053652    -0.481548146173     0.279798656877
    H           -2.466461943313    -1.548919344431     0.207384548946
    H           -3.267955054047    -0.004117893783     0.534182800664
    H           -2.182542174374    -0.736828930735     1.728380865895
    C            1.123635271552    -0.038454597137    -0.382458037806
    C            1.980755388999    -1.271333752699    -0.589220678452
    C            1.810088406811     1.029359291351     0.450107541794
    H            0.835220997414     0.378007932150    -1.335791240031
    H            1.455680202921    -2.008241487874    -1.183469258002
    H            2.895757366482    -1.004748812117    -1.104460895569
    H            2.241224233699    -1.721209723275     0.361346151109
    H            2.716870267604     1.358841268484    -0.043682459128
    H            1.163954452597     1.885998008633     0.580519804244
    H            2.075298609350     0.637688076113     1.425550363844

  Mulliken Charges: (a.u.)
   Center  Symbol    Alpha    Beta     Spin     Total
       1     O     4.19906  4.19906  0.00000 -0.39812
       2     C     2.80667  2.80667  0.00000  0.38666
       3     C     3.13853  3.13853  0.00000 -0.27706
       4     O     4.16428  4.16428  0.00000 -0.32856
       5     H     0.44672  0.44672  0.00000  0.10655
       6     H     0.43849  0.43849  0.00000  0.12302
       7     H     0.44532  0.44532  0.00000  0.10936
       8     C     2.93063  2.93063  0.00000  0.13873
       9     C     3.13728  3.13728  0.00000 -0.27456
      10     C     3.15242  3.15242  0.00000 -0.30483
      11     H     0.44388  0.44388  0.00000  0.11223
      12     H     0.44768  0.44768  0.00000  0.10464
      13     H     0.45397  0.45397  0.00000  0.09207
      14     H     0.45221  0.45221  0.00000  0.09558
      15     H     0.45072  0.45072  0.00000  0.09856
      16     H     0.43814  0.43814  0.00000  0.12372
      17     H     0.45401  0.45401  0.00000  0.09199

   Total alpha = 28.00000, Total beta = 28.00000, Total charge =  0.00000

*** Psi4 exiting successfully. Buy a developer a beer!
