                              Psi4 1.0.54 Driver

  ==> Input File <==

--------------------------------------------------------------------------
set {
	reference rhf
	basis cc-pvtz
}

set_num_threads( 4 )
memory 2 gb

molecule MOL {
0 1

H	 -2.837570	 0.171066	 -0.030741
N	 -1.875141	 0.287517	 0.204289
C	 -1.132280	 0.853358	 -0.906622
H	 -1.510180	 -0.611858	 0.436507
C	 0.325538	 1.015302	 -0.541672
H	 -1.194449	 0.258724	 -1.817165
H	 -1.536460	 1.834418	 -1.130700
O	 0.881195	 -0.248324	 -0.336237
H	 0.852468	 1.529642	 -1.344151
H	 0.411703	 1.614708	 0.361775
C	 2.208068	 -0.234417	 0.074171
H	 2.725499	 -1.027054	 -0.446768
H	 2.688377	 0.712084	 -0.164856
H	 2.295137	 -0.403407	 1.144883

	symmetry c1
}
set optking {
	frozen_dihedral = ("
		5 8 11 13
	")
}

ee,wfn = optimize('scf', return_wfn=True)
oeprop( wfn, 'DIPOLE', 'QUADRUPOLE', 'MULLIKEN_CHARGES')
f=open( 'psi4out.xyz', 'w' )
f.write( "14  " )
f.write( str(ee) + "\n" )
f.write( MOL.save_string_xyz() )
f.close()
--------------------------------------------------------------------------

    Molecular point group: c1
  Charge       = 0
  Multiplicity = 1
  Basis Set: CC-PVTZ
  Basis Set:
  @DF-RHF Final Energy:  -248.22325246428636
    Total Energy =                       -248.2232524642863609
    Molecular point group: c1
  Basis Set: CC-PVTZ
  Basis Set:
  Basis Set: CC-PVTZ
  Basis Set:
  @DF-RHF Final Energy:  -248.22341801958603
    Total Energy =                       -248.2234180195861200
  Basis Set: CC-PVTZ
  Basis Set:
  Basis Set: CC-PVTZ
  Basis Set:
  @DF-RHF Final Energy:  -248.22347546457064
    Total Energy =                       -248.2234754645705834
  Basis Set: CC-PVTZ
  Basis Set:
  Charge       = 0
  Multiplicity = 1
  Basis Set: CC-PVTZ
  Basis Set:

    Orbital Energies (a.u.)
    -----------------------

    Doubly Occupied:

       1A    -20.548022     2A    -15.523247     3A    -11.264328
       4A    -11.263324     5A    -11.239500     6A     -1.380857
       7A     -1.175682     8A     -1.000401     9A     -0.907830
      10A     -0.815503    11A     -0.684490    12A     -0.673845
      13A     -0.645657    14A     -0.611328    15A     -0.607546
      16A     -0.541313    17A     -0.534530    18A     -0.497472
      19A     -0.473969    20A     -0.415631    21A     -0.383629

  @DF-RHF Final Energy:  -248.22347584879503

   => Energetics <=

    Nuclear Repulsion Energy =            194.4692695657687977
    One-Electron Energy =                -723.0092848412061812
    Two-Electron Energy =                 280.3165394266424073
    DFT Exchange-Correlation Energy =       0.0000000000000000
    Empirical Dispersion Energy =           0.0000000000000000
    PCM Polarization Energy =               0.0000000000000000
    EFP Energy =                            0.0000000000000000
    Total Energy =                       -248.2234758487949193
    Molecular point group: c1
  Basis Set: CC-PVTZ
  Basis Set:

  -Total Gradient:
     Atom            X                  Y                   Z
    ------   -----------------  -----------------  -----------------
       1        0.000005536242     0.000006499100    -0.000010796734
       2        0.000017580185     0.000008437282    -0.000009896459
       3       -0.000029697324     0.000026683944    -0.000011263855
       4        0.000006755175     0.000003808077    -0.000003144134
       5        0.000513221298    -0.000050137348    -0.001838772887
       6       -0.000002254404     0.000001708680     0.000013302255
       7       -0.000033628002     0.000009659915    -0.000009647005
       8       -0.000871045478     0.000340986500     0.003334959994
       9        0.000000429454    -0.000022424874     0.000011141114
      10        0.000008784637    -0.000002530766    -0.000010575638
      11        0.001060293269    -0.001224279592    -0.003612124622
      12        0.000020605815    -0.000006642254    -0.000006080075
      13       -0.000681890260     0.000902144296     0.002157857251
      14       -0.000014690607     0.000006087042    -0.000004959205

  **** Optimization is complete! (in 4 steps) ****
    Final optimized geometry and variables:
    Molecular point group: c1

    Geometry (in Angstrom), charge = 0, multiplicity = 1:

    H           -2.924538995218    -0.140099550248     0.267395056504
    N           -1.961699312493    -0.022937936571     0.500312416149
    C           -1.221121983011     0.540582354796    -0.613211621821
    H           -1.596109558360    -0.921892105032     0.733105172975
    C            0.236854812531     0.706490651558    -0.250836456554
    H           -1.282825527553    -0.057628519215    -1.521461486512
    H           -1.627349072722     1.520159599545    -0.840578471367
    O            0.792327329546    -0.558033530708    -0.043399122264
    H            0.761349437452     1.217032832351    -1.056346928590
    H            0.320083416970     1.310980652714     0.649261981594
    C            2.124294947969    -0.574932333060     0.365820441414
    H            2.635410093152    -1.387126444228    -0.133574008070
    H            2.628884947519     0.357487340015     0.132557937513
    H            2.192707488797    -0.726872841726     1.439211475449

  Mulliken Charges: (a.u.)
   Center  Symbol    Alpha    Beta     Spin     Total
       1     H     0.43032  0.43032  0.00000  0.13936
       2     N     3.69422  3.69422  0.00000 -0.38844
       3     C     3.02394  3.02394  0.00000 -0.04788
       4     H     0.42226  0.42226  0.00000  0.15548
       5     C     2.96750  2.96750  0.00000  0.06501
       6     H     0.46479  0.46479  0.00000  0.07043
       7     H     0.45873  0.45873  0.00000  0.08254
       8     O     4.18353  4.18353  0.00000 -0.36706
       9     H     0.46929  0.46929  0.00000  0.06142
      10     H     0.46959  0.46959  0.00000  0.06082
      11     C     3.02847  3.02847  0.00000 -0.05693
      12     H     0.45375  0.45375  0.00000  0.09250
      13     H     0.47205  0.47205  0.00000  0.05590
      14     H     0.46157  0.46157  0.00000  0.07687

   Total alpha = 21.00000, Total beta = 21.00000, Total charge =  0.00000

*** Psi4 exiting successfully. Buy a developer a beer!
