  ==> Input File <==

--------------------------------------------------------------------------
set {
	reference rhf
	basis cc-pvtz
}

set_num_threads( 4 )
memory 2 gb

molecule MOL {
0 1

H	 -1.800566	 2.129874	 1.009273
C	 -0.784662	 1.758979	 1.045952
C	 -0.600949	 0.658697	 -0.000002
H	 -0.593000	 1.381642	 2.041426
H	 -0.111101	 2.584799	 0.860416
C	 0.763408	 0.112229	 -0.000006
H	 -1.283689	 -0.161192	 0.180498
H	 -0.804506	 1.035187	 -0.993860
N	 1.806008	 -0.317179	 0.000007

	symmetry c1
}
set optking {
	frozen_dihedral = ("
		7 3 6 9
	")
}

ee = optimize('scf')
oeprop('DIPOLE', 'QUADRUPOLE', 'MULLIKEN_CHARGES')
f=open( 'psi4out.xyz', 'w' )
f.write( "9  " )
f.write( str(ee) + "\n" )
f.write( MOL.save_string_xyz() )
f.close()
--------------------------------------------------------------------------

    Molecular point group: c1
  Charge       = 0
  Multiplicity = 1
  Basis Set: CC-PVTZ
  Basis Set:
  @DF-RHF Final Energy:  -171.02344547948269
    Total Energy =                       -171.0234454794827172
    Molecular point group: c1
  Basis Set: CC-PVTZ
  Basis Set:
  Basis Set: CC-PVTZ
  Basis Set:
  @DF-RHF Final Energy:  -170.64901452861875
    Total Energy =                       -170.6490145286188067
  Basis Set: CC-PVTZ
  Basis Set:
  Basis Set: CC-PVTZ
  Basis Set:
  @DF-RHF Final Energy:  -170.67521548505800
    Total Energy =                       -170.6752154850581178
  Basis Set: CC-PVTZ
  Basis Set:
  Basis Set: CC-PVTZ
  Basis Set:
  @DF-RHF Final Energy:  -170.78255030123151
    Total Energy =                       -170.7825503012315664
  Basis Set: CC-PVTZ
  Basis Set:
  @DF-RHF Final Energy:  -170.91643654385888
    Total Energy =                       -170.9164365438588504
  @DF-RHF Final Energy:  -170.76251764044730
    Total Energy =                       -170.7625176404472143
  @DF-RHF Final Energy:  -170.95017016633088
    Total Energy =                       -170.9501701663309632
  @DF-RHF Final Energy:  -171.00351744081172
    Total Energy =                       -171.0035174408116632
  @DF-RHF Final Energy:  -170.93460582899900
    Total Energy =                       -170.9346058289990253
  @DF-RHF Final Energy:  -170.87011859330570
    Total Energy =                       -170.8701185933057332
  @DF-RHF Final Energy:  -170.93751878002254
    Total Energy =                       -170.9375187800224865
  @DF-RHF Final Energy:  -170.96935405268943
    Total Energy =                       -170.9693540526893969
  @DF-RHF Final Energy:  -171.01891970231509
    Total Energy =                       -171.0189197023151166
  @DF-RHF Final Energy:  -171.01425575807662
    Total Energy =                       -171.0142557580767289
  @DF-RHF Final Energy:  -171.02290000847842
    Total Energy =                       -171.0229000084784161
  @DF-RHF Final Energy:  -171.02341251647792
    Total Energy =                       -171.0234125164779755
  @DF-RHF Final Energy:  -170.97784287962054
    Total Energy =                       -170.9778428796205958
  @DF-RHF Final Energy:  -171.01623664315866
    Total Energy =                       -171.0162366431586634
  @DF-RHF Final Energy:  -171.02265823944310
    Total Energy =                       -171.0226582394431034
  @DF-RHF Final Energy:  -171.02315657622103
    Total Energy =                       -171.0231565762210550
  @DF-RHF Final Energy:  -171.02343899599805
    Total Energy =                       -171.0234389959980490
  @DF-RHF Final Energy:  -171.01534199296020
    Total Energy =                       -171.0153419929601171
  @DF-RHF Final Energy:  -171.01878912653149
    Total Energy =                       -171.0187891265314306
  @DF-RHF Final Energy:  -171.02191282803471
    Total Energy =                       -171.0219128280346013
  @DF-RHF Final Energy:  -171.02124463950327
    Total Energy =                       -171.0212446395032089
  @DF-RHF Final Energy:  -171.02315740628231
    Total Energy =                       -171.0231574062822801
  @DF-RHF Final Energy:  -171.02337444844565
    Total Energy =                       -171.0233744484457361
  @DF-RHF Final Energy:  -171.02155219011541
    Total Energy =                       -171.0215521901154716
  @DF-RHF Final Energy:  -171.02125350495635
    Total Energy =                       -171.0212535049564906
  @DF-RHF Final Energy:  -171.02092545785027
    Total Energy =                       -171.0209254578503248
  @DF-RHF Final Energy:  -171.02109835587751
    Total Energy =                       -171.0210983558775979
  @DF-RHF Final Energy:  -171.02305857095354
    Total Energy =                       -171.0230585709536228
  @DF-RHF Final Energy:  -171.02344276026702
    Total Energy =                       -171.0234427602670735
  @DF-RHF Final Energy:  -171.02304146251674
    Total Energy =                       -171.0230414625167441
  @DF-RHF Final Energy:  -171.02323482029306
    Total Energy =                       -171.0232348202931121
  @DF-RHF Final Energy:  -171.02331850686880
    Total Energy =                       -171.0233185068688613
  Basis Set: CC-PVTZ
  Basis Set:
  @DF-RHF Final Energy:  -171.02334283553540
    Total Energy =                       -171.0233428355355443
  Basis Set: CC-PVTZ
  Basis Set:
  Basis Set: CC-PVTZ
  Basis Set:
  @DF-RHF Final Energy:  -171.02335823793027
    Total Energy =                       -171.0233582379303527
  Basis Set: CC-PVTZ
  Basis Set:
  Basis Set: CC-PVTZ
  Basis Set:
  @DF-RHF Final Energy:  -171.02332349352804
    Total Energy =                       -171.0233234935279825
  Basis Set: CC-PVTZ
  Basis Set:
  Charge       = 0
  Multiplicity = 1
  Basis Set: CC-PVTZ
  Basis Set:

    Orbital Energies (a.u.)
    -----------------------

    Doubly Occupied:

       1A    -15.556685     2A    -11.282751     3A    -11.261300
       4A    -11.244732     5A     -1.228816     6A     -1.084033
       7A     -0.913711     8A     -0.699338     9A     -0.661209
      10A     -0.590157    11A     -0.563102    12A     -0.545444
      13A     -0.539876    14A     -0.463828    15A     -0.463554

  @DF-RHF Final Energy:  -171.02334891439006

   => Energetics <=

    Nuclear Repulsion Energy =            103.6979502259155907
    One-Electron Energy =                -435.2455263558628076
    Two-Electron Energy =                 160.5242272155572607
    DFT Exchange-Correlation Energy =       0.0000000000000000
    Empirical Dispersion Energy =           0.0000000000000000
    PCM Polarization Energy =               0.0000000000000000
    EFP Energy =                            0.0000000000000000
    Total Energy =                       -171.0233489143899703
    Molecular point group: c1
  Basis Set: CC-PVTZ
  Basis Set:

  -Total Gradient:
     Atom            X                  Y                   Z
    ------   -----------------  -----------------  -----------------
       1        0.000172856216     0.000137150182     0.000111932167
       2       -0.000954499883     0.000515518510    -0.000470861044
       3        0.000773323807     0.002459514960     0.000771184722
       4       -0.000070986857    -0.000100818725     0.000070890202
       5        0.000112713153     0.000256399344     0.000030487857
       6       -0.002901192703    -0.004173035750    -0.000322946876
       7        0.000686630535    -0.001102860870     0.000035292937
       8        0.000086085336     0.000491322855    -0.000080586300
       9        0.002095070390     0.001516809496    -0.000145393664

    Molecular point group: c1

    Geometry (in Angstrom), charge = 0, multiplicity = 1:

    H           -2.058538906750     1.519963723181     0.689275249758
    C           -1.046085572775     1.143723070141     0.752093992606
    C           -0.840666814696     0.046135393723    -0.292528811668
    H           -0.883488081593     0.762531345357     1.751513834866
    H           -0.363684731740     1.967113246595     0.587286478333
    C            0.523920917361    -0.500822311432    -0.279517797784
    H           -1.521638396036    -0.779518389348    -0.127990149261
    H           -1.028006114433     0.428017101487    -1.287977631868
    N            1.589304763694    -0.871026152171    -0.270318586723

  Mulliken Charges: (a.u.)
   Center  Symbol    Alpha    Beta     Spin     Total
       1     H     0.44596  0.44596  0.00000  0.10807
       2     C     3.13502  3.13502  0.00000 -0.27004
       3     C     3.07945  3.07945  0.00000 -0.15890
       4     H     0.44498  0.44498  0.00000  0.11003
       5     H     0.44468  0.44468  0.00000  0.11065
       6     C     3.04247  3.04247  0.00000 -0.08495
       7     H     0.43263  0.43263  0.00000  0.13475
       8     H     0.43202  0.43202  0.00000  0.13595
       9     N     3.54278  3.54278  0.00000 -0.08556

   Total alpha = 15.00000, Total beta = 15.00000, Total charge =  0.00000
