  ==> Input File <==

--------------------------------------------------------------------------
set {
	reference rhf
	basis 6-31G*
}

set_num_threads( 4 )
memory 2 gb

molecule MOL {
0 1

H	 3.236351	 0.153467	 -0.378582
N	 2.434251	 -0.367735	 -0.081097
C	 1.267428	 0.496480	 0.024474
H	 2.660654	 -0.762675	 0.812031
C	 -0.016086	 -0.325158	 -0.029487
H	 1.288818	 1.183521	 -0.816092
H	 1.267576	 1.109062	 0.929528
C	 -1.282277	 0.529072	 0.046735
H	 -0.012495	 -0.908639	 -0.945788
H	 -0.015903	 -1.041248	 0.791956
C	 -2.563920	 -0.301775	 -0.006060
H	 -1.284084	 1.244622	 -0.773004
H	 -1.271387	 1.115393	 0.963286
H	 -2.621848	 -0.873522	 -0.927727
H	 -3.445135	 0.329952	 0.047812
H	 -2.609542	 -1.004582	 0.821105

	symmetry c1
}
set optking {
	frozen_dihedral = ("
		1 2 3 6
	")
}

ee = optimize('scf')
oeprop('DIPOLE', 'QUADRUPOLE', 'MULLIKEN_CHARGES')
f=open( 'psi4out.xyz', 'w' )
f.write( "16  " )
f.write( str(ee) + "\n" )
f.write( MOL.save_string_xyz() )
f.close()
--------------------------------------------------------------------------

    Molecular point group: c1
  Charge       = 0
  Multiplicity = 1
  Basis Set: 6-31G*
  Basis Set:
  @DF-RHF Final Energy:  -212.31630409245136
    Total Energy =                       -212.3163040924513325
    Molecular point group: c1
  Basis Set: 6-31G*
  Basis Set:
  Basis Set: 6-31G*
  Basis Set:
  @DF-RHF Final Energy:  -212.31639347226391
    Total Energy =                       -212.3163934722640533
  Basis Set: 6-31G*
  Basis Set:
  Basis Set: 6-31G*
  Basis Set:
  @DF-RHF Final Energy:  -212.31641387791706
    Total Energy =                       -212.3164138779172845
  Basis Set: 6-31G*
  Basis Set:
  Charge       = 0
  Multiplicity = 1
  Basis Set: 6-31G*
  Basis Set:

    Orbital Energies (a.u.)
    -----------------------

    Doubly Occupied:

       1A    -15.531690     2A    -11.240059     3A    -11.213640
       4A    -11.206890     5A    -11.206829     6A     -1.175284
       7A     -1.058216     8A     -0.957942     9A     -0.843002
      10A     -0.789800    11A     -0.669879    12A     -0.630949
      13A     -0.607288    14A     -0.575957    15A     -0.559224
      16A     -0.527920    17A     -0.495659    18A     -0.470423
      19A     -0.465048    20A     -0.460819    21A     -0.378237

  @DF-RHF Final Energy:  -212.31641466606493

   => Energetics <=

    Nuclear Repulsion Energy =            186.1126463014874730
    One-Electron Energy =                -654.7286076582016676
    Two-Electron Energy =                 256.2995466906493220
    DFT Exchange-Correlation Energy =       0.0000000000000000
    Empirical Dispersion Energy =           0.0000000000000000
    PCM Polarization Energy =               0.0000000000000000
    EFP Energy =                            0.0000000000000000
    Total Energy =                       -212.3164146660648726
    Molecular point group: c1
  Basis Set: 6-31G*
  Basis Set:

  -Total Gradient:
     Atom            X                  Y                   Z
    ------   -----------------  -----------------  -----------------
       1       -0.000533394041    -0.000424037045    -0.002106184329
       2        0.000922590854     0.000778967642     0.002903129058
       3       -0.001499110999    -0.001676999461    -0.001811088147
       4       -0.000058340331     0.000024277374    -0.000043862623
       5        0.000045667009    -0.000016823468    -0.000040904319
       6        0.001065109259     0.001256372126     0.001094820190
       7       -0.000010739321     0.000022393115    -0.000015970818
       8        0.000038116012     0.000017696671     0.000045327016
       9        0.000028621602     0.000024021791    -0.000022378852
      10       -0.000010718283     0.000009907707    -0.000019214744
      11        0.000001747255    -0.000014588215     0.000019119274
      12        0.000005629845    -0.000023003813    -0.000004934319
      13        0.000004490242     0.000020694258    -0.000004544615
      14        0.000006319371     0.000002958229     0.000003378788
      15        0.000000259354     0.000001213190     0.000001662794
      16       -0.000006247829    -0.000003050101     0.000001645645

  **** Optimization is complete! (in 4 steps) ****
    Final optimized geometry and variables:
    Molecular point group: c1

    Geometry (in Angstrom), charge = 0, multiplicity = 1:

    H            3.246501647481     0.152228884775    -0.348646725198
    N            2.437499474442    -0.364311632745    -0.066598918312
    C            1.264184568290     0.494367897789     0.015181878506
    H            2.639747069699    -0.789994691406     0.816541489802
    C           -0.018631062551    -0.327914249465    -0.035276276029
    H            1.295916614253     1.181323644427    -0.825020077454
    H            1.259146192724     1.117977100305     0.912491277653
    C           -1.285293634285     0.524588941361     0.049660488299
    H           -0.017708500593    -0.909740050326    -0.952476785198
    H           -0.010552520788    -1.046339746377     0.783437784043
    C           -2.566606919021    -0.307190098119     0.001644288338
    H           -1.292606123963     1.242646803934    -0.768089223382
    H           -1.270487384580     1.108922185591     0.967589643363
    H           -2.628558191681    -0.877280220160    -0.920822895186
    H           -3.448337379129     0.323460961655     0.061200389579
    H           -2.607205114578    -1.011797297137     0.827527183230

  Mulliken Charges: (a.u.)
   Center  Symbol    Alpha    Beta     Spin     Total
       1     H     0.33133  0.33133  0.00000  0.33734
       2     N     3.92455  3.92455  0.00000 -0.84911
       3     C     3.06278  3.06278  0.00000 -0.12557
       4     H     0.33367  0.33367  0.00000  0.33267
       5     C     3.14496  3.14496  0.00000 -0.28993
       6     H     0.42201  0.42201  0.00000  0.15598
       7     H     0.43367  0.43367  0.00000  0.13266
       8     C     3.15646  3.15646  0.00000 -0.31292
       9     H     0.41487  0.41487  0.00000  0.17027
      10     H     0.42698  0.42698  0.00000  0.14604
      11     C     3.23839  3.23839  0.00000 -0.47677
      12     H     0.42342  0.42342  0.00000  0.15315
      13     H     0.42423  0.42423  0.00000  0.15154
      14     H     0.42074  0.42074  0.00000  0.15852
      15     H     0.42002  0.42002  0.00000  0.15996
      16     H     0.42191  0.42191  0.00000  0.15617

   Total alpha = 21.00000, Total beta = 21.00000, Total charge = -0.00000
