  ==> Input File <==

--------------------------------------------------------------------------
set {
	reference rhf
	basis cc-pvtz
}

set_num_threads( 4 )
memory 2 gb

molecule MOL {
0 1

O	 1.607019	 -0.119422	 0.823973
C	 0.860843	 0.273204	 -0.013120
C	 -0.623368	 -0.117453	 -0.005652
C	 1.377599	 1.172934	 -1.118322
C	 -0.892588	 -1.253841	 -1.002900
C	 -1.473463	 1.100646	 -0.372896
C	 -0.981836	 -0.579025	 1.418506
H	 -0.609333	 -0.970024	 -2.010649
H	 -1.950451	 -1.487353	 -1.013175
H	 -0.360848	 -2.161259	 -0.746463
H	 -1.232203	 1.461623	 -1.364827
H	 -2.524364	 0.834451	 -0.354500
H	 -1.312381	 1.914833	 0.318657
H	 -2.035706	 -0.826342	 1.468082
H	 -0.425078	 -1.458934	 1.716857
H	 -0.788494	 0.205047	 2.140903
H	 1.104792	 2.199166	 -0.898808
H	 2.453742	 1.099825	 -1.150563
H	 0.961054	 0.924492	 -2.084759

	symmetry c1
}
set optking {
	frozen_dihedral = ("
		1 2 3 5
	")
}

ee = optimize('scf')
oeprop('DIPOLE', 'QUADRUPOLE', 'MULLIKEN_CHARGES')
f=open( 'psi4out.xyz', 'w' )
f.write( "19  " )
f.write( str(ee) + "\n" )
f.write( MOL.save_string_xyz() )
f.close()
--------------------------------------------------------------------------

    Molecular point group: c1
  Charge       = 0
  Multiplicity = 1
  Basis Set: CC-PVTZ
  Basis Set:
  @DF-RHF Final Energy:  -309.17314613211363
    Total Energy =                       -309.1731461321140841
    Molecular point group: c1
  Basis Set: CC-PVTZ
  Basis Set:
  Basis Set: CC-PVTZ
  Basis Set:
  @DF-RHF Final Energy:  -309.17335232297751
    Total Energy =                       -309.1733523229774505
  Basis Set: CC-PVTZ
  Basis Set:
  Basis Set: CC-PVTZ
  Basis Set:
  @DF-RHF Final Energy:  -309.17401568324436
    Total Energy =                       -309.1740156832441926
  Basis Set: CC-PVTZ
  Basis Set:
  Basis Set: CC-PVTZ
  Basis Set:
  @DF-RHF Final Energy:  -309.17422859579352
    Total Energy =                       -309.1742285957934087
  Basis Set: CC-PVTZ
  Basis Set:
  @DF-RHF Final Energy:  -309.17398038662583
    Total Energy =                       -309.1739803866264538
  @DF-RHF Final Energy:  -309.17426464750957
    Total Energy =                       -309.1742646475097445
  Basis Set: CC-PVTZ
  Basis Set:
  @DF-RHF Final Energy:  -309.17424449159023
    Total Energy =                       -309.1742444915905708
  Basis Set: CC-PVTZ
  Basis Set:
  Basis Set: CC-PVTZ
  Basis Set:
  @DF-RHF Final Energy:  -309.17426325994637
    Total Energy =                       -309.1742632599460876
  Basis Set: CC-PVTZ
  Basis Set:
  Basis Set: CC-PVTZ
  Basis Set:
  @DF-RHF Final Energy:  -309.17426859530332
    Total Energy =                       -309.1742685953034879
  Basis Set: CC-PVTZ
  Basis Set:
  Charge       = 0
  Multiplicity = 1
  Basis Set: CC-PVTZ
  Basis Set:

    Orbital Energies (a.u.)
    -----------------------

    Doubly Occupied:

       1A    -20.537286     2A    -11.317829     3A    -11.245678
       4A    -11.225297     5A    -11.222257     6A    -11.221729
       7A    -11.206651     8A     -1.398420     9A     -1.110820
      10A     -1.003295    11A     -0.947636    12A     -0.935985
      13A     -0.835680    14A     -0.705467    15A     -0.666751
      16A     -0.634103    17A     -0.621941    18A     -0.598339
      19A     -0.592359    20A     -0.566510    21A     -0.546721
      22A     -0.545716    23A     -0.524825    24A     -0.514492
      25A     -0.502214    26A     -0.472984    27A     -0.467674
      28A     -0.394633

  @DF-RHF Final Energy:  -309.17426871592824

   => Energetics <=

    Nuclear Repulsion Energy =            326.9269621644783115
    One-Electron Energy =               -1067.0758787997374384
    Two-Electron Energy =                 430.9746479193308915
    DFT Exchange-Correlation Energy =       0.0000000000000000
    Empirical Dispersion Energy =           0.0000000000000000
    PCM Polarization Energy =               0.0000000000000000
    EFP Energy =                            0.0000000000000000
    Total Energy =                       -309.1742687159282923
    Molecular point group: c1
  Basis Set: CC-PVTZ
  Basis Set:

  -Total Gradient:
     Atom            X                  Y                   Z
    ------   -----------------  -----------------  -----------------
       1        0.000036267212    -0.000323763389    -0.000194045368
       2       -0.000102143230     0.000379863886     0.000406632435
       3       -0.000021452431     0.000148278479    -0.000384730484
       4       -0.000014075333    -0.000019289145    -0.000052062291
       5        0.000040806651    -0.000213835122     0.000192567361
       6       -0.000008547533     0.000017472064     0.000023874874
       7        0.000037115211     0.000039573812    -0.000016044646
       8       -0.000002966644    -0.000008459096     0.000009049008
       9       -0.000001764329    -0.000009019597    -0.000011466212
      10       -0.000008493662    -0.000005541614    -0.000007818574
      11        0.000001174327    -0.000005510343     0.000016740553
      12       -0.000005589824    -0.000003279226    -0.000001251510
      13        0.000000999472     0.000000553905    -0.000004627712
      14        0.000015689857    -0.000004585891    -0.000011259981
      15        0.000015410774    -0.000019229795     0.000009083746
      16       -0.000002858349     0.000003521613     0.000002107076
      17        0.000005761188     0.000002315686     0.000010012431
      18       -0.000001421001     0.000002405851     0.000005980185
      19        0.000016087641     0.000018527921     0.000007259113

  **** Optimization is complete! (in 10 steps) ****
    Final optimized geometry and variables:
    Molecular point group: c1

    Geometry (in Angstrom), charge = 0, multiplicity = 1:

    O            1.628307204759    -0.218866491243     0.852870026957
    C            0.882082579038     0.194366841874     0.025748487020
    C           -0.611693207905    -0.158233374494     0.054948245892
    C            1.409110308940     1.067226774244    -1.095502912752
    C           -0.837330212513    -1.290785844049    -0.963345569506
    C           -1.476843714676     1.054520073259    -0.315565567661
    C           -0.991117482597    -0.651150092633     1.453346720366
    H           -0.594855304425    -0.985854311387    -1.974409050359
    H           -1.878549976171    -1.591000722495    -0.952766150720
    H           -0.235847638815    -2.157572431962    -0.717802108911
    H           -1.292614274623     1.399682697312    -1.324864575819
    H           -2.524941938345     0.788744429406    -0.248182285081
    H           -1.305096212125     1.884352005127     0.361360784619
    H           -2.040018577818    -0.924833646501     1.474750352697
    H           -0.404342868097    -1.511831408098     1.738768113399
    H           -0.827076809867     0.118761192967     2.197312209714
    H            1.136723809649     2.099487629100    -0.906452011485
    H            2.485050980316     0.989248653934    -1.119818401114
    H            0.997175438424     0.793173239677    -2.057414392267

  Mulliken Charges: (a.u.)
   Center  Symbol    Alpha    Beta     Spin     Total
       1     O     4.17621  4.17621  0.00000 -0.35242
       2     C     2.85221  2.85221  0.00000  0.29557
       3     C     3.00837  3.00837  0.00000 -0.01674
       4     C     3.16380  3.16380  0.00000 -0.32759
       5     C     3.15790  3.15790  0.00000 -0.31580
       6     C     3.16438  3.16438  0.00000 -0.32876
       7     C     3.15060  3.15060  0.00000 -0.30121
       8     H     0.44635  0.44635  0.00000  0.10730
       9     H     0.44570  0.44570  0.00000  0.10861
      10     H     0.44110  0.44110  0.00000  0.11780
      11     H     0.44576  0.44576  0.00000  0.10849
      12     H     0.44274  0.44274  0.00000  0.11451
      13     H     0.44326  0.44326  0.00000  0.11349
      14     H     0.45192  0.45192  0.00000  0.09617
      15     H     0.43833  0.43833  0.00000  0.12334
      16     H     0.44736  0.44736  0.00000  0.10528
      17     H     0.44565  0.44565  0.00000  0.10870
      18     H     0.43179  0.43179  0.00000  0.13642
      19     H     0.44658  0.44658  0.00000  0.10684

   Total alpha = 28.00000, Total beta = 28.00000, Total charge = -0.00000
