  ==> Input File <==

--------------------------------------------------------------------------
set {
	reference rhf
	basis cc-pvtz
}

set_num_threads( 4 )
memory 2 gb

molecule MOL {
0 1

H	 -3.703224	 1.498841	 -0.686813
O	 -2.998091	 0.922127	 -0.915689
C	 -2.302264	 0.528872	 0.237390
C	 -1.175688	 -0.398187	 -0.171891
H	 -1.898413	 1.397588	 0.753151
H	 -2.969269	 0.018322	 0.928963
C	 0.196029	 0.106276	 0.266738
H	 -1.201873	 -0.515469	 -1.250677
H	 -1.365975	 -1.378728	 0.252664
C	 1.330220	 -0.826136	 -0.155230
H	 0.359542	 1.097229	 -0.145561
H	 0.212134	 0.218135	 1.348778
C	 2.719700	 -0.407669	 0.328325
H	 1.339388	 -0.911200	 -1.239363
H	 1.119001	 -1.821953	 0.224128
C	 3.241564	 0.893452	 -0.276737
H	 3.418299	 -1.204729	 0.093035
H	 2.711776	 -0.323368	 1.411960
H	 3.254204	 0.841071	 -1.360784
H	 2.634460	 1.745075	 0.005842
H	 4.254264	 1.092401	 0.054971

	symmetry c1
}
set optking {
	frozen_dihedral = ("
		2 3 4 8
	")
}

ee = optimize('scf')
oeprop('DIPOLE', 'QUADRUPOLE', 'MULLIKEN_CHARGES')
f=open( 'psi4out.xyz', 'w' )
f.write( "21  " )
f.write( str(ee) + "\n" )
f.write( MOL.save_string_xyz() )
f.close()
--------------------------------------------------------------------------

    Molecular point group: c1
  Charge       = 0
  Multiplicity = 1
  Basis Set: CC-PVTZ
  Basis Set:
  @DF-RHF Final Energy:  -310.32691635241844
    Total Energy =                       -310.3269163524188343
    Molecular point group: c1
  Basis Set: CC-PVTZ
  Basis Set:
  Basis Set: CC-PVTZ
  Basis Set:
  @DF-RHF Final Energy:  -310.32726118863400
    Total Energy =                       -310.3272611886340542
  Basis Set: CC-PVTZ
  Basis Set:
  Basis Set: CC-PVTZ
  Basis Set:
  @DF-RHF Final Energy:  -310.32736892582705
    Total Energy =                       -310.3273689258268178
  Basis Set: CC-PVTZ
  Basis Set:
  Charge       = 0
  Multiplicity = 1
  Basis Set: CC-PVTZ
  Basis Set:

    Orbital Energies (a.u.)
    -----------------------

    Doubly Occupied:

       1A    -20.545159     2A    -11.265315     3A    -11.212110
       4A    -11.211282     5A    -11.209775     6A    -11.208895
       7A    -11.204655     8A     -1.362180     9A     -1.085346
      10A     -1.031563    11A     -0.953767    12A     -0.876482
      13A     -0.807560    14A     -0.778038    15A     -0.703583
      16A     -0.647176    17A     -0.624238    18A     -0.606038
      19A     -0.591285    20A     -0.565000    21A     -0.541301
      22A     -0.520439    23A     -0.507420    24A     -0.493131
      25A     -0.477643    26A     -0.459369    27A     -0.456075
      28A     -0.446442    29A     -0.428183

  @DF-RHF Final Energy:  -310.32736965893366

   => Energetics <=

    Nuclear Repulsion Energy =            313.7086983055125984
    One-Electron Energy =               -1042.4332360020146098
    Two-Electron Energy =                 418.3971680375683491
    DFT Exchange-Correlation Energy =       0.0000000000000000
    Empirical Dispersion Energy =           0.0000000000000000
    PCM Polarization Energy =               0.0000000000000000
    EFP Energy =                            0.0000000000000000
    Total Energy =                       -310.3273696589336623
    Molecular point group: c1
  Basis Set: CC-PVTZ
  Basis Set:

  -Total Gradient:
     Atom            X                  Y                   Z
    ------   -----------------  -----------------  -----------------
       1       -0.000026130588     0.000023640362    -0.000018102565
       2        0.000175901857     0.000202147917     0.000076253485
       3       -0.000281393059    -0.000305273557    -0.000114201615
       4        0.000359393132     0.000382328488    -0.000022134082
       5       -0.000002992624     0.000014967125    -0.000002485296
       6       -0.000010723448     0.000005600502    -0.000000274563
       7        0.000007781480    -0.000050155544     0.000073953167
       8       -0.000234987973    -0.000297852776     0.000022192475
       9        0.000003301242     0.000006393025     0.000012032625
      10       -0.000005207512     0.000031993011    -0.000035843007
      11       -0.000028297742     0.000000552141     0.000024175995
      12        0.000005618545    -0.000019368546     0.000015065025
      13        0.000000873587     0.000010141055    -0.000026453625
      14        0.000009785681    -0.000021211262    -0.000012128495
      15        0.000002167023     0.000018273151     0.000003136111
      16        0.000013933006    -0.000000224309     0.000006955419
      17        0.000016067227     0.000000400292     0.000007618629
      18       -0.000010722517     0.000003994099    -0.000008560285
      19       -0.000003384483     0.000000203854    -0.000000060814
      20        0.000006314668    -0.000006572858     0.000003219564
      21        0.000002702504     0.000000023831    -0.000004358150

  **** Optimization is complete! (in 4 steps) ****
    Final optimized geometry and variables:
    Molecular point group: c1

    Geometry (in Angstrom), charge = 0, multiplicity = 1:

    H           -3.806362907995     1.347244283184    -0.578913045329
    O           -3.092769522451     0.781267170684    -0.809635150490
    C           -2.403439538019     0.381636125920     0.348746345312
    C           -1.252331622616    -0.546733682911    -0.051737377443
    H           -2.016006266629     1.254451441055     0.867764139157
    H           -3.081900717200    -0.124552687440     1.029377003485
    C            0.122195894020    -0.047260918873     0.387215845031
    H           -1.278264579218    -0.647373518565    -1.129957912907
    H           -1.420227037095    -1.538953737292     0.354041522930
    C            1.254473067084    -0.978550841448    -0.039081839930
    H            0.278741919745     0.944891734008    -0.023863860499
    H            0.139419543248     0.062495192159     1.469817024115
    C            2.645955382749    -0.560359619882     0.439367862195
    H            1.259108476038    -1.062758769290    -1.123362926832
    H            1.045476123239    -1.975248480205     0.340133907849
    C            3.165989664198     0.739785843170    -0.169163420044
    H            3.343756339767    -1.357790070174     0.202839602816
    H            2.641606502797    -0.474593741487     1.522934519806
    H            3.174485041824     0.685904222539    -1.253089185842
    H            2.559770386425     1.591658701240     0.114188846842
    H            4.179939313280     0.938904396912     0.158702882535

  Mulliken Charges: (a.u.)
   Center  Symbol    Alpha    Beta     Spin     Total
       1     H     0.39568  0.39568  0.00000  0.20864
       2     O     4.19709  4.19709  0.00000 -0.39419
       3     C     2.96610  2.96610  0.00000  0.06780
       4     C     3.09061  3.09061  0.00000 -0.18122
       5     H     0.47528  0.47528  0.00000  0.04944
       6     H     0.47203  0.47203  0.00000  0.05594
       7     C     3.10080  3.10080  0.00000 -0.20161
       8     H     0.44465  0.44465  0.00000  0.11069
       9     H     0.45267  0.45267  0.00000  0.09466
      10     C     3.09613  3.09613  0.00000 -0.19226
      11     H     0.44891  0.44891  0.00000  0.10219
      12     H     0.45587  0.45587  0.00000  0.08826
      13     C     3.08999  3.08999  0.00000 -0.17998
      14     H     0.45257  0.45257  0.00000  0.09487
      15     H     0.45007  0.45007  0.00000  0.09986
      16     C     3.15185  3.15185  0.00000 -0.30371
      17     H     0.44876  0.44876  0.00000  0.10249
      18     H     0.45549  0.45549  0.00000  0.08902
      19     H     0.45440  0.45440  0.00000  0.09119
      20     H     0.45405  0.45405  0.00000  0.09190
      21     H     0.44700  0.44700  0.00000  0.10601

   Total alpha = 29.00000, Total beta = 29.00000, Total charge = -0.00000
