                              Psi4 1.0.54 Driver

  ==> Input File <==

--------------------------------------------------------------------------
set {
	reference rhf
	basis cc-pvtz
}

set_num_threads( 4 )
memory 2 gb

molecule MOL {
0 1

H	 1.320286	 -1.585255	 0.001733
O	 1.583947	 -0.677544	 -0.001533
C	 0.489979	 0.078084	 0.002623
C	 -0.763662	 -0.754014	 0.000816
O	 0.539051	 1.259395	 -0.000088
C	 -2.038001	 0.074705	 -0.000833
H	 -0.712945	 -1.405886	 -0.864342
H	 -0.715137	 -1.405770	 0.866182
H	 -2.087267	 0.710831	 -0.874232
H	 -2.903419	 -0.576199	 -0.001922
H	 -2.089467	 0.710909	 0.872389

	symmetry c1
}
set optking {
	frozen_dihedral = ("
		1 2 3 5
	")
}

ee,wfn = optimize('scf', return_wfn=True)
oeprop( wfn, 'DIPOLE', 'QUADRUPOLE', 'MULLIKEN_CHARGES')
f=open( 'psi4out.xyz', 'w' )
f.write( "11  " )
f.write( str(ee) + "\n" )
f.write( MOL.save_string_xyz() )
f.close()
--------------------------------------------------------------------------

    Molecular point group: c1
  Charge       = 0
  Multiplicity = 1
  Basis Set: CC-PVTZ
  Basis Set:
  @DF-RHF Final Energy:  -266.94249939023234
    Total Energy =                       -266.9424993902323990
    Molecular point group: c1
  Basis Set: CC-PVTZ
  Basis Set:
  Basis Set: CC-PVTZ
  Basis Set:
  @DF-RHF Final Energy:  -266.94376942715735
    Total Energy =                       -266.9437694271574628
  Basis Set: CC-PVTZ
  Basis Set:
  Basis Set: CC-PVTZ
  Basis Set:
  @DF-RHF Final Energy:  -266.94369575964538
    Total Energy =                       -266.9436957596453794
  Basis Set: CC-PVTZ
  Basis Set:
  Basis Set: CC-PVTZ
  Basis Set:
  @DF-RHF Final Energy:  -266.94397015996157
    Total Energy =                       -266.9439701599616228
  Basis Set: CC-PVTZ
  Basis Set:
  Basis Set: CC-PVTZ
  Basis Set:
  @DF-RHF Final Energy:  -266.94397522012514
    Total Energy =                       -266.9439752201249121
  Basis Set: CC-PVTZ
  Basis Set:
  Charge       = 0
  Multiplicity = 1
  Basis Set: CC-PVTZ
  Basis Set:

    Orbital Energies (a.u.)
    -----------------------

    Doubly Occupied:

       1A    -20.605731     2A    -20.537099     3A    -11.373580
       4A    -11.254333     5A    -11.224589     6A     -1.472741
       7A     -1.374495     8A     -1.070164     9A     -0.909502
      10A     -0.832950    11A     -0.720243    12A     -0.669244
      13A     -0.662523    14A     -0.610885    15A     -0.600290
      16A     -0.535444    17A     -0.530117    18A     -0.514076
      19A     -0.482280    20A     -0.445331

  @DF-RHF Final Energy:  -266.94397583698071

   => Energetics <=

    Nuclear Repulsion Energy =            180.0997330967660730
    One-Electron Energy =                -721.2361836193108502
    Two-Electron Energy =                 274.1924746855640365
    DFT Exchange-Correlation Energy =       0.0000000000000000
    Empirical Dispersion Energy =           0.0000000000000000
    PCM Polarization Energy =               0.0000000000000000
    EFP Energy =                            0.0000000000000000
    Total Energy =                       -266.9439758369807691
    Molecular point group: c1
  Basis Set: CC-PVTZ
  Basis Set:

  -Total Gradient:
     Atom            X                  Y                   Z
    ------   -----------------  -----------------  -----------------
       1        0.000001494419     0.000008879186    -0.000000154227
       2        0.000033379422    -0.000020694228    -0.000000937293
       3       -0.000050991143     0.000035633990     0.000000740487
       4        0.000010716376     0.000014905155    -0.000000818963
       5        0.000007212274    -0.000035445691     0.000001259469
       6       -0.000002960589    -0.000003847656     0.000000268881
       7        0.000000075906     0.000001408332     0.000000164531
       8        0.000000495687     0.000002282015    -0.000000627507
       9        0.000001959356    -0.000002356692     0.000000202286
      10       -0.000003448974     0.000001452532     0.000000105123
      11        0.000002067272    -0.000002216942    -0.000000202788

  **** Optimization is complete! (in 6 steps) ****
    Final optimized geometry and variables:
    Molecular point group: c1

    Geometry (in Angstrom), charge = 0, multiplicity = 1:

    H            1.491728410464    -1.531301844615    -0.047696563368
    O            1.639974017175    -0.602500113684    -0.077664617524
    C            0.498877453651     0.089038636868    -0.029979761779
    C           -0.755812711144    -0.751322047853     0.059818209051
    O            0.517696487769     1.264431772340    -0.058454923224
    C           -2.031589771831     0.073455325003     0.111892704701
    H           -0.764534091107    -1.421855234662    -0.795224800992
    H           -0.667443870817    -1.381277616138     0.940803318342
    H           -2.128841023865     0.688770084220    -0.771788663494
    H           -2.894279613421    -0.578108660102     0.175371221968
    H           -2.031351045117     0.729512640385     0.971282833038

  Mulliken Charges: (a.u.)
   Center  Symbol    Alpha    Beta     Spin     Total
       1     H     0.38807  0.38807  0.00000  0.22386
       2     O     4.14470  4.14470  0.00000 -0.28940
       3     C     2.80488  2.80488  0.00000  0.39024
       4     C     3.11802  3.11802  0.00000 -0.23604
       5     O     4.17597  4.17597  0.00000 -0.35195
       6     C     3.14058  3.14058  0.00000 -0.28115
       7     H     0.44370  0.44370  0.00000  0.11259
       8     H     0.44370  0.44370  0.00000  0.11259
       9     H     0.44495  0.44495  0.00000  0.11010
      10     H     0.45047  0.45047  0.00000  0.09905
      11     H     0.44495  0.44495  0.00000  0.11010

   Total alpha = 20.00000, Total beta = 20.00000, Total charge = -0.00000

*** Psi4 exiting successfully. Buy a developer a beer!
