  ==> Input File <==

--------------------------------------------------------------------------
set {
	reference rhf
	basis 6-31G*
}

set_num_threads( 4 )
memory 2 gb

molecule MOL {
0 1

H	 -1.070890	 -1.366565	 0.180696
O	 -1.422729	 -0.573567	 -0.196946
C	 -0.731407	 0.539437	 0.309156
C	 0.680193	 0.672443	 -0.251532
H	 -1.319765	 1.404033	 0.030086
H	 -0.700012	 0.506517	 1.397677
C	 1.591892	 -0.504292	 0.097471
H	 0.615328	 0.777117	 -1.330644
H	 1.113807	 1.593439	 0.132246
H	 1.225600	 -1.431248	 -0.333548
H	 2.594621	 -0.347452	 -0.285806
H	 1.668575	 -0.639190	 1.173661

	symmetry c1
}
set optking {
	frozen_dihedral = ("
		8 4 3 2
	")
}

ee = optimize('scf')
oeprop('DIPOLE', 'QUADRUPOLE', 'MULLIKEN_CHARGES')
f=open( 'psi4out.xyz', 'w' )
f.write( "12  " )
f.write( str(ee) + "\n" )
f.write( MOL.save_string_xyz() )
f.close()
--------------------------------------------------------------------------

    Molecular point group: c1
  Charge       = 0
  Multiplicity = 1
  Basis Set: 6-31G*
  Basis Set:
  @DF-RHF Final Energy:  -193.10997147137087
    Total Energy =                       -193.1099714713708693
    Molecular point group: c1
  Basis Set: 6-31G*
  Basis Set:
  Charge       = 0
  Multiplicity = 1
  Basis Set: 6-31G*
  Basis Set:

    Orbital Energies (a.u.)
    -----------------------

    Doubly Occupied:

       1A    -20.553200     2A    -11.268061     3A    -11.218713
       4A    -11.217520     5A     -1.360124     6A     -1.051014
       7A     -0.927629     8A     -0.809180     9A     -0.696713
      10A     -0.636117    11A     -0.601833    12A     -0.588617
      13A     -0.538216    14A     -0.510175    15A     -0.493310
      16A     -0.468894    17A     -0.429525

  @DF-RHF Final Energy:  -193.10997157146917

   => Energetics <=

    Nuclear Repulsion Energy =            133.1059937297017370
    One-Electron Energy =                -525.6942506981056340
    Two-Electron Energy =                 199.4782853969347514
    DFT Exchange-Correlation Energy =       0.0000000000000000
    Empirical Dispersion Energy =           0.0000000000000000
    PCM Polarization Energy =               0.0000000000000000
    EFP Energy =                            0.0000000000000000
    Total Energy =                       -193.1099715714691740
    Molecular point group: c1
  Basis Set: 6-31G*
  Basis Set:

  -Total Gradient:
     Atom            X                  Y                   Z
    ------   -----------------  -----------------  -----------------
       1       -0.000036121068    -0.000001900731    -0.000004734750
       2        0.000118293091    -0.000130609671     0.000231266953
       3       -0.000164570619     0.000319069877    -0.000213841891
       4        0.000057700400    -0.000432228364    -0.000129799327
       5        0.000004337710     0.000032137283     0.000035680336
       6       -0.000043421365    -0.000058359518    -0.000007426975
       7        0.000057073768     0.000043855828     0.000122367026
       8       -0.000028091929     0.000297862038     0.000019337809
       9        0.000005534882    -0.000071707779    -0.000021870299
      10        0.000042367844     0.000036939062    -0.000045768716
      11       -0.000002400113     0.000001300225     0.000009964368
      12       -0.000010702594    -0.000036358248     0.000004825466

  **** Optimization is complete! (in 2 steps) ****
    Final optimized geometry and variables:
    Molecular point group: c1

    Geometry (in Angstrom), charge = 0, multiplicity = 1:

    H           -1.072176030881    -1.362686247556     0.188622623653
    O           -1.422994830911    -0.569442852405    -0.189421364218
    C           -0.728794139164     0.542747762876     0.314515096374
    C            0.682073100112     0.673719885870    -0.248920019833
    H           -1.316311247055     1.408691763718     0.037951908575
    H           -0.694599747492     0.508637889828     1.402935510296
    C            1.595019591509    -0.501242448256     0.102457271230
    H            0.616793287530     0.778071685592    -1.328042164188
    H            1.115490555042     1.595628257611     0.132867667733
    H            1.235288084725    -1.427435682332    -0.335383888694
    H            2.600071016987    -0.339159634754    -0.272378945149
    H            1.664079074293    -0.640340662429     1.178711282820

  Mulliken Charges: (a.u.)
   Center  Symbol    Alpha    Beta     Spin     Total
       1     H     0.28006  0.28006  0.00000  0.43988
       2     O     4.37038  4.37038  0.00000 -0.74076
       3     C     2.99701  2.99701  0.00000  0.00597
       4     C     3.16050  3.16050  0.00000 -0.32100
       5     H     0.41442  0.41442  0.00000  0.17115
       6     H     0.43228  0.43228  0.00000  0.13545
       7     C     3.25057  3.25057  0.00000 -0.50114
       8     H     0.41406  0.41406  0.00000  0.17189
       9     H     0.42320  0.42320  0.00000  0.15359
      10     H     0.42122  0.42122  0.00000  0.15757
      11     H     0.41376  0.41376  0.00000  0.17248
      12     H     0.42254  0.42254  0.00000  0.15492

   Total alpha = 17.00000, Total beta = 17.00000, Total charge =  0.00000
