  ==> Input File <==

--------------------------------------------------------------------------
set {
	reference rhf
	basis 6-31G*
}

set_num_threads( 1 )
memory 2 gb

molecule MOL {
0 1

O	 2.727144	 -0.308547	 -0.432165
C	 1.705091	 0.115954	 0.001797
C	 0.381791	 -0.609817	 0.001258
O	 1.595803	 1.314303	 0.561398
C	 -0.823008	 0.326187	 0.001381
H	 0.371250	 -1.265087	 -0.865474
H	 0.370908	 -1.265746	 0.867490
C	 -2.149452	 -0.435131	 -0.000098
H	 -0.770201	 0.977095	 -0.865636
H	 -0.771220	 0.975655	 0.869608
C	 -3.368779	 0.488503	 -0.000883
H	 -2.193746	 -1.087250	 -0.871175
H	 -2.195311	 -1.087803	 0.870418
C	 -4.693822	 -0.272754	 -0.001129
H	 -3.325798	 1.139422	 -0.871284
H	 -3.326423	 1.139959	 0.869145
H	 -4.781274	 -0.907928	 -0.878124
H	 -5.538651	 0.408946	 -0.001420
H	 -4.781694	 -0.907783	 0.875984
C	 2.770526	 2.102057	 0.627914
H	 3.532018	 1.600617	 1.207755
H	 2.481023	 3.023682	 1.108196
H	 3.151971	 2.300128	 -0.363436

	symmetry c1
}
set optking {
	frozen_dihedral = ("
		15 11 8 12,
		9 5 8 12,
		9 5 3 6,
		1 2 4 20
	")
}

ee = energy('scf')
oeprop('DIPOLE', 'QUADRUPOLE', 'MULLIKEN_CHARGES')
f=open( 'psi4out.xyz', 'w' )
f.write( "23  " )
f.write( str(ee) + "\n" )
f.write( MOL.save_string_xyz() )
f.close()
--------------------------------------------------------------------------

    Molecular point group: c1

    Geometry (in Angstrom), charge = 0, multiplicity = 1:

       Center              X                  Y                   Z               Mass
    ------------   -----------------  -----------------  -----------------  -----------------
           O          2.903185750839    -0.629458177150    -0.521306644328    15.994914619560
           C          1.881132750839    -0.204957177150    -0.087344644328    12.000000000000
           C          0.557832750839    -0.930728177150    -0.087883644328    12.000000000000
           O          1.771844750839     0.993391822850     0.472256355672    15.994914619560
           C         -0.646966249161     0.005275822850    -0.087760644328    12.000000000000
           H          0.547291750839    -1.585998177150    -0.954615644328     1.007825032070
           H          0.546949750839    -1.586657177150     0.778348355672     1.007825032070
           C         -1.973410249161    -0.756042177150    -0.089239644328    12.000000000000
           H         -0.594159249161     0.656183822850    -0.954777644328     1.007825032070
           H         -0.595178249161     0.654743822850     0.780466355672     1.007825032070
           C         -3.192737249161     0.167591822850    -0.090024644328    12.000000000000
           H         -2.017704249161    -1.408161177150    -0.960316644328     1.007825032070
           H         -2.019269249161    -1.408714177150     0.781276355672     1.007825032070
           C         -4.517780249161    -0.593665177150    -0.090270644328    12.000000000000
           H         -3.149756249161     0.818510822850    -0.960425644328     1.007825032070
           H         -3.150381249161     0.819047822850     0.780003355672     1.007825032070
           H         -4.605232249161    -1.228839177150    -0.967265644328     1.007825032070
           H         -5.362609249161     0.088034822850    -0.090561644328     1.007825032070
           H         -4.605652249161    -1.228694177150     0.786842355672     1.007825032070
           C          2.946567750839     1.781145822850     0.538772355672    12.000000000000
           H          3.708059750839     1.279705822850     1.118613355672     1.007825032070
           H          2.657064750839     2.702770822850     1.019054355672     1.007825032070
           H          3.328012750839     1.979216822850    -0.452577644328     1.007825032070

  Charge       = 0
  Multiplicity = 1
  Basis Set: 6-31G*
  Basis Set:

    Orbital Energies (a.u.)
    -----------------------

    Doubly Occupied:

       1A    -20.605059     2A    -20.543165     3A    -11.372265
       4A    -11.281273     5A    -11.235129     6A    -11.222345
       7A    -11.219525     8A    -11.218629     9A    -11.211275
      10A     -1.469869    11A     -1.361961    12A     -1.096629
      13A     -1.046055    14A     -0.982135    15A     -0.935157
      16A     -0.847368    17A     -0.797118    18A     -0.774223
      19A     -0.694449    20A     -0.683818    21A     -0.671317
      22A     -0.652222    23A     -0.609636    24A     -0.591100
      25A     -0.577001    26A     -0.565222    27A     -0.552985
      28A     -0.524762    29A     -0.523593    30A     -0.508291
      31A     -0.486915    32A     -0.479628    33A     -0.470063
      34A     -0.467029    35A     -0.453705    36A     -0.425599

  @DF-RHF Final Energy:  -422.97315707943511

   => Energetics <=

    Nuclear Repulsion Energy =            457.0991446456562812
    One-Electron Energy =               -1481.8316337769576876
    Two-Electron Energy =                 601.7593320518644759
    DFT Exchange-Correlation Energy =       0.0000000000000000
    Empirical Dispersion Energy =           0.0000000000000000
    PCM Polarization Energy =               0.0000000000000000
    EFP Energy =                            0.0000000000000000
    Total Energy =                       -422.9731570794369873

  Mulliken Charges: (a.u.)
   Center  Symbol    Alpha    Beta     Spin     Total
       1     O     4.28818  4.28818  0.00000 -0.57637
       2     C     2.60422  2.60422  0.00000  0.79156
       3     C     3.21068  3.21068  0.00000 -0.42135
       4     O     4.30384  4.30384  0.00000 -0.60767
       5     C     3.15533  3.15533  0.00000 -0.31065
       6     H     0.39835  0.39835  0.00000  0.20329
       7     H     0.39993  0.39993  0.00000  0.20014
       8     C     3.15323  3.15323  0.00000 -0.30645
       9     H     0.41750  0.41750  0.00000  0.16499
      10     H     0.40749  0.40749  0.00000  0.18502
      11     C     3.15160  3.15160  0.00000 -0.30320
      12     H     0.42288  0.42288  0.00000  0.15424
      13     H     0.42327  0.42327  0.00000  0.15345
      14     C     3.23962  3.23962  0.00000 -0.47925
      15     H     0.42210  0.42210  0.00000  0.15579
      16     H     0.42202  0.42202  0.00000  0.15596
      17     H     0.42125  0.42125  0.00000  0.15750
      18     H     0.41855  0.41855  0.00000  0.16290
      19     H     0.42148  0.42148  0.00000  0.15704
      20     C     3.09223  3.09223  0.00000 -0.18445
      21     H     0.40876  0.40876  0.00000  0.18249
      22     H     0.40888  0.40888  0.00000  0.18225
      23     H     0.40861  0.40861  0.00000  0.18278

   Total alpha = 36.00000, Total beta = 36.00000, Total charge =  0.00000
