  ==> Input File <==

--------------------------------------------------------------------------
set {
	reference rhf
	basis cc-pvtz
}

set_num_threads( 4 )
memory 2 gb

molecule MOL {
0 1

H	 -0.582588	 1.103662	 -2.445959
C	 0.032492	 1.582709	 -1.671990
C	 0.062554	 0.862911	 -0.350953
O	 0.613092	 2.583661	 -1.913137
C	 -1.339253	 0.577611	 0.196911
H	 0.650414	 1.446121	 0.346028
H	 0.579151	 -0.079222	 -0.520026
C	 -1.813142	 -0.849710	 -0.061612
H	 -2.032833	 1.276441	 -0.256032
H	 -1.357249	 0.782269	 1.263793
H	 -1.839268	 -1.063526	 -1.124230
H	 -2.810118	 -1.001930	 0.334000
H	 -1.159274	 -1.579980	 0.402282

	symmetry c1
}
set optking {
	frozen_dihedral = ("
		6 3 5 9
	")
}

ee = optimize('scf')
oeprop('DIPOLE', 'QUADRUPOLE', 'MULLIKEN_CHARGES')
f=open( 'psi4out.xyz', 'w' )
f.write( "13  " )
f.write( str(ee) + "\n" )
f.write( MOL.save_string_xyz() )
f.close()
--------------------------------------------------------------------------

    Molecular point group: c1
  Charge       = 0
  Multiplicity = 1
  Basis Set: CC-PVTZ
  Basis Set:
  @DF-RHF Final Energy:  -231.06672719413220
    Total Energy =                       -231.0667271941321985
    Molecular point group: c1
  Basis Set: CC-PVTZ
  Basis Set:
  Basis Set: CC-PVTZ
  Basis Set:
  @DF-RHF Final Energy:  -231.06628319008101
    Total Energy =                       -231.0662831900809806
  Basis Set: CC-PVTZ
  Basis Set:
  Basis Set: CC-PVTZ
  Basis Set:
  @DF-RHF Final Energy:  -231.06516845643878
    Total Energy =                       -231.0651684564386983
  Basis Set: CC-PVTZ
  Basis Set:
  Basis Set: CC-PVTZ
  Basis Set:
  @DF-RHF Final Energy:  -231.06705608621766
    Total Energy =                       -231.0670560862176046
  Basis Set: CC-PVTZ
  Basis Set:
  Basis Set: CC-PVTZ
  Basis Set:
  @DF-RHF Final Energy:  -231.06707447445771
    Total Energy =                       -231.0670744744577405
  Basis Set: CC-PVTZ
  Basis Set:
  Basis Set: CC-PVTZ
  Basis Set:
  @DF-RHF Final Energy:  -231.06708672660062
    Total Energy =                       -231.0670867266007633
  Basis Set: CC-PVTZ
  Basis Set:
  Basis Set: CC-PVTZ
  Basis Set:
  @DF-RHF Final Energy:  -231.06709130941681
    Total Energy =                       -231.0670913094168100
  Basis Set: CC-PVTZ
  Basis Set:
  Charge       = 0
  Multiplicity = 1
  Basis Set: CC-PVTZ
  Basis Set:

    Orbital Energies (a.u.)
    -----------------------

    Doubly Occupied:

       1A    -20.551939     2A    -11.322358     3A    -11.237395
       4A    -11.234628     5A    -11.223744     6A     -1.407219
       7A     -1.087220     8A     -0.976332     9A     -0.847356
      10A     -0.793122    11A     -0.675580    12A     -0.653090
      13A     -0.609683    14A     -0.595297    15A     -0.585440
      16A     -0.529213    17A     -0.506573    18A     -0.492723
      19A     -0.486970    20A     -0.413124

  @DF-RHF Final Energy:  -231.06709286339284

   => Energetics <=

    Nuclear Repulsion Energy =            171.5925181937751915
    One-Electron Energy =                -652.8612073939691527
    Two-Electron Energy =                 250.2015963368009750
    DFT Exchange-Correlation Energy =       0.0000000000000000
    Empirical Dispersion Energy =           0.0000000000000000
    PCM Polarization Energy =               0.0000000000000000
    EFP Energy =                            0.0000000000000000
    Total Energy =                       -231.0670928633930146
    Molecular point group: c1
  Basis Set: CC-PVTZ
  Basis Set:

  -Total Gradient:
     Atom            X                  Y                   Z
    ------   -----------------  -----------------  -----------------
       1       -0.000005927896    -0.000005817877     0.000002133863
       2       -0.000009372284    -0.000021425145     0.000015628614
       3       -0.001167001523     0.002302047917    -0.001790447625
       4        0.000017615795     0.000027421058    -0.000010894260
       5        0.000684778518     0.001382500834     0.002582297826
       6        0.000865188466    -0.002111988610     0.001061282834
       7       -0.000013450642     0.000007811098    -0.000005431507
       8       -0.000004127489     0.000001583066    -0.000014870235
       9       -0.000357263172    -0.001597595797    -0.001853120809
      10       -0.000002424199     0.000017637900     0.000017510746
      11       -0.000001741542    -0.000007722632    -0.000001981649
      12       -0.000002440992    -0.000005938500     0.000001074038
      13       -0.000003833040     0.000011486691    -0.000003181838

  **** Optimization is complete! (in 8 steps) ****
    Final optimized geometry and variables:
    Molecular point group: c1

    Geometry (in Angstrom), charge = 0, multiplicity = 1:

    H           -0.205013515127     0.241348641159    -1.628095587650
    C            0.506811503830     0.648555254550    -0.897771995174
    C            0.534449900114    -0.054415776018     0.431434004571
    O            1.183300265264     1.574158327198    -1.185319690551
    C           -0.873970234592    -0.357792799603     0.978525569368
    H            1.123321495507     0.533800238865     1.121269182485
    H            1.074292525787    -0.986816699115     0.280585848270
    C           -1.336968760538    -1.787269403157     0.708860950378
    H           -1.592208287410     0.325694977363     0.535015237296
    H           -0.888357617214    -0.168985676228     2.044197994165
    H           -1.343191370706    -2.007573341224    -0.353601728151
    H           -2.340439353282    -1.949106856082     1.084140442974
    H           -0.681087093731    -2.504825096887     1.189556613984

  Mulliken Charges: (a.u.)
   Center  Symbol    Alpha    Beta     Spin     Total
       1     H     0.46536  0.46536  0.00000  0.06928
       2     C     2.90501  2.90501  0.00000  0.18999
       3     C     3.08537  3.08537  0.00000 -0.17075
       4     O     4.16416  4.16416  0.00000 -0.32831
       5     C     3.10087  3.10087  0.00000 -0.20174
       6     H     0.43638  0.43638  0.00000  0.12724
       7     H     0.45075  0.45075  0.00000  0.09850
       8     C     3.14624  3.14624  0.00000 -0.29248
       9     H     0.45027  0.45027  0.00000  0.09947
      10     H     0.44196  0.44196  0.00000  0.11607
      11     H     0.45473  0.45473  0.00000  0.09055
      12     H     0.44615  0.44615  0.00000  0.10769
      13     H     0.45275  0.45275  0.00000  0.09450

   Total alpha = 20.00000, Total beta = 20.00000, Total charge = -0.00000
