  ==> Input File <==

--------------------------------------------------------------------------
set {
	reference rhf
	basis 6-31G*
}

set_num_threads( 4 )
memory 2 gb

molecule MOL {
0 1

H	 5.268524	 0.192471	 1.070992
C	 4.673736	 -0.214914	 0.259335
C	 3.185378	 -0.203514	 0.605509
H	 4.871837	 0.380453	 -0.627026
H	 5.025590	 -1.224632	 0.065769
C	 2.317601	 -0.778379	 -0.516234
H	 2.874655	 0.814325	 0.817774
H	 3.023650	 -0.778480	 1.515976
C	 1.733639	 -2.155138	 -0.198760
H	 1.506061	 -0.093576	 -0.735532
H	 2.915543	 -0.861145	 -1.421030
C	 0.639351	 -2.143218	 0.858422
H	 1.291689	 -2.582900	 -1.097353
H	 2.515357	 -2.848719	 0.102967
C	 0.282497	 -3.465600	 1.514679
O	 0.065101	 -1.138372	 1.153257
C	 -0.268256	 -4.512844	 0.535336
H	 -0.449806	 -3.250256	 2.283492
H	 1.171756	 -3.860915	 2.002153
C	 -0.708259	 -5.795708	 1.243338
H	 -1.114593	 -4.090690	 -0.002358
H	 0.483232	 -4.758470	 -0.210590
C	 -1.258335	 -6.845810	 0.279177
H	 -1.464865	 -5.554011	 1.985762
H	 0.135339	 -6.212015	 1.789623
H	 -2.123577	 -6.469203	 -0.258641
H	 -0.511948	 -7.134105	 -0.455605
H	 -1.563281	 -7.742218	 0.809593

	symmetry c1
}
set optking {
	frozen_dihedral = ("
		10 6 3 2
	")
}

ee = optimize('scf')
oeprop('DIPOLE', 'QUADRUPOLE', 'MULLIKEN_CHARGES')
f=open( 'psi4out.xyz', 'w' )
f.write( "28  " )
f.write( str(ee) + "\n" )
f.write( MOL.save_string_xyz() )
f.close()
--------------------------------------------------------------------------

    Molecular point group: c1
  Charge       = 0
  Multiplicity = 1
  Basis Set: 6-31G*
  Basis Set:
  @DF-RHF Final Energy:  -426.16371240770081
    Total Energy =                       -426.1637124077007002
    Molecular point group: c1
  Basis Set: 6-31G*
  Basis Set:
  Basis Set: 6-31G*
  Basis Set:
  @DF-RHF Final Energy:  -426.16400385974111
    Total Energy =                       -426.1640038597404327
  Basis Set: 6-31G*
  Basis Set:
  Basis Set: 6-31G*
  Basis Set:
  @DF-RHF Final Energy:  -426.16392425534968
    Total Energy =                       -426.1639242553494569
  Basis Set: 6-31G*
  Basis Set:
  Basis Set: 6-31G*
  Basis Set:
  @DF-RHF Final Energy:  -426.16409428977909
    Total Energy =                       -426.1640942897788591
  Basis Set: 6-31G*
  Basis Set:
  Basis Set: 6-31G*
  Basis Set:
  @DF-RHF Final Energy:  -426.16408916312059
    Total Energy =                       -426.1640891631202521
  Basis Set: 6-31G*
  Basis Set:
  Basis Set: 6-31G*
  Basis Set:
  @DF-RHF Final Energy:  -426.16410127403049
    Total Energy =                       -426.1641012740304859
  Basis Set: 6-31G*
  Basis Set:
  Basis Set: 6-31G*
  Basis Set:
  @DF-RHF Final Energy:  -426.16410963581052
    Total Energy =                       -426.1641096358114282
  Basis Set: 6-31G*
  Basis Set:
  Charge       = 0
  Multiplicity = 1
  Basis Set: 6-31G*
  Basis Set:

    Orbital Energies (a.u.)
    -----------------------

    Doubly Occupied:

       1A    -20.548179     2A    -11.321550     3A    -11.232415
       4A    -11.230207     5A    -11.228805     6A    -11.226070
       7A    -11.216312     8A    -11.215980     9A    -11.212376
      10A    -11.208171    11A     -1.393143    12A     -1.094868
      13A     -1.075942    14A     -1.022008    15A     -0.990525
      16A     -0.908060    17A     -0.874525    18A     -0.809316
      19A     -0.799997    20A     -0.721469    21A     -0.665599
      22A     -0.650211    23A     -0.639686    24A     -0.619164
      25A     -0.600651    26A     -0.593685    27A     -0.577508
      28A     -0.571968    29A     -0.541244    30A     -0.535084
      31A     -0.521275    32A     -0.506374    33A     -0.503263
      34A     -0.484803    35A     -0.480109    36A     -0.475886
      37A     -0.468684    38A     -0.459224    39A     -0.456365
      40A     -0.392610

  @DF-RHF Final Energy:  -426.16411047556005

   => Energetics <=

    Nuclear Repulsion Energy =            532.3693458255796713
    One-Electron Energy =               -1632.9202964548474029
    Two-Electron Energy =                 674.3868401537077943
    DFT Exchange-Correlation Energy =       0.0000000000000000
    Empirical Dispersion Energy =           0.0000000000000000
    PCM Polarization Energy =               0.0000000000000000
    EFP Energy =                            0.0000000000000000
    Total Energy =                       -426.1641104755600509
    Molecular point group: c1
  Basis Set: 6-31G*
  Basis Set:

  -Total Gradient:
     Atom            X                  Y                   Z
    ------   -----------------  -----------------  -----------------
       1       -0.000007671893    -0.000010032874    -0.000001799835
       2       -0.000167576649     0.001293919788    -0.000668751637
       3        0.000521641162    -0.001593023748     0.000595387315
       4        0.000017843987     0.000010176575    -0.000004185616
       5        0.000022298193    -0.000002700058    -0.000009260257
       6       -0.001542860108    -0.000615868810     0.001485131292
       7       -0.000018779742    -0.000013401466     0.000004465173
       8       -0.000012384180     0.000023108081     0.000005822278
       9        0.000038621468    -0.000003586912     0.000007898291
      10        0.001160775580     0.000914006800    -0.001419555942
      11       -0.000001402682     0.000011249486    -0.000003011848
      12       -0.000005905864    -0.000002957029     0.000061137170
      13       -0.000003598098     0.000012377953     0.000003848644
      14        0.000002283687    -0.000017175628    -0.000006806641
      15       -0.000115334956    -0.000013686379    -0.000102471584
      16        0.000040177487     0.000001718320    -0.000009168659
      17        0.000037143633    -0.000016187455     0.000044004789
      18        0.000007670111    -0.000002914341     0.000012214670
      19        0.000029099527     0.000028904335     0.000011554150
      20        0.000006093608    -0.000001006520    -0.000003297571
      21       -0.000003236480    -0.000004994605    -0.000013412581
      22        0.000000775685    -0.000000630405     0.000006542747
      23       -0.000009518447     0.000004905193     0.000003385868
      24        0.000005479384    -0.000000063140     0.000004655330
      25        0.000001926525    -0.000003196921    -0.000003418849
      26       -0.000000931125    -0.000000583898    -0.000004636146
      27        0.000001151030    -0.000000138838     0.000003444081
      28       -0.000003780844     0.000001782497     0.000000285365

  **** Optimization is complete! (in 8 steps) ****
    Final optimized geometry and variables:
    Molecular point group: c1

    Geometry (in Angstrom), charge = 0, multiplicity = 1:

    H            4.137655473614     3.080142416394     0.499887933731
    C            3.577179718741     2.623117770109    -0.310013507234
    C            2.080303772511     2.589237058391     0.001696995808
    H            3.773859279850     3.194347656663    -1.212744725343
    H            3.974413589456     1.622390235577    -0.462111504188
    C            1.243174003265     1.920179728275    -1.110574203261
    H            1.731399916350     3.604910053111     0.155875180534
    H            1.919771045098     2.080419009676     0.947534404470
    C            0.719468710911     0.531828857039    -0.747186334234
    H            0.408119650687     2.553145492425    -1.383237007030
    H            1.851666702758     1.823571639514    -2.006327242872
    C           -0.371636188066     0.544554514749     0.312735445587
    H            0.302398699821     0.048673209074    -1.629118519114
    H            1.528677822559    -0.114897598013    -0.413281246329
    C           -0.751651021230    -0.781685490107     0.948830345280
    O           -0.921413322137     1.555934490010     0.630401317507
    C           -1.356029976400    -1.791282884896    -0.038446748607
    H           -1.460222337030    -0.561405361777     1.738216387419
    H            0.135384107627    -1.213973657594     1.408062757151
    C           -1.828933501155    -3.070137680031     0.655439332609
    H           -2.195998161999    -1.330265940374    -0.553696756694
    H           -0.626710665478    -2.050291207479    -0.801578243657
    C           -2.433179691455    -4.082779692623    -0.316335410422
    H           -2.563152518232    -2.814969039627     1.415599452943
    H           -0.991210100862    -3.525722418685     1.178983499709
    H           -3.293329070763    -3.665982256851    -0.832226492455
    H           -1.710475472749    -4.384823679264    -1.069044403416
    H           -2.761230563839    -4.976802082422     0.204267279124

  Mulliken Charges: (a.u.)
   Center  Symbol    Alpha    Beta     Spin     Total
       1     H     0.41958  0.41958  0.00000  0.16085
       2     C     3.24090  3.24090  0.00000 -0.48180
       3     C     3.15212  3.15212  0.00000 -0.30425
       4     H     0.42129  0.42129  0.00000  0.15742
       5     H     0.42532  0.42532  0.00000  0.14935
       6     C     3.15333  3.15333  0.00000 -0.30666
       7     H     0.41414  0.41414  0.00000  0.17171
       8     H     0.42125  0.42125  0.00000  0.15750
       9     C     3.21217  3.21217  0.00000 -0.42433
      10     H     0.40515  0.40515  0.00000  0.18969
      11     H     0.41991  0.41991  0.00000  0.16018
      12     C     2.73209  2.73209  0.00000  0.53582
      13     H     0.40422  0.40422  0.00000  0.19156
      14     H     0.41259  0.41259  0.00000  0.17483
      15     C     3.20158  3.20158  0.00000 -0.40317
      16     O     4.26548  4.26548  0.00000 -0.53095
      17     C     3.16361  3.16361  0.00000 -0.32721
      18     H     0.39972  0.39972  0.00000  0.20057
      19     H     0.41340  0.41340  0.00000  0.17321
      20     C     3.15180  3.15180  0.00000 -0.30360
      21     H     0.41366  0.41366  0.00000  0.17269
      22     H     0.41889  0.41889  0.00000  0.16222
      23     C     3.24034  3.24034  0.00000 -0.48067
      24     H     0.41835  0.41835  0.00000  0.16330
      25     H     0.42145  0.42145  0.00000  0.15710
      26     H     0.41958  0.41958  0.00000  0.16083
      27     H     0.42121  0.42121  0.00000  0.15757
      28     H     0.41688  0.41688  0.00000  0.16624

   Total alpha = 40.00000, Total beta = 40.00000, Total charge =  0.00000
