  ==> Input File <==

--------------------------------------------------------------------------
set {
	reference rhf
	basis 6-31G*
}

set_num_threads( 1 )
memory 2 gb

molecule MOL {
0 1

H	 -4.136338	 -0.051841	 0.510289
O	 -3.517110	 -0.026191	 -0.205115
C	 -2.306886	 0.532354	 0.237577
C	 -1.177863	 -0.397191	 -0.171080
H	 -2.156308	 1.517575	 -0.201710
H	 -2.315015	 0.655684	 1.319734
C	 0.198102	 0.111031	 0.262842
H	 -1.208843	 -0.518759	 -1.250427
H	 -1.368741	 -1.376554	 0.258909
C	 1.331804	 -0.827780	 -0.158768
H	 0.361943	 1.100838	 -0.156218
H	 0.217265	 0.229072	 1.345532
C	 2.723619	 -0.410569	 0.329459
H	 1.342964	 -0.912588	 -1.244120
H	 1.116806	 -1.824343	 0.220779
C	 3.243875	 0.895854	 -0.272975
H	 3.424222	 -1.207124	 0.091250
H	 2.714788	 -0.329854	 1.414619
H	 3.251977	 0.848779	 -1.358681
H	 2.637085	 1.747371	 0.016682
H	 4.259473	 1.094070	 0.055697

	symmetry c1
}
set optking {
	frozen_dihedral = ("
		2 3 4 8,
		8 4 7 10,
		4 7 10 14,
		16 13 10 14
	")
}

ee = energy('scf')
oeprop('DIPOLE', 'QUADRUPOLE', 'MULLIKEN_CHARGES')
f=open( 'psi4out.xyz', 'w' )
f.write( "21  " )
f.write( str(ee) + "\n" )
f.write( MOL.save_string_xyz() )
f.close()
--------------------------------------------------------------------------

    Molecular point group: c1

    Geometry (in Angstrom), charge = 0, multiplicity = 1:

       Center              X                  Y                   Z               Mass
    ------------   -----------------  -----------------  -----------------  -----------------
           H         -4.137326415186    -0.046017549221     0.505644757541     1.007825032070
           O         -3.518098415186    -0.020367549221    -0.209759242459    15.994914619560
           C         -2.307874415186     0.538177450779     0.232932757541    12.000000000000
           C         -1.178851415186    -0.391367549221    -0.175724242459    12.000000000000
           H         -2.157296415186     1.523398450779    -0.206354242459     1.007825032070
           H         -2.316003415186     0.661507450779     1.315089757541     1.007825032070
           C          0.197113584814     0.116854450779     0.258197757541    12.000000000000
           H         -1.209831415186    -0.512935549221    -1.255071242459     1.007825032070
           H         -1.369729415186    -1.370730549221     0.254264757541     1.007825032070
           C          1.330815584814    -0.821956549221    -0.163412242459    12.000000000000
           H          0.360954584814     1.106661450779    -0.160862242459     1.007825032070
           H          0.216276584814     0.234895450779     1.340887757541     1.007825032070
           C          2.722630584814    -0.404745549221     0.324814757541    12.000000000000
           H          1.341975584814    -0.906764549221    -1.248764242459     1.007825032070
           H          1.115817584814    -1.818519549221     0.216134757541     1.007825032070
           C          3.242886584814     0.901677450779    -0.277619242459    12.000000000000
           H          3.423233584814    -1.201300549221     0.086605757541     1.007825032070
           H          2.713799584814    -0.324030549221     1.409974757541     1.007825032070
           H          3.250988584814     0.854602450779    -1.363325242459     1.007825032070
           H          2.636096584814     1.753194450779     0.012037757541     1.007825032070
           H          4.258484584814     1.099893450779     0.051052757541     1.007825032070

  Charge       = 0
  Multiplicity = 1
  Basis Set: 6-31G*
  Basis Set:

    Orbital Energies (a.u.)
    -----------------------

    Doubly Occupied:

       1A    -20.551249     2A    -11.267474     3A    -11.215083
       4A    -11.214953     5A    -11.213428     6A    -11.209061
       7A    -11.208010     8A     -1.358985     9A     -1.085908
      10A     -1.032759    11A     -0.954090    12A     -0.875903
      13A     -0.808442    14A     -0.778683    15A     -0.699182
      16A     -0.653245    17A     -0.619588    18A     -0.609543
      19A     -0.586044    20A     -0.567253    21A     -0.540894
      22A     -0.523174    23A     -0.503114    24A     -0.493788
      25A     -0.473185    26A     -0.460216    27A     -0.460088
      28A     -0.455152    29A     -0.421051

  @DF-RHF Final Energy:  -310.21066451954226

   => Energetics <=

    Nuclear Repulsion Energy =            312.5683706161887017
    One-Electron Energy =               -1039.8790574942140665
    Two-Electron Energy =                 417.1000223584833861
    DFT Exchange-Correlation Energy =       0.0000000000000000
    Empirical Dispersion Energy =           0.0000000000000000
    PCM Polarization Energy =               0.0000000000000000
    EFP Energy =                            0.0000000000000000
    Total Energy =                       -310.2106645195419219

  Mulliken Charges: (a.u.)
   Center  Symbol    Alpha    Beta     Spin     Total
       1     H     0.27982  0.27982  0.00000  0.44036
       2     O     4.37229  4.37229  0.00000 -0.74458
       3     C     2.99330  2.99330  0.00000  0.01340
       4     C     3.15547  3.15547  0.00000 -0.31094
       5     H     0.42596  0.42596  0.00000  0.14809
       6     H     0.43326  0.43326  0.00000  0.13348
       7     C     3.16288  3.16288  0.00000 -0.32577
       8     H     0.41459  0.41459  0.00000  0.17082
       9     H     0.42001  0.42001  0.00000  0.15999
      10     C     3.15144  3.15144  0.00000 -0.30288
      11     H     0.42105  0.42105  0.00000  0.15790
      12     H     0.42550  0.42550  0.00000  0.14899
      13     C     3.15239  3.15239  0.00000 -0.30478
      14     H     0.42285  0.42285  0.00000  0.15430
      15     H     0.42168  0.42168  0.00000  0.15664
      16     C     3.24116  3.24116  0.00000 -0.48232
      17     H     0.42079  0.42079  0.00000  0.15841
      18     H     0.42390  0.42390  0.00000  0.15221
      19     H     0.42184  0.42184  0.00000  0.15631
      20     H     0.42049  0.42049  0.00000  0.15902
      21     H     0.41933  0.41933  0.00000  0.16135

   Total alpha = 29.00000, Total beta = 29.00000, Total charge =  0.00000
