                              Psi4 1.0.54 Driver

  ==> Input File <==

--------------------------------------------------------------------------
set {
	reference rhf
	basis cc-pvtz
}

set_num_threads( 4 )
memory 2 gb

molecule MOL {
0 1

H	 2.342730	 0.877684	 -1.045694
C	 2.360424	 0.000000	 -0.411793
C	 1.173749	 0.000000	 0.526870
H	 3.286567	 0.000000	 0.151574
H	 2.342730	 -0.877684	 -1.045694
O	 0.000000	 0.000000	 -0.223739
H	 1.203779	 0.876757	 1.172538
H	 1.203779	 -0.876757	 1.172538
C	 -1.173749	 0.000000	 0.526870
C	 -0.819596	 0.026114	 1.997645
H	 -1.763785	 -0.886248	 0.296840
H	 -1.781036	 0.866974	 0.269865
H	 -0.228156	 -0.841846	 2.260926
H	 -1.719508	 0.026559	 2.602030
H	 -0.245425	 0.913229	 2.233923

	symmetry c1
}
set optking {
	frozen_dihedral = ("
		11 9 6 3
	")
}

ee,wfn = optimize('scf', return_wfn=True)
oeprop( wfn, 'DIPOLE', 'QUADRUPOLE', 'MULLIKEN_CHARGES')
f=open( 'psi4out.xyz', 'w' )
f.write( "15  " )
f.write( str(ee) + "\n" )
f.write( MOL.save_string_xyz() )
f.close()
--------------------------------------------------------------------------

    Molecular point group: c1
  Charge       = 0
  Multiplicity = 1
  Basis Set: CC-PVTZ
  Basis Set:
  @DF-RHF Final Energy:  -232.20565510359955
    Total Energy =                       -232.2056551035995540
    Molecular point group: c1
  Basis Set: CC-PVTZ
  Basis Set:
  Basis Set: CC-PVTZ
  Basis Set:
  @DF-RHF Final Energy:  -230.67740007407519
    Total Energy =                       -230.6774000740753650
  Basis Set: CC-PVTZ
  Basis Set:
  Basis Set: CC-PVTZ
  Basis Set:
  @DF-RHF Final Energy:  -230.86521685935077
    Total Energy =                       -230.8652168593509373
  Basis Set: CC-PVTZ
  Basis Set:
  Basis Set: CC-PVTZ
  Basis Set:
  @DF-RHF Final Energy:  -231.25015165071864
    Total Energy =                       -231.2501516507186352
  Basis Set: CC-PVTZ
  Basis Set:
  @DF-RHF Final Energy:  -231.60394491439934
    Total Energy =                       -231.6039449143992215
  @DF-RHF Final Energy:  -231.93177742409213
    Total Energy =                       -231.9317774240921040
  @DF-RHF Final Energy:  -232.14295429569194
    Total Energy =                       -232.1429542956918795
  @DF-RHF Final Energy:  -232.20832579362539
    Total Energy =                       -232.2083257936251357
  @DF-RHF Final Energy:  -232.21684150679800
    Total Energy =                       -232.2168415067979481
  @DF-RHF Final Energy:  -232.22169658264838
    Total Energy =                       -232.2216965826484625
  Basis Set: CC-PVTZ
  Basis Set:
  @DF-RHF Final Energy:  -232.22257938338007
    Total Energy =                       -232.2225793833802641
  Basis Set: CC-PVTZ
  Basis Set:
  Basis Set: CC-PVTZ
  Basis Set:
  @DF-RHF Final Energy:  -232.22267224049881
    Total Energy =                       -232.2226722404987527
  Basis Set: CC-PVTZ
  Basis Set:
  Basis Set: CC-PVTZ
  Basis Set:
  @DF-RHF Final Energy:  -232.22268254725685
    Total Energy =                       -232.2226825472568521
  Basis Set: CC-PVTZ
  Basis Set:
  Charge       = 0
  Multiplicity = 1
  Basis Set: CC-PVTZ
  Basis Set:

    Orbital Energies (a.u.)
    -----------------------

    Doubly Occupied:

       1A    -20.538185     2A    -11.266557     3A    -11.264796
       4A    -11.215370     5A    -11.204767     6A     -1.369384
       7A     -1.040880     8A     -0.991584     9A     -0.872625
      10A     -0.795159    11A     -0.674451    12A     -0.664362
      13A     -0.611176    14A     -0.605606    15A     -0.548018
      16A     -0.534419    17A     -0.522750    18A     -0.502278
      19A     -0.501429    20A     -0.451043    21A     -0.400572

  @DF-RHF Final Energy:  -232.22268353395384

   => Energetics <=

    Nuclear Repulsion Energy =            193.1463744476960755
    One-Electron Energy =                -697.5872879279329482
    Two-Electron Energy =                 272.2182299462829747
    DFT Exchange-Correlation Energy =       0.0000000000000000
    Empirical Dispersion Energy =           0.0000000000000000
    PCM Polarization Energy =               0.0000000000000000
    EFP Energy =                            0.0000000000000000
    Total Energy =                       -232.2226835339538979
    Molecular point group: c1
  Basis Set: CC-PVTZ
  Basis Set:

  -Total Gradient:
     Atom            X                  Y                   Z
    ------   -----------------  -----------------  -----------------
       1        0.000015836008     0.000015669647    -0.000006310099
       2       -0.000021982141     0.000037310467    -0.000025887808
       3       -0.000490034690     0.000474659046     0.000237856840
       4       -0.000006801652    -0.000002408622    -0.000007843058
       5       -0.000003981756    -0.000001967505     0.000023422241
       6        0.000641127637    -0.000720286510    -0.000394445361
       7       -0.000006243647    -0.000009062375    -0.000027459049
       8       -0.000027341562    -0.000033049598    -0.000011265101
       9        0.000534081668     0.000028811391     0.000744735183
      10       -0.000005728177    -0.000018473337    -0.000006304720
      11       -0.000641620971     0.000176367514    -0.000525689737
      12       -0.000007451985     0.000029365651    -0.000017157812
      13        0.000007574435     0.000000800286     0.000018480257
      14        0.000008666991     0.000017228493    -0.000010636266
      15        0.000003899842     0.000005035454     0.000008504490

  **** Optimization is complete! (in 14 steps) ****
    Final optimized geometry and variables:
    Molecular point group: c1

    Geometry (in Angstrom), charge = 0, multiplicity = 1:

    H            0.434051043100     2.455004202111    -1.134911099049
    C            1.229282896087     1.803853347270    -0.794085616180
    C            0.676362642014     0.714992333447     0.101073291796
    H            1.957697130285     2.399970972882    -0.255547314306
    H            1.710398565421     1.372563833797    -1.662971768968
    O           -0.250890456641    -0.017559636063    -0.640431314281
    H            0.212883102822     1.161547062720     0.976134894918
    H            1.487613111720     0.080427020125     0.448410621706
    C           -0.948420083784    -1.100888440148    -0.079448838037
    C           -0.713801038500    -1.402141315267     1.393073485406
    H           -0.703967169143    -1.981935352759    -0.664414238151
    H           -2.005354060879    -0.907836377609    -0.230269315586
    H            0.317613579333    -1.653754072276     1.604071683386
    H           -1.322590729763    -2.257624940082     1.662347826152
    H           -1.004943775853    -0.577995694914     2.031733808314

  Mulliken Charges: (a.u.)
   Center  Symbol    Alpha    Beta     Spin     Total
       1     H     0.45193  0.45193  0.00000  0.09613
       2     C     3.13540  3.13540  0.00000 -0.27080
       3     C     2.96627  2.96627  0.00000  0.06745
       4     H     0.45954  0.45954  0.00000  0.08092
       5     H     0.45181  0.45181  0.00000  0.09638
       6     O     4.18609  4.18609  0.00000 -0.37219
       7     H     0.47151  0.47151  0.00000  0.05698
       8     H     0.47191  0.47191  0.00000  0.05619
       9     C     2.96761  2.96761  0.00000  0.06479
      10     C     3.16673  3.16673  0.00000 -0.33346
      11     H     0.46362  0.46362  0.00000  0.07276
      12     H     0.46274  0.46274  0.00000  0.07452
      13     H     0.45031  0.45031  0.00000  0.09939
      14     H     0.44420  0.44420  0.00000  0.11161
      15     H     0.45034  0.45034  0.00000  0.09933

   Total alpha = 21.00000, Total beta = 21.00000, Total charge =  0.00000

*** Psi4 exiting successfully. Buy a developer a beer!
