  ==> Input File <==

--------------------------------------------------------------------------
set {
	reference rhf
	basis 6-31G*
}

set_num_threads( 4 )
memory 2 gb

molecule MOL {
0 1

H	 -0.216825	 0.021369	 -3.357402
C	 0.374198	 0.036393	 -2.447010
C	 -0.521757	 -0.028637	 -1.217342
H	 0.969602	 0.942322	 -2.434777
H	 1.053364	 -0.811668	 -2.481329
N	 0.263400	 0.031178	 0.000000
H	 -1.199035	 0.820290	 -1.219355
H	 -1.147901	 -0.924895	 -1.265384
C	 -0.521757	 -0.028637	 1.217342
H	 0.935769	 -0.712709	 0.000000
C	 0.263527	 0.523395	 2.399559
H	 -1.415665	 0.569532	 1.067313
H	 -0.862358	 -1.043718	 1.443714
H	 0.570407	 1.545198	 2.206929
H	 -0.335948	 0.505400	 3.304354
H	 1.157440	 -0.066656	 2.585062

	symmetry c1
}
set optking {
	frozen_dihedral = ("
		12 9 6 3
	")
}

ee = optimize('scf')
oeprop('DIPOLE', 'QUADRUPOLE', 'MULLIKEN_CHARGES')
f=open( 'psi4out.xyz', 'w' )
f.write( "16  " )
f.write( str(ee) + "\n" )
f.write( MOL.save_string_xyz() )
f.close()
--------------------------------------------------------------------------

    Molecular point group: c1
  Charge       = 0
  Multiplicity = 1
  Basis Set: 6-31G*
  Basis Set:
  @DF-RHF Final Energy:  -212.31257793344329
    Total Energy =                       -212.3125779334432082
    Molecular point group: c1
  Basis Set: 6-31G*
  Basis Set:
  Basis Set: 6-31G*
  Basis Set:
  @DF-RHF Final Energy:  -212.31272605195650
    Total Energy =                       -212.3127260519565880
  Basis Set: 6-31G*
  Basis Set:
  Basis Set: 6-31G*
  Basis Set:
  @DF-RHF Final Energy:  -212.31275191419098
    Total Energy =                       -212.3127519141909829
  Basis Set: 6-31G*
  Basis Set:
  Basis Set: 6-31G*
  Basis Set:
  @DF-RHF Final Energy:  -212.31275320222758
    Total Energy =                       -212.3127532022274409
  Basis Set: 6-31G*
  Basis Set:
  Charge       = 0
  Multiplicity = 1
  Basis Set: 6-31G*
  Basis Set:

    Orbital Energies (a.u.)
    -----------------------

    Doubly Occupied:

       1A    -15.532984     2A    -11.241078     3A    -11.240557
       4A    -11.208378     5A    -11.205049     6A     -1.203741
       7A     -1.027205     8A     -0.962432     9A     -0.832639
      10A     -0.820034    11A     -0.662993    12A     -0.627368
      13A     -0.601042    14A     -0.579040    15A     -0.555856
      16A     -0.521677    17A     -0.507574    18A     -0.489180
      19A     -0.481091    20A     -0.475043    21A     -0.356070

  @DF-RHF Final Energy:  -212.31275330384659

   => Energetics <=

    Nuclear Repulsion Energy =            189.0678335989459242
    One-Electron Energy =                -660.4991071154554447
    Two-Electron Energy =                 259.1185202126630429
    DFT Exchange-Correlation Energy =       0.0000000000000000
    Empirical Dispersion Energy =           0.0000000000000000
    PCM Polarization Energy =               0.0000000000000000
    EFP Energy =                            0.0000000000000000
    Total Energy =                       -212.3127533038464776
    Molecular point group: c1
  Basis Set: 6-31G*
  Basis Set:

  -Total Gradient:
     Atom            X                  Y                   Z
    ------   -----------------  -----------------  -----------------
       1        0.000005935201    -0.000000047169    -0.000006276481
       2       -0.000010631643    -0.000003898936    -0.000007291644
       3       -0.000199629804     0.002491212232    -0.000012336030
       4       -0.000006525494     0.000000895279     0.000003234899
       5       -0.000002331721    -0.000002556937     0.000002301705
       6       -0.000052668814    -0.004124849148    -0.000221562190
       7       -0.000004337706     0.000000253361    -0.000007967113
       8        0.000007504753     0.000005096917    -0.000001409993
       9        0.001800372696     0.004209176948     0.001319582359
      10       -0.000002265877    -0.000005058438     0.000003710827
      11       -0.000023298609     0.000003911741    -0.000003893053
      12       -0.001521761779    -0.002557422640    -0.001078003580
      13        0.000001022558    -0.000015623520     0.000000882449
      14       -0.000000110310    -0.000005071489     0.000003972909
      15        0.000012143672     0.000007417532     0.000007625734
      16       -0.000003417121    -0.000003435733    -0.000002570800

  **** Optimization is complete! (in 5 steps) ****
    Final optimized geometry and variables:
    Molecular point group: c1

    Geometry (in Angstrom), charge = 0, multiplicity = 1:

    H           -0.178680191373    -0.090678434224    -3.352421615071
    C            0.404415236852    -0.073624808068    -2.436986700507
    C           -0.502617091211    -0.132780811317    -1.215108038705
    H            1.000872978590     0.831634748623    -2.422331874270
    H            1.082467956680    -0.922883933106    -2.462856620826
    N            0.273508034783    -0.060332263972     0.006740913658
    H           -1.180791169982     0.714784025159    -1.228617695057
    H           -1.125917348592    -1.031089962498    -1.266583525292
    C           -0.501618072503    -0.115805765551     1.232403838453
    H            0.977501813280    -0.772909031594     0.013144342939
    C            0.295422869789     0.416083366049     2.415283871098
    H           -1.400363248869     0.475006044148     1.086893507171
    H           -0.851785544494    -1.128806080000     1.451914792443
    H            0.593871208424     1.443156842474     2.239351120709
    H           -0.289428642227     0.373399115057     3.329483893064
    H            1.196439362463    -0.171053323235     2.570836805873

  Mulliken Charges: (a.u.)
   Center  Symbol    Alpha    Beta     Spin     Total
       1     H     0.42004  0.42004  0.00000  0.15992
       2     C     3.24316  3.24316  0.00000 -0.48632
       3     C     3.05074  3.05074  0.00000 -0.10148
       4     H     0.41204  0.41204  0.00000  0.17592
       5     H     0.42481  0.42481  0.00000  0.15039
       6     N     3.85214  3.85214  0.00000 -0.70428
       7     H     0.42016  0.42016  0.00000  0.15969
       8     H     0.43579  0.43579  0.00000  0.12841
       9     C     3.05561  3.05561  0.00000 -0.11123
      10     H     0.33448  0.33448  0.00000  0.33103
      11     C     3.23474  3.23474  0.00000 -0.46948
      12     H     0.42106  0.42106  0.00000  0.15789
      13     H     0.43390  0.43390  0.00000  0.13221
      14     H     0.41369  0.41369  0.00000  0.17262
      15     H     0.42333  0.42333  0.00000  0.15333
      16     H     0.42431  0.42431  0.00000  0.15139

   Total alpha = 21.00000, Total beta = 21.00000, Total charge =  0.00000
