                              Psi4 1.0.54 Driver

  ==> Input File <==

--------------------------------------------------------------------------
set {
	reference rhf
	basis cc-pvtz
}

set_num_threads( 4 )
memory 2 gb

molecule MOL {
0 1

H	 -0.238742	 -0.968373	 -0.858890
N	 -0.625934	 -0.663929	 -0.000707
C	 -1.978635	 -0.158664	 0.001017
C	 0.142876	 -0.746489	 1.107759
H	 -2.519057	 -0.493535	 -0.876362
H	 -1.938890	 0.917202	 -0.004137
H	 -2.514266	 -0.485137	 0.884506
C	 1.526879	 -1.311031	 0.873988
O	 -0.231228	 -0.409768	 2.192074
H	 2.074180	 -0.692216	 0.172469
H	 2.054910	 -1.342479	 1.812743
H	 1.463558	 -2.311263	 0.461501

	symmetry c1
}
set optking {
	frozen_dihedral = ("
		4 2 3 5
	")
}

ee,wfn = optimize('scf', return_wfn=True)
oeprop( wfn, 'DIPOLE', 'QUADRUPOLE', 'MULLIKEN_CHARGES')
f=open( 'psi4out.xyz', 'w' )
f.write( "12  " )
f.write( str(ee) + "\n" )
f.write( MOL.save_string_xyz() )
f.close()
--------------------------------------------------------------------------

    Molecular point group: c1
  Charge       = 0
  Multiplicity = 1
  Basis Set: CC-PVTZ
  Basis Set:
  @DF-RHF Final Energy:  -247.10037528347934
    Total Energy =                       -247.1003752834793090
    Molecular point group: c1
  Basis Set: CC-PVTZ
  Basis Set:
  Basis Set: CC-PVTZ
  Basis Set:
  @DF-RHF Final Energy:  -247.10102373816511
    Total Energy =                       -247.1010237381651677
  Basis Set: CC-PVTZ
  Basis Set:
  Basis Set: CC-PVTZ
  Basis Set:
  @DF-RHF Final Energy:  -247.10083721046834
    Total Energy =                       -247.1008372104685122
  Basis Set: CC-PVTZ
  Basis Set:
  Basis Set: CC-PVTZ
  Basis Set:
  @DF-RHF Final Energy:  -247.10119526166991
    Total Energy =                       -247.1011952616698863
  Basis Set: CC-PVTZ
  Basis Set:
  @DF-RHF Final Energy:  -247.10120712404034
    Total Energy =                       -247.1012071240403998
  @DF-RHF Final Energy:  -247.10123240353894
    Total Energy =                       -247.1012324035388588
  @DF-RHF Final Energy:  -247.10124239749646
    Total Energy =                       -247.1012423974965486
  @DF-RHF Final Energy:  -247.10124588715212
    Total Energy =                       -247.1012458871521176
  @DF-RHF Final Energy:  -247.10124844118363
    Total Energy =                       -247.1012484411837136
  @DF-RHF Final Energy:  -247.10124783537927
    Total Energy =                       -247.1012478353793540
  @DF-RHF Final Energy:  -247.10125574903168
    Total Energy =                       -247.1012557490316794
  @DF-RHF Final Energy:  -247.10108191262708
    Total Energy =                       -247.1010819126270803
  @DF-RHF Final Energy:  -247.10131359895607
    Total Energy =                       -247.1013135989559828
  @DF-RHF Final Energy:  -247.10135545066169
    Total Energy =                       -247.1013554506617425
  @DF-RHF Final Energy:  -247.10137641405473
    Total Energy =                       -247.1013764140548687
  @DF-RHF Final Energy:  -247.10139317725600
    Total Energy =                       -247.1013931772559999
  Basis Set: CC-PVTZ
  Basis Set:
  @DF-RHF Final Energy:  -247.10141611947793
    Total Energy =                       -247.1014161194778467
  Basis Set: CC-PVTZ
  Basis Set:
  Basis Set: CC-PVTZ
  Basis Set:
  @DF-RHF Final Energy:  -247.10142208301812
    Total Energy =                       -247.1014220830181216
  Basis Set: CC-PVTZ
  Basis Set:
  Basis Set: CC-PVTZ
  Basis Set:
  @DF-RHF Final Energy:  -247.10142350374755
    Total Energy =                       -247.1014235037474123
  Basis Set: CC-PVTZ
  Basis Set:
  Charge       = 0
  Multiplicity = 1
  Basis Set: CC-PVTZ
  Basis Set:

    Orbital Energies (a.u.)
    -----------------------

    Doubly Occupied:

       1A    -20.504410     2A    -15.576907     3A    -11.335724
       4A    -11.253889     5A    -11.228459     6A     -1.387611
       7A     -1.231732     8A     -1.016014     9A     -0.934231
      10A     -0.790056    11A     -0.690810    12A     -0.652046
      13A     -0.635772    14A     -0.585888    15A     -0.583009
      16A     -0.555572    17A     -0.547944    18A     -0.505979
      19A     -0.416887    20A     -0.390913

  @DF-RHF Final Energy:  -247.10142369498581

   => Energetics <=

    Nuclear Repulsion Energy =            181.8341799750638472
    One-Electron Energy =                -696.2234976668378295
    Two-Electron Energy =                 267.2878939967879433
    DFT Exchange-Correlation Energy =       0.0000000000000000
    Empirical Dispersion Energy =           0.0000000000000000
    PCM Polarization Energy =               0.0000000000000000
    EFP Energy =                            0.0000000000000000
    Total Energy =                       -247.1014236949860106
    Molecular point group: c1
  Basis Set: CC-PVTZ
  Basis Set:

  -Total Gradient:
     Atom            X                  Y                   Z
    ------   -----------------  -----------------  -----------------
       1        0.000004113015    -0.000001699606    -0.000004742922
       2        0.000094694588     0.000207938887    -0.000049219864
       3        0.000042640576     0.000102072666    -0.000140762083
       4       -0.000075514855    -0.000164739660     0.000028172490
       5       -0.000064727476    -0.000145649676     0.000139901948
       6       -0.000001029779     0.000001425689    -0.000001214001
       7       -0.000001660258    -0.000002002173     0.000000719151
       8       -0.000008851493     0.000010397494    -0.000005066602
       9       -0.000003591532     0.000004401943     0.000020398880
      10        0.000012882533     0.000016336213    -0.000001239239
      11        0.000006203923    -0.000016695333     0.000024709073
      12       -0.000005159240    -0.000011786445    -0.000011656827

  **** Optimization is complete! (in 20 steps) ****
    Final optimized geometry and variables:
    Molecular point group: c1

    Geometry (in Angstrom), charge = 0, multiplicity = 1:

    H           -0.082286475000    -0.534082991645    -1.644323741666
    N           -0.436323152567    -0.169230698692    -0.796589747733
    C           -1.762407918081     0.404013064322    -0.789188161002
    C            0.395870868035    -0.066678943157     0.259911012807
    H           -2.359886220847    -0.080149803544    -1.549210228116
    H           -1.745641408392     1.470670643079    -0.981625821312
    H           -2.220445652831     0.241374957382     0.173489647580
    C            1.782370083771    -0.637859810935     0.066628212659
    O            0.070789515730     0.448557743192     1.289364235800
    H            2.479625397754     0.184616351478    -0.035260496303
    H            2.051486625759    -1.193983991765     0.952523209017
    H            1.864840766596    -1.277723552864    -0.801960068614

  Mulliken Charges: (a.u.)
   Center  Symbol    Alpha    Beta     Spin     Total
       1     H     0.41086  0.41086  0.00000  0.17828
       2     N     3.61396  3.61396  0.00000 -0.22791
       3     C     3.07830  3.07830  0.00000 -0.15659
       4     C     2.84251  2.84251  0.00000  0.31498
       5     H     0.45544  0.45544  0.00000  0.08913
       6     H     0.45650  0.45650  0.00000  0.08701
       7     H     0.43848  0.43848  0.00000  0.12304
       8     C     3.14396  3.14396  0.00000 -0.28793
       9     O     4.22028  4.22028  0.00000 -0.44057
      10     H     0.44336  0.44336  0.00000  0.11327
      11     H     0.43792  0.43792  0.00000  0.12416
      12     H     0.45843  0.45843  0.00000  0.08313

   Total alpha = 20.00000, Total beta = 20.00000, Total charge = -0.00000

*** Psi4 exiting successfully. Buy a developer a beer!
