  ==> Input File <==

--------------------------------------------------------------------------
set {
	reference rhf
	basis 6-31G*
}

set_num_threads( 4 )
memory 2 gb

molecule MOL {
0 1

O	 -0.988096	 -1.408613	 0.050699
C	 -0.676749	 -0.249230	 -0.009274
C	 -1.746085	 0.827156	 -0.009539
N	 0.623947	 0.147590	 -0.102813
H	 -1.701500	 1.431508	 -0.908902
H	 -2.703425	 0.330732	 0.036390
H	 -1.647323	 1.487769	 0.845106
C	 0.992658	 1.077600	 -1.152103
C	 1.727618	 -0.537692	 0.533225
H	 1.728510	 1.777675	 -0.772056
H	 0.119813	 1.617381	 -1.475707
H	 1.422332	 0.559149	 -2.006510
H	 2.495465	 0.184326	 0.784502
H	 1.421478	 -1.019774	 1.447998
H	 2.172048	 -1.286122	 -0.120340

	symmetry c1
}
set optking {
	frozen_dihedral = ("
		8 4 2 3
	")
}

ee = optimize('scf')
oeprop('DIPOLE', 'QUADRUPOLE', 'MULLIKEN_CHARGES')
f=open( 'psi4out.xyz', 'w' )
f.write( "15  " )
f.write( str(ee) + "\n" )
f.write( MOL.save_string_xyz() )
f.close()
--------------------------------------------------------------------------

    Molecular point group: c1
  Charge       = 0
  Multiplicity = 1
  Basis Set: 6-31G*
  Basis Set:
  @DF-RHF Final Energy:  -286.01229611443426
    Total Energy =                       -286.0122961144344345
    Molecular point group: c1
  Basis Set: 6-31G*
  Basis Set:
  Basis Set: 6-31G*
  Basis Set:
  @DF-RHF Final Energy:  -286.02053845113221
    Total Energy =                       -286.0205384511322109
  Basis Set: 6-31G*
  Basis Set:
  Basis Set: 6-31G*
  Basis Set:
  @DF-RHF Final Energy:  -286.02411098133399
    Total Energy =                       -286.0241109813341609
  Basis Set: 6-31G*
  Basis Set:
  Basis Set: 6-31G*
  Basis Set:
  @DF-RHF Final Energy:  -286.02501428391815
    Total Energy =                       -286.0250142839180398
  Basis Set: 6-31G*
  Basis Set:
  @DF-RHF Final Energy:  -286.02542061755355
    Total Energy =                       -286.0254206175535501
  @DF-RHF Final Energy:  -286.02560983804415
    Total Energy =                       -286.0256098380444882
  Basis Set: 6-31G*
  Basis Set:
  @DF-RHF Final Energy:  -286.02572064154253
    Total Energy =                       -286.0257206415428755
  Basis Set: 6-31G*
  Basis Set:
  Basis Set: 6-31G*
  Basis Set:
  @DF-RHF Final Energy:  -286.02574176837641
    Total Energy =                       -286.0257417683764061
  Basis Set: 6-31G*
  Basis Set:
  Basis Set: 6-31G*
  Basis Set:
  @DF-RHF Final Energy:  -286.02574764460024
    Total Energy =                       -286.0257476446003579
  Basis Set: 6-31G*
  Basis Set:
  Charge       = 0
  Multiplicity = 1
  Basis Set: 6-31G*
  Basis Set:

    Orbital Energies (a.u.)
    -----------------------

    Doubly Occupied:

       1A    -20.529578     2A    -15.578952     3A    -11.343628
       4A    -11.264733     5A    -11.245236     6A    -11.228432
       7A     -1.395293     8A     -1.241782     9A     -1.013184
      10A     -0.968428    11A     -0.911882    12A     -0.736509
      13A     -0.680269    14A     -0.657956    15A     -0.649910
      16A     -0.595599    17A     -0.579393    18A     -0.569552
      19A     -0.559298    20A     -0.540078    21A     -0.526207
      22A     -0.499034    23A     -0.419145    24A     -0.376062

  @DF-RHF Final Energy:  -286.02574875629261

   => Energetics <=

    Nuclear Repulsion Energy =            252.8059131335541849
    One-Electron Energy =                -889.4430436894527929
    Two-Electron Energy =                 350.6113817996061357
    DFT Exchange-Correlation Energy =       0.0000000000000000
    Empirical Dispersion Energy =           0.0000000000000000
    PCM Polarization Energy =               0.0000000000000000
    EFP Energy =                            0.0000000000000000
    Total Energy =                       -286.0257487562924439
    Molecular point group: c1
  Basis Set: 6-31G*
  Basis Set:

  -Total Gradient:
     Atom            X                  Y                   Z
    ------   -----------------  -----------------  -----------------
       1        0.000011308968     0.000018087112    -0.000019274319
       2        0.001493062121    -0.003385356991    -0.009393498234
       3       -0.000409662276     0.000759987197     0.005340593202
       4       -0.003004586194     0.007109307026     0.006977326897
       5       -0.000001335982     0.000007498668    -0.000010601039
       6       -0.000002714641    -0.000005866754    -0.000005236036
       7        0.000017325732    -0.000005206055    -0.000003858226
       8        0.001888527604    -0.004567542816    -0.002867875581
       9       -0.000083621468     0.000077226303     0.000048224424
      10        0.000007717641     0.000004558152    -0.000003375301
      11       -0.000000176435     0.000022558119    -0.000001836465
      12        0.000017540662    -0.000000338198    -0.000021963063
      13        0.000030064217    -0.000011885454     0.000001542694
      14        0.000009124481    -0.000002686797    -0.000021000034
      15        0.000027425573    -0.000020339508    -0.000019168920

  **** Optimization is complete! (in 10 steps) ****
    Final optimized geometry and variables:
    Molecular point group: c1

    Geometry (in Angstrom), charge = 0, multiplicity = 1:

    O           -0.862316359494    -1.380269242221     0.379076391464
    C           -0.658688855262    -0.231336407829     0.111808632754
    C           -1.810545301890     0.730075610430    -0.111891096539
    N            0.611280356142     0.313958958575     0.128779483885
    H           -1.998233033337     0.878874720648    -1.170996235528
    H           -2.693884631213     0.288800435880     0.326287295135
    H           -1.615299337021     1.694560230096     0.339353850727
    C            0.997444942902     1.194428767909    -0.961830991787
    C            1.668706704077    -0.609529101185     0.507501885308
    H            1.889713267628     1.738800614322    -0.680119934581
    H            0.222718852437     1.918654722780    -1.169678436366
    H            1.209720396840     0.641047865868    -1.875337843847
    H            2.563189660666    -0.037695466438     0.722683993586
    H            1.377894421884    -1.154537439708     1.391183977365
    H            1.891760598277    -1.327589285061    -0.278300625444

  Mulliken Charges: (a.u.)
   Center  Symbol    Alpha    Beta     Spin     Total
       1     O     4.28840  4.28840  0.00000 -0.57679
       2     C     2.63959  2.63959  0.00000  0.72082
       3     C     3.29275  3.29275  0.00000 -0.58551
       4     N     3.81180  3.81180  0.00000 -0.62359
       5     H     0.40609  0.40609  0.00000  0.18783
       6     H     0.39222  0.39222  0.00000  0.21556
       7     H     0.40477  0.40477  0.00000  0.19047
       8     C     3.15235  3.15235  0.00000 -0.30471
       9     C     3.14383  3.14383  0.00000 -0.28765
      10     H     0.40861  0.40861  0.00000  0.18279
      11     H     0.40792  0.40792  0.00000  0.18416
      12     H     0.41756  0.41756  0.00000  0.16489
      13     H     0.41810  0.41810  0.00000  0.16381
      14     H     0.39718  0.39718  0.00000  0.20564
      15     H     0.41885  0.41885  0.00000  0.16230

   Total alpha = 24.00000, Total beta = 24.00000, Total charge = -0.00000
