                              Psi4 1.0.54 Driver

  ==> Input File <==

--------------------------------------------------------------------------
set {
	reference rhf
	basis cc-pvtz
}

set_num_threads( 4 )
memory 2 gb

molecule MOL {
0 1

O	 0.124820	 1.263352	 -4.257318
C	 -0.347323	 1.237772	 -3.167429
C	 -0.037275	 0.106299	 -2.207383
C	 -1.261540	 2.334161	 -2.674574
C	 1.281740	 0.358917	 -1.466285
H	 0.040957	 -0.804039	 -2.788137
H	 -0.844841	 -0.012910	 -1.492897
C	 1.630207	 -0.772146	 -0.501001
H	 2.065933	 0.484825	 -2.202095
H	 1.218313	 1.292888	 -0.913136
C	 2.907848	 -0.545876	 0.309149
H	 1.718495	 -1.701698	 -1.057883
H	 0.802670	 -0.908887	 0.189715
C	 3.373802	 0.906639	 0.372125
H	 3.699140	 -1.146831	 -0.127906
H	 2.764321	 -0.923458	 1.318191
H	 3.519798	 1.311927	 -0.623875
H	 4.316899	 0.983758	 0.900700
H	 2.661122	 1.540651	 0.885346
H	 -2.262897	 1.934503	 -2.549846
H	 -1.283937	 3.146912	 -3.384154
H	 -0.937992	 2.695505	 -1.704864

	symmetry c1
}
set optking {
	frozen_dihedral = ("
		12 8 11 15
	")
}

ee,wfn = optimize('scf', return_wfn=True)
oeprop( wfn, 'DIPOLE', 'QUADRUPOLE', 'MULLIKEN_CHARGES')
f=open( 'psi4out.xyz', 'w' )
f.write( "22  " )
f.write( str(ee) + "\n" )
f.write( MOL.save_string_xyz() )
f.close()
--------------------------------------------------------------------------

    Molecular point group: c1
  Charge       = 0
  Multiplicity = 1
  Basis Set: CC-PVTZ
  Basis Set:
  @DF-RHF Final Energy:  -348.21534948243135
    Total Energy =                       -348.2153494824312361
    Molecular point group: c1
  Basis Set: CC-PVTZ
  Basis Set:
  Basis Set: CC-PVTZ
  Basis Set:
  @DF-RHF Final Energy:  -348.21543761308135
    Total Energy =                       -348.2154376130812352
  Basis Set: CC-PVTZ
  Basis Set:
  Basis Set: CC-PVTZ
  Basis Set:
  @DF-RHF Final Energy:  -348.21745239687181
    Total Energy =                       -348.2174523968720337
  Basis Set: CC-PVTZ
  Basis Set:
  Basis Set: CC-PVTZ
  Basis Set:
  @DF-RHF Final Energy:  -348.21755400445443
    Total Energy =                       -348.2175540044540867
  Basis Set: CC-PVTZ
  Basis Set:
  Basis Set: CC-PVTZ
  Basis Set:
  @DF-RHF Final Energy:  -348.21739723073796
    Total Energy =                       -348.2173972307377880
  Basis Set: CC-PVTZ
  Basis Set:
  Basis Set: CC-PVTZ
  Basis Set:
  @DF-RHF Final Energy:  -348.21757070348127
    Total Energy =                       -348.2175707034818402
  Basis Set: CC-PVTZ
  Basis Set:
  Basis Set: CC-PVTZ
  Basis Set:
  @DF-RHF Final Energy:  -348.21757569475039
    Total Energy =                       -348.2175756947502805
  Basis Set: CC-PVTZ
  Basis Set:
  Charge       = 0
  Multiplicity = 1
  Basis Set: CC-PVTZ
  Basis Set:

    Orbital Energies (a.u.)
    -----------------------

    Doubly Occupied:

       1A    -20.536469     2A    -11.318974     3A    -11.227572
       4A    -11.226974     5A    -11.226688     6A    -11.221084
       7A    -11.219197     8A    -11.211448     9A     -1.396574
      10A     -1.095846    11A     -1.044202    12A     -0.999935
      13A     -0.939162    14A     -0.864107    15A     -0.780512
      16A     -0.734344    17A     -0.665581    18A     -0.649161
      19A     -0.630527    20A     -0.616486    21A     -0.595019
      22A     -0.589848    23A     -0.557897    24A     -0.546429
      25A     -0.530806    26A     -0.527710    27A     -0.503799
      28A     -0.487953    29A     -0.469382    30A     -0.463961
      31A     -0.457691    32A     -0.398104

  @DF-RHF Final Energy:  -348.21757561907759

   => Energetics <=

    Nuclear Repulsion Energy =            374.7387581493044308
    One-Electron Energy =               -1214.4457810828557740
    Two-Electron Energy =                 491.4894473144736935
    DFT Exchange-Correlation Energy =       0.0000000000000000
    Empirical Dispersion Energy =           0.0000000000000000
    PCM Polarization Energy =               0.0000000000000000
    EFP Energy =                            0.0000000000000000
    Total Energy =                       -348.2175756190776497
    Molecular point group: c1
  Basis Set: CC-PVTZ
  Basis Set:

  -Total Gradient:
     Atom            X                  Y                   Z
    ------   -----------------  -----------------  -----------------
       1        0.000011485108     0.000000948913     0.000014729844
       2       -0.000026192047     0.000038379813     0.000015183964
       3       -0.000020902817     0.000012612165     0.000032775490
       4       -0.000022146921    -0.000016670727    -0.000031610818
       5        0.000028883357    -0.000045593813    -0.000050033596
       6        0.000005825234     0.000011684895    -0.000013345491
       7        0.000003601611    -0.000026346126     0.000000764028
       8       -0.002855801157    -0.004324657850     0.006842759522
       9       -0.000005674493    -0.000038352184     0.000001702983
      10        0.000002647400    -0.000002500904    -0.000001240823
      11        0.002087344604     0.006014286225    -0.005822774268
      12        0.002071093067     0.002757760878    -0.004879373547
      13       -0.000014618073    -0.000012106318    -0.000010242336
      14        0.000029970279     0.000006924753     0.000001055146
      15       -0.001325448487    -0.004379887147     0.003866279187
      16        0.000012458225     0.000013042511    -0.000005422776
      17        0.000009987609    -0.000013597472     0.000028894621
      18       -0.000003453747     0.000001758996     0.000001128269
      19       -0.000011123867    -0.000000428322    -0.000004499274
      20        0.000007763542     0.000003422487     0.000009066302
      21        0.000001601888     0.000001837077     0.000001831668
      22        0.000012699683    -0.000002517852     0.000002371905

  **** Optimization is complete! (in 8 steps) ****
    Final optimized geometry and variables:
    Molecular point group: c1

    Geometry (in Angstrom), charge = 0, multiplicity = 1:

    O           -0.947924594480     0.462202347057    -2.586126581344
    C           -1.382551658911     0.515220082982    -1.481739586507
    C           -1.030266636359    -0.539016658301    -0.451247396521
    C           -2.290821517831     1.638766130499    -1.041900134304
    C            0.301045845487    -0.212447097760     0.237497048775
    H           -0.952059059883    -1.487658196094    -0.966746146119
    H           -1.818453734880    -0.617603629679     0.290321803573
    C            0.677076479299    -1.269865039713     1.277834942864
    H            1.072160701596    -0.146510317564    -0.521977390421
    H            0.236194944479     0.765395564485     0.702687334456
    C            2.044591878603    -1.073717403048     1.968653704054
    H            0.694953979552    -2.218873530248     0.752292971460
    H           -0.110046787645    -1.322971708364     2.022598945569
    C            2.571766531670     0.353986059711     2.073213728740
    H            2.780758359622    -1.713482876234     1.493378098769
    H            1.961367799010    -1.472416136776     2.975604109919
    H            2.760201819745     0.794264802716     1.102026601050
    H            3.505296429002     0.365462668005     2.623513993279
    H            1.875153999488     0.997233278595     2.600473579999
    H           -3.284489521236     1.242387742598    -0.858923295782
    H           -2.341383073592     2.397483283281    -1.807629250072
    H           -1.942494891107     2.071991052657    -0.111066052361

  Mulliken Charges: (a.u.)
   Center  Symbol    Alpha    Beta     Spin     Total
       1     O     4.17853  4.17853  0.00000 -0.35705
       2     C     2.85771  2.85771  0.00000  0.28458
       3     C     3.09796  3.09796  0.00000 -0.19591
       4     C     3.15521  3.15521  0.00000 -0.31042
       5     C     3.10504  3.10504  0.00000 -0.21008
       6     H     0.43888  0.43888  0.00000  0.12225
       7     H     0.44958  0.44958  0.00000  0.10083
       8     C     3.09772  3.09772  0.00000 -0.19543
       9     H     0.43944  0.43944  0.00000  0.12111
      10     H     0.44875  0.44875  0.00000  0.10251
      11     C     3.08798  3.08798  0.00000 -0.17596
      12     H     0.44914  0.44914  0.00000  0.10173
      13     H     0.45102  0.45102  0.00000  0.09796
      14     C     3.15799  3.15799  0.00000 -0.31598
      15     H     0.44990  0.44990  0.00000  0.10019
      16     H     0.45163  0.45163  0.00000  0.09674
      17     H     0.45034  0.45034  0.00000  0.09931
      18     H     0.44330  0.44330  0.00000  0.11340
      19     H     0.45431  0.45431  0.00000  0.09139
      20     H     0.44838  0.44838  0.00000  0.10325
      21     H     0.43607  0.43607  0.00000  0.12787
      22     H     0.45113  0.45113  0.00000  0.09774

   Total alpha = 32.00000, Total beta = 32.00000, Total charge =  0.00000

*** Psi4 exiting successfully. Buy a developer a beer!
