                              Psi4 1.0.54 Driver

  ==> Input File <==

--------------------------------------------------------------------------
set {
	reference rhf
	basis cc-pvtz
}

set_num_threads( 4 )
memory 2 gb

molecule MOL {
0 1

H	 2.828711	 -0.346904	 0.001083
C	 1.876752	 0.015931	 -0.363450
C	 0.776285	 -0.474665	 0.563092
H	 1.728113	 -0.357244	 -1.367440
H	 1.906171	 1.096574	 -0.386153
N	 -0.540022	 0.017605	 0.071630
H	 0.707111	 -1.548969	 0.573035
H	 0.886169	 -0.084184	 1.560432
O	 -1.125646	 -0.672093	 -0.693586
O	 -0.899614	 1.078984	 0.457071

	symmetry c1
}
set optking {
	frozen_dihedral = ("
		9 6 3 2
	")
}

ee,wfn = optimize('scf', return_wfn=True)
oeprop( wfn, 'DIPOLE', 'QUADRUPOLE', 'MULLIKEN_CHARGES')
f=open( 'psi4out.xyz', 'w' )
f.write( "10  " )
f.write( str(ee) + "\n" )
f.write( MOL.save_string_xyz() )
f.close()
--------------------------------------------------------------------------

    Molecular point group: c1
  Charge       = 0
  Multiplicity = 1
  Basis Set: CC-PVTZ
  Basis Set:
  @DF-RHF Final Energy:  -282.81335519413386
    Total Energy =                       -282.8133551941340329
    Molecular point group: c1
  Basis Set: CC-PVTZ
  Basis Set:
  Charge       = 0
  Multiplicity = 1
  Basis Set: CC-PVTZ
  Basis Set:

    Orbital Energies (a.u.)
    -----------------------

    Doubly Occupied:

       1A    -20.591922     2A    -20.591753     3A    -15.838351
       4A    -11.301798     5A    -11.251039     6A     -1.637596
       7A     -1.422040     8A     -1.126659     9A     -0.966825
      10A     -0.839851    11A     -0.763474    12A     -0.739515
      13A     -0.730090    14A     -0.660075    15A     -0.590588
      16A     -0.559908    17A     -0.550288    18A     -0.488387
      19A     -0.479334    20A     -0.454807

  @DF-RHF Final Energy:  -282.81335505919668

   => Energetics <=

    Nuclear Repulsion Energy =            186.7849173227991741
    One-Electron Energy =                -756.0279400043748410
    Two-Electron Energy =                 286.4296676223792133
    DFT Exchange-Correlation Energy =       0.0000000000000000
    Empirical Dispersion Energy =           0.0000000000000000
    PCM Polarization Energy =               0.0000000000000000
    EFP Energy =                            0.0000000000000000
    Total Energy =                       -282.8133550591964536
    Molecular point group: c1
  Basis Set: CC-PVTZ
  Basis Set:

  -Total Gradient:
     Atom            X                  Y                   Z
    ------   -----------------  -----------------  -----------------
       1       -0.000000955539    -0.000002290272     0.000002730863
       2       -0.000002308186     0.000015641430    -0.000006911078
       3       -0.000055258573    -0.000047705611     0.000056326942
       4       -0.000001340992    -0.000000056829     0.000001948335
       5       -0.000000526987    -0.000003375019    -0.000000108728
       6        0.000138417857     0.000123248482    -0.000231204100
       7        0.000010067902    -0.000003724777     0.000005730888
       8        0.000003832529    -0.000000849485     0.000003446970
       9       -0.000045263230    -0.000048202421     0.000083785408
      10       -0.000046664778    -0.000032685495     0.000084254497

  **** Optimization is complete! (in 2 steps) ****
    Final optimized geometry and variables:
    Molecular point group: c1

    Geometry (in Angstrom), charge = 0, multiplicity = 1:

    H            2.828984593692    -0.346632069350     0.000849530481
    C            1.876977722062     0.016115337726    -0.363672670512
    C            0.776457746774    -0.474517574715     0.562805930390
    H            1.728422270695    -0.357086950924    -1.367672548973
    H            1.906310660634     1.096752271560    -0.386410973782
    N           -0.539891773341     0.017755386483     0.071366711183
    H            0.707366837048    -1.548822610352     0.572887117080
    H            0.886228535758    -0.083900576797     1.560103389949
    O           -1.125494971421    -0.671932717732    -0.693885998882
    O           -0.900239055280     1.078411123961     0.458081015356

  Mulliken Charges: (a.u.)
   Center  Symbol    Alpha    Beta     Spin     Total
       1     H     0.44788  0.44788  0.00000  0.10425
       2     C     3.14071  3.14071  0.00000 -0.28141
       3     C     3.03737  3.03737  0.00000 -0.07474
       4     H     0.44094  0.44094  0.00000  0.11812
       5     H     0.44070  0.44070  0.00000  0.11860
       6     N     3.27630  3.27630  0.00000  0.44739
       7     H     0.43474  0.43474  0.00000  0.13051
       8     H     0.43487  0.43487  0.00000  0.13025
       9     O     4.17311  4.17311  0.00000 -0.34622
      10     O     4.17338  4.17338  0.00000 -0.34676

   Total alpha = 20.00000, Total beta = 20.00000, Total charge = -0.00000

*** Psi4 exiting successfully. Buy a developer a beer!
