  ==> Input File <==

--------------------------------------------------------------------------
set {
	reference rhf
	basis 6-31G*
}

set_num_threads( 4 )
memory 2 gb

molecule MOL {
0 1

H	 1.720920	 0.251717	 3.081193
O	 2.221219	 0.540421	 2.330159
C	 1.473261	 0.522005	 1.208823
C	 2.085744	 0.923954	 0.025926
C	 0.150149	 0.125165	 1.203565
H	 3.115100	 1.227885	 0.056100
C	 1.372775	 0.927041	 -1.155061
H	 -0.346777	 -0.189306	 2.100057
C	 -0.536158	 0.140425	 0.000000
H	 1.853478	 1.238864	 -2.063657
C	 0.041863	 0.532662	 -1.186419
N	 -1.935604	 -0.280333	 0.000000
H	 -0.524231	 0.529693	 -2.094678
O	 -2.161694	 -1.452901	 0.000000
O	 -2.770341	 0.571417	 0.000000

	symmetry c1
}
set optking {
	frozen_dihedral = ("
		11 9 12 14
	")
}

ee = optimize('scf')
oeprop('DIPOLE', 'QUADRUPOLE', 'MULLIKEN_CHARGES')
f=open( 'psi4out.xyz', 'w' )
f.write( "15  " )
f.write( str(ee) + "\n" )
f.write( MOL.save_string_xyz() )
f.close()
--------------------------------------------------------------------------

    Molecular point group: c1
  Charge       = 0
  Multiplicity = 1
  Basis Set: 6-31G*
  Basis Set:
  @DF-RHF Final Energy:  -509.01656278687676
    Total Energy =                       -509.0165627868769889
    Molecular point group: c1
  Basis Set: 6-31G*
  Basis Set:
  Basis Set: 6-31G*
  Basis Set:
  @DF-RHF Final Energy:  -509.01330221858763
    Total Energy =                       -509.0133022185877962
  Basis Set: 6-31G*
  Basis Set:
  Basis Set: 6-31G*
  Basis Set:
  @DF-RHF Final Energy:  -509.01624329604351
    Total Energy =                       -509.0162432960436263
  Basis Set: 6-31G*
  Basis Set:
  Basis Set: 6-31G*
  Basis Set:
  @DF-RHF Final Energy:  -509.01691310458233
    Total Energy =                       -509.0169131045822724
  Basis Set: 6-31G*
  Basis Set:
  Charge       = 0
  Multiplicity = 1
  Basis Set: 6-31G*
  Basis Set:

    Orbital Energies (a.u.)
    -----------------------

    Doubly Occupied:

       1A    -20.618211     2A    -20.610576     3A    -20.610265
       4A    -15.859360     5A    -11.333874     6A    -11.317349
       7A    -11.269051     8A    -11.268689     9A    -11.263025
      10A    -11.254259    11A     -1.642175    12A     -1.439288
      13A     -1.426320    14A     -1.202612    15A     -1.095594
      16A     -1.048643    17A     -0.965626    18A     -0.884635
      19A     -0.830664    20A     -0.789296    21A     -0.763892
      22A     -0.734686    23A     -0.721144    24A     -0.710564
      25A     -0.668227    26A     -0.635535    27A     -0.618344
      28A     -0.592659    29A     -0.563929    30A     -0.548943
      31A     -0.533437    32A     -0.490913    33A     -0.485121
      34A     -0.455609    35A     -0.373762    36A     -0.343121

  @DF-RHF Final Energy:  -509.01691463113536

   => Energetics <=

    Nuclear Repulsion Energy =            502.4718246141320606
    One-Electron Energy =               -1691.0386857211674396
    Two-Electron Energy =                 679.5499464759000148
    DFT Exchange-Correlation Energy =       0.0000000000000000
    Empirical Dispersion Energy =           0.0000000000000000
    PCM Polarization Energy =               0.0000000000000000
    EFP Energy =                            0.0000000000000000
    Total Energy =                       -509.0169146311354780
    Molecular point group: c1
  Basis Set: 6-31G*
  Basis Set:

  -Total Gradient:
     Atom            X                  Y                   Z
    ------   -----------------  -----------------  -----------------
       1       -0.000005063415     0.000004228742    -0.000001383066
       2        0.000047588518     0.000009852816     0.000051706056
       3       -0.000121971570    -0.000036160716     0.000003824163
       4        0.000018871061    -0.000042938921    -0.000039027872
       5        0.000111263666     0.000067370555     0.000117255006
       6       -0.000006233118    -0.000003876934     0.000005251896
       7       -0.000005433603     0.000088729675     0.000004498364
       8        0.000014885027     0.000009517846    -0.000036879829
       9       -0.001388844425     0.003791159498    -0.000649674163
      10       -0.000008086930    -0.000012011566    -0.000008678471
      11        0.000876933475    -0.002762366813    -0.000482163443
      12        0.000339864422    -0.001057342398     0.004277284775
      13        0.000013493650     0.000014462904     0.000027919237
      14        0.000119783816    -0.000200090355    -0.003288197826
      15       -0.000007050563     0.000129465666     0.000018265168

  **** Optimization is complete! (in 5 steps) ****
    Final optimized geometry and variables:
    Molecular point group: c1

    Geometry (in Angstrom), charge = 0, multiplicity = 1:

    H            1.788764273438     0.017373156001     2.797153513091
    O            2.286150645586     0.307968192369     2.045017842636
    C            1.538613563927     0.293939993028     0.925825598986
    C            2.151546384563     0.690980375083    -0.258185180419
    C            0.212055679014    -0.101704829017     0.922135408588
    H            3.182848051192     0.987674643874    -0.230549169269
    C            1.435817527034     0.694799528469    -1.436934592630
    H           -0.278283241872    -0.429727359397     1.820847896489
    C           -0.472062907641    -0.065797303553    -0.276662442892
    H            1.918198092483     0.997250026014    -2.347980567762
    C            0.099696092047     0.312933721602    -1.465725307518
    N           -1.866085615832    -0.509560644848    -0.279906329185
    H           -0.469332476112     0.318761118471    -2.375376355521
    O           -2.059594877920    -1.685334066175    -0.261609887209
    O           -2.705301019030     0.335001214823    -0.324654286811

  Mulliken Charges: (a.u.)
   Center  Symbol    Alpha    Beta     Spin     Total
       1     H     0.26741  0.26741  0.00000  0.46519
       2     O     4.37406  4.37406  0.00000 -0.74812
       3     C     2.79029  2.79029  0.00000  0.41943
       4     C     3.11655  3.11655  0.00000 -0.23310
       5     C     3.13526  3.13526  0.00000 -0.27051
       6     H     0.38237  0.38237  0.00000  0.23527
       7     C     3.09516  3.09516  0.00000 -0.19033
       8     H     0.38159  0.38159  0.00000  0.23681
       9     C     2.88699  2.88699  0.00000  0.22601
      10     H     0.38670  0.38670  0.00000  0.22659
      11     C     3.10156  3.10156  0.00000 -0.20312
      12     N     3.25755  3.25755  0.00000  0.48490
      13     H     0.37741  0.37741  0.00000  0.24519
      14     O     4.22434  4.22434  0.00000 -0.44868
      15     O     4.22276  4.22276  0.00000 -0.44553

   Total alpha = 36.00000, Total beta = 36.00000, Total charge =  0.00000
