  ==> Input File <==

--------------------------------------------------------------------------
set {
	reference rhf
	basis cc-pvtz
}

set_num_threads( 4 )
memory 2 gb

molecule MOL {
0 1

O	 1.847685	 1.294399	 -0.000190
C	 1.704209	 0.119472	 -0.000093
C	 0.380337	 -0.600947	 -0.000234
O	 2.715427	 -0.733672	 0.000025
C	 -0.824290	 0.329213	 -0.000115
H	 0.371455	 -1.255476	 -0.865660
H	 0.371410	 -1.255787	 0.864952
C	 -2.146151	 -0.432825	 -0.000068
H	 -0.773936	 0.979158	 -0.866319
H	 -0.773838	 0.979034	 0.866186
C	 -3.366283	 0.483552	 0.000557
H	 -2.189286	 -1.084450	 -0.869996
H	 -2.188867	 -1.085083	 0.869399
C	 -3.498839	 1.303711	 1.279299
H	 -4.262701	 -0.114002	 -0.139162
H	 -3.311475	 1.153030	 -0.853232
H	 -3.590473	 0.661386	 2.148928
H	 -4.374034	 1.942239	 1.246916
H	 -2.631908	 1.938732	 1.429013
C	 4.020999	 -0.192556	 0.000019
H	 4.182809	 0.412891	 -0.879449
H	 4.692590	 -1.035653	 0.000152
H	 4.182726	 0.413087	 0.879368

	symmetry c1
}
set optking {
	frozen_dihedral = ("
		15 11 8 12
	")
}

ee = optimize('scf')
oeprop('DIPOLE', 'QUADRUPOLE', 'MULLIKEN_CHARGES')
f=open( 'psi4out.xyz', 'w' )
f.write( "23  " )
f.write( str(ee) + "\n" )
f.write( MOL.save_string_xyz() )
f.close()
--------------------------------------------------------------------------

    Molecular point group: c1
  Charge       = 0
  Multiplicity = 1
  Basis Set: CC-PVTZ
  Basis Set:
  @DF-RHF Final Energy:  -423.12895318442764
    Total Energy =                       -423.1289531844275871
    Molecular point group: c1
  Basis Set: CC-PVTZ
  Basis Set:
  Basis Set: CC-PVTZ
  Basis Set:
  @DF-RHF Final Energy:  -423.12925889145305
    Total Energy =                       -423.1292588914532189
  Basis Set: CC-PVTZ
  Basis Set:
  Basis Set: CC-PVTZ
  Basis Set:
  @DF-RHF Final Energy:  -423.12945016554869
    Total Energy =                       -423.1294501655486329
  Basis Set: CC-PVTZ
  Basis Set:
  Basis Set: CC-PVTZ
  Basis Set:
  @DF-RHF Final Energy:  -423.12940045598151
    Total Energy =                       -423.1294004559811128
  Basis Set: CC-PVTZ
  Basis Set:
  Basis Set: CC-PVTZ
  Basis Set:
  @DF-RHF Final Energy:  -423.12945551679366
    Total Energy =                       -423.1294555167937688
  Basis Set: CC-PVTZ
  Basis Set:
  Basis Set: CC-PVTZ
  Basis Set:
  @DF-RHF Final Energy:  -423.12945726211376
    Total Energy =                       -423.1294572621142152
  Basis Set: CC-PVTZ
  Basis Set:
  Charge       = 0
  Multiplicity = 1
  Basis Set: CC-PVTZ
  Basis Set:

    Orbital Energies (a.u.)
    -----------------------

    Doubly Occupied:

       1A    -20.596297     2A    -20.534119     3A    -11.364538
       4A    -11.278471     5A    -11.233711     6A    -11.216766
       7A    -11.215997     8A    -11.214834     9A    -11.206227
      10A     -1.472188    11A     -1.365749    12A     -1.094254
      13A     -1.043231    14A     -0.986287    15A     -0.932000
      16A     -0.855691    17A     -0.784800    18A     -0.769013
      19A     -0.698930    20A     -0.686516    21A     -0.676063
      22A     -0.644361    23A     -0.616085    24A     -0.598297
      25A     -0.589747    26A     -0.562604    27A     -0.534993
      28A     -0.528191    29A     -0.522579    30A     -0.513919
      31A     -0.491095    32A     -0.467236    33A     -0.463634
      34A     -0.461366    35A     -0.457366    36A     -0.438449

  @DF-RHF Final Energy:  -423.12945731333656

   => Energetics <=

    Nuclear Repulsion Energy =            457.6654931509424955
    One-Electron Energy =               -1483.3586911874367615
    Two-Electron Energy =                 602.5637407231580482
    DFT Exchange-Correlation Energy =       0.0000000000000000
    Empirical Dispersion Energy =           0.0000000000000000
    PCM Polarization Energy =               0.0000000000000000
    EFP Energy =                            0.0000000000000000
    Total Energy =                       -423.1294573133362746
    Molecular point group: c1
  Basis Set: CC-PVTZ
  Basis Set:

  -Total Gradient:
     Atom            X                  Y                   Z
    ------   -----------------  -----------------  -----------------
       1        0.000002461106    -0.000001758104    -0.000007797611
       2       -0.000004024249    -0.000000454708     0.000000711926
       3       -0.000000331253    -0.000001956667     0.000028357706
       4       -0.000000969690     0.000002340347     0.000007054259
       5        0.000003258699     0.000003109120    -0.000018706823
       6        0.000000266190     0.000003534669    -0.000010047682
       7        0.000001237489    -0.000004184629    -0.000010023775
       8        0.000063691811     0.000087736487    -0.000085619409
       9        0.000000311652    -0.000000111710     0.000002809811
      10       -0.000000276243     0.000000393760     0.000002356243
      11       -0.000026363521    -0.000030850311     0.000138387875
      12       -0.000051419935    -0.000067743892     0.000055546132
      13       -0.000002227853    -0.000001375941    -0.000001194161
      14        0.000001174005     0.000003317734     0.000001574337
      15        0.000010373337     0.000009654860    -0.000103119019
      16        0.000001570960    -0.000001690393     0.000001110974
      17       -0.000000054707    -0.000000875092    -0.000000575228
      18        0.000000439594    -0.000000612624     0.000000017360
      19       -0.000001774076     0.000001652920     0.000000880144
      20        0.000000940532    -0.000001140896    -0.000001149576
      21        0.000000073468     0.000000402332    -0.000000543397
      22        0.000001428075     0.000000317543    -0.000000150585
      23        0.000000214614     0.000000295197     0.000000120498

  **** Optimization is complete! (in 7 steps) ****
    Final optimized geometry and variables:
    Molecular point group: c1

    Geometry (in Angstrom), charge = 0, multiplicity = 1:

    O            1.736371874099     1.103612781253    -0.098533203307
    C            1.582044171234    -0.069153680594    -0.143276258459
    C            0.251727773523    -0.777464028554    -0.153762012932
    O            2.585388527882    -0.930272472405    -0.190507770667
    C           -0.944014233299     0.163510046633    -0.110962052949
    H            0.228466172854    -1.404210494867    -1.039137735340
    H            0.245293784594    -1.459143100240     0.690578975459
    C           -2.269565153980    -0.595012543919    -0.115952612970
    H           -0.902040584358     0.833306497699    -0.962897926014
    H           -0.866427317652     0.789133782265     0.768761618894
    C           -3.510892008045     0.298012927387    -0.149256540539
    H           -2.295238843665    -1.252291519425    -0.981183944175
    H           -2.319581603021    -1.242753495989     0.756750620008
    C           -3.722899047647     1.140959579550     1.105816161746
    H           -4.382150281386    -0.332419486363    -0.297471212816
    H           -3.458481916914     0.950116726516    -1.016907876530
    H           -3.773603363202     0.515080154659     1.991158285751
    H           -4.651468409588     1.696475908180     1.042057181258
    H           -2.924721071592     1.858229618042     1.252534844098
    C            3.895697126130    -0.400951083228    -0.185802766970
    H            4.051997991399     0.237944225241    -1.042321713965
    H            4.559533870656    -1.249128618543    -0.228213964581
    H            4.074191152159     0.167438384527     0.714930899477

  Mulliken Charges: (a.u.)
   Center  Symbol    Alpha    Beta     Spin     Total
       1     O     4.19721  4.19721  0.00000 -0.39443
       2     C     2.80620  2.80620  0.00000  0.38761
       3     C     3.10121  3.10121  0.00000 -0.20242
       4     O     4.14641  4.14641  0.00000 -0.29282
       5     C     3.08629  3.08629  0.00000 -0.17258
       6     H     0.43934  0.43934  0.00000  0.12131
       7     H     0.44005  0.44005  0.00000  0.11989
       8     C     3.09801  3.09801  0.00000 -0.19602
       9     H     0.44636  0.44636  0.00000  0.10728
      10     H     0.44464  0.44464  0.00000  0.11072
      11     C     3.08996  3.08996  0.00000 -0.17992
      12     H     0.45012  0.45012  0.00000  0.09977
      13     H     0.45460  0.45460  0.00000  0.09080
      14     C     3.15259  3.15259  0.00000 -0.30518
      15     H     0.44832  0.44832  0.00000  0.10335
      16     H     0.45374  0.45374  0.00000  0.09251
      17     H     0.45555  0.45555  0.00000  0.08890
      18     H     0.44640  0.44640  0.00000  0.10720
      19     H     0.45117  0.45117  0.00000  0.09766
      20     C     3.03776  3.03776  0.00000 -0.07551
      21     H     0.45437  0.45437  0.00000  0.09126
      22     H     0.44534  0.44534  0.00000  0.10932
      23     H     0.45435  0.45435  0.00000  0.09131

   Total alpha = 36.00000, Total beta = 36.00000, Total charge = -0.00000
