  ==> Input File <==

--------------------------------------------------------------------------
set {
	reference rhf
	basis cc-pvtz
}

set_num_threads( 4 )
memory 2 gb

molecule MOL {
0 1

O	 -1.278239	 1.034789	 -0.784693
C	 -1.204115	 0.062668	 -0.112312
C	 -2.386398	 -0.667698	 0.460323
O	 -0.068058	 -0.518372	 0.226882
H	 -2.382952	 -1.693172	 0.114333
H	 -3.296656	 -0.175702	 0.158400
H	 -2.312537	 -0.685191	 1.540100
C	 1.169086	 0.037484	 -0.230612
C	 1.930764	 -1.100438	 -0.880299
C	 1.915350	 0.662872	 0.934115
H	 0.940584	 0.796594	 -0.963161
H	 1.363469	 -1.521483	 -1.700450
H	 2.876572	 -0.740612	 -1.267191
H	 2.130846	 -1.887567	 -0.163131
H	 2.858014	 1.073494	 0.591661
H	 1.338144	 1.463924	 1.374339
H	 2.123094	 -0.080561	 1.695320

	symmetry c1
}
set optking {
	frozen_dihedral = ("
		11 8 4 2
	")
}

ee = optimize('scf')
oeprop('DIPOLE', 'QUADRUPOLE', 'MULLIKEN_CHARGES')
f=open( 'psi4out.xyz', 'w' )
f.write( "17  " )
f.write( str(ee) + "\n" )
f.write( MOL.save_string_xyz() )
f.close()
--------------------------------------------------------------------------

    Molecular point group: c1
  Charge       = 0
  Multiplicity = 1
  Basis Set: CC-PVTZ
  Basis Set:
  @DF-RHF Final Energy:  -345.04228568202365
    Total Energy =                       -345.0422856820238167
    Molecular point group: c1
  Basis Set: CC-PVTZ
  Basis Set:
  Basis Set: CC-PVTZ
  Basis Set:
  @DF-RHF Final Energy:  -345.04245779656293
    Total Energy =                       -345.0424577965625303
  Basis Set: CC-PVTZ
  Basis Set:
  Basis Set: CC-PVTZ
  Basis Set:
  @DF-RHF Final Energy:  -345.04223130479124
    Total Energy =                       -345.0422313047911302
  Basis Set: CC-PVTZ
  Basis Set:
  Basis Set: CC-PVTZ
  Basis Set:
  @DF-RHF Final Energy:  -345.04256737666071
    Total Energy =                       -345.0425673766605996
  Basis Set: CC-PVTZ
  Basis Set:
  Basis Set: CC-PVTZ
  Basis Set:
  @DF-RHF Final Energy:  -345.04257667217411
    Total Energy =                       -345.0425766721739365
  Basis Set: CC-PVTZ
  Basis Set:
  Charge       = 0
  Multiplicity = 1
  Basis Set: CC-PVTZ
  Basis Set:

    Orbital Energies (a.u.)
    -----------------------

    Doubly Occupied:

       1A    -20.590548     2A    -20.531057     3A    -11.367228
       4A    -11.286818     5A    -11.230263     6A    -11.217816
       7A    -11.216871     8A     -1.467253     9A     -1.364637
      10A     -1.080066    11A     -1.005530    12A     -0.949555
      13A     -0.849686    14A     -0.770101    15A     -0.694978
      16A     -0.667432    17A     -0.664030    18A     -0.614106
      19A     -0.587329    20A     -0.579246    21A     -0.568012
      22A     -0.551897    23A     -0.535447    24A     -0.524547
      25A     -0.504531    26A     -0.482978    27A     -0.447276
      28A     -0.440284

  @DF-RHF Final Energy:  -345.04257713844413

   => Energetics <=

    Nuclear Repulsion Energy =            322.3819791332307432
    One-Electron Energy =               -1109.2700790435890212
    Two-Electron Energy =                 441.8455227719139771
    DFT Exchange-Correlation Energy =       0.0000000000000000
    Empirical Dispersion Energy =           0.0000000000000000
    PCM Polarization Energy =               0.0000000000000000
    EFP Energy =                            0.0000000000000000
    Total Energy =                       -345.0425771384443010
    Molecular point group: c1
  Basis Set: CC-PVTZ
  Basis Set:

  -Total Gradient:
     Atom            X                  Y                   Z
    ------   -----------------  -----------------  -----------------
       1       -0.000057809348     0.000014650414    -0.000009593250
       2       -0.000018471340    -0.000436666660    -0.000608068057
       3        0.000009962981    -0.000012108339    -0.000040186506
       4        0.000030110076     0.000680227699     0.001027139196
       5        0.000005934275     0.000005256809     0.000009834778
       6       -0.000004186288     0.000005101209     0.000003604326
       7        0.000003584338     0.000015651632     0.000002715117
       8       -0.000027133716    -0.000908448888    -0.001002690411
       9       -0.000035602123     0.000007805043     0.000017950619
      10        0.000082728979     0.000010265922    -0.000037576439
      11        0.000013221124     0.000584683709     0.000618545770
      12       -0.000001334742    -0.000000309559    -0.000004310929
      13       -0.000019835119     0.000013988736     0.000010280381
      14       -0.000004142567     0.000002660918     0.000004717162
      15        0.000036680312     0.000024645793     0.000030567557
      16       -0.000007593307    -0.000008984582    -0.000014841224
      17       -0.000006113538     0.000001580141    -0.000008088093

  **** Optimization is complete! (in 6 steps) ****
    Final optimized geometry and variables:
    Molecular point group: c1

    Geometry (in Angstrom), charge = 0, multiplicity = 1:

    O           -1.307616938420     1.124517193226    -0.710596768145
    C           -1.218369227491     0.143958069226    -0.053013768002
    C           -2.390344399054    -0.598721051856     0.525315285553
    O           -0.077563057640    -0.438356045748     0.270717252650
    H           -2.388208445484    -1.618921653042     0.164064351180
    H           -3.306337146317    -0.105505566413     0.243482021249
    H           -2.301063830672    -0.632133017546     1.603505894283
    C            1.165077051967     0.096886034027    -0.197119413639
    C            1.936804040937    -1.043308013956    -0.832007405679
    C            1.886631081997     0.724408972982     0.981411213511
    H            0.947478055315     0.855275726972    -0.930604409153
    H            1.385742905609    -1.461091563225    -1.665105271962
    H            2.891774347231    -0.687262337018    -1.199835931718
    H            2.118955408467    -1.831925488264    -0.111546514886
    H            2.838231322766     1.133566837865     0.662899815403
    H            1.297325700811     1.528374742315     1.404025747010
    H            2.070888486805    -0.011997261876     1.754849709542

  Mulliken Charges: (a.u.)
   Center  Symbol    Alpha    Beta     Spin     Total
       1     O     4.19945  4.19945  0.00000 -0.39891
       2     C     2.80272  2.80272  0.00000  0.39456
       3     C     3.14078  3.14078  0.00000 -0.28155
       4     O     4.16701  4.16701  0.00000 -0.33402
       5     H     0.44619  0.44619  0.00000  0.10761
       6     H     0.43848  0.43848  0.00000  0.12304
       7     H     0.44609  0.44609  0.00000  0.10782
       8     C     2.93668  2.93668  0.00000  0.12664
       9     C     3.13928  3.13928  0.00000 -0.27856
      10     C     3.14471  3.14471  0.00000 -0.28942
      11     H     0.43489  0.43489  0.00000  0.13021
      12     H     0.44714  0.44714  0.00000  0.10571
      13     H     0.45346  0.45346  0.00000  0.09309
      14     H     0.45276  0.45276  0.00000  0.09448
      15     H     0.45206  0.45206  0.00000  0.09588
      16     H     0.44518  0.44518  0.00000  0.10963
      17     H     0.45311  0.45311  0.00000  0.09378

   Total alpha = 28.00000, Total beta = 28.00000, Total charge = -0.00000
