                              Psi4 1.0.54 Driver

  ==> Input File <==

--------------------------------------------------------------------------
set {
	reference rhf
	basis cc-pvtz
}

set_num_threads( 4 )
memory 2 gb

molecule MOL {
0 1

H	 -2.355497	 -0.444887	 -0.079161
O	 -1.432053	 -0.565244	 -0.200812
C	 -0.727158	 0.534527	 0.310686
C	 0.680222	 0.664433	 -0.252229
H	 -1.306802	 1.408001	 0.044211
H	 -0.690821	 0.490158	 1.397609
C	 1.605391	 -0.489360	 0.123098
H	 0.615089	 0.745647	 -1.332226
H	 1.101414	 1.597893	 0.110950
H	 1.247627	 -1.432485	 -0.275204
H	 2.601435	 -0.332816	 -0.273062
H	 1.691776	 -0.589902	 1.200774

	symmetry c1
}
set optking {
	frozen_dihedral = ("
		1 2 3 4
	")
}

ee,wfn = optimize('scf', return_wfn=True)
oeprop( wfn, 'DIPOLE', 'QUADRUPOLE', 'MULLIKEN_CHARGES')
f=open( 'psi4out.xyz', 'w' )
f.write( "12  " )
f.write( str(ee) + "\n" )
f.write( MOL.save_string_xyz() )
f.close()
--------------------------------------------------------------------------

    Molecular point group: c1
  Charge       = 0
  Multiplicity = 1
  Basis Set: CC-PVTZ
  Basis Set:
  @DF-RHF Final Energy:  -193.18913876559964
    Total Energy =                       -193.1891387655996368
    Molecular point group: c1
  Basis Set: CC-PVTZ
  Basis Set:
  Basis Set: CC-PVTZ
  Basis Set:
  @DF-RHF Final Energy:  -192.96548971316815
    Total Energy =                       -192.9654897131682105
  Basis Set: CC-PVTZ
  Basis Set:
  Basis Set: CC-PVTZ
  Basis Set:
  @DF-RHF Final Energy:  -193.09024557055659
    Total Energy =                       -193.0902455705564762
  Basis Set: CC-PVTZ
  Basis Set:
  Basis Set: CC-PVTZ
  Basis Set:
  @DF-RHF Final Energy:  -193.17751046530952
    Total Energy =                       -193.1775104653095525
  Basis Set: CC-PVTZ
  Basis Set:
  @DF-RHF Final Energy:  -193.18711522363822
    Total Energy =                       -193.1871152236381590
  @DF-RHF Final Energy:  -193.19010104398441
    Total Energy =                       -193.1901010439843844
  Basis Set: CC-PVTZ
  Basis Set:
  @DF-RHF Final Energy:  -193.19079399053325
    Total Energy =                       -193.1907939905333365
  Basis Set: CC-PVTZ
  Basis Set:
  Basis Set: CC-PVTZ
  Basis Set:
  @DF-RHF Final Energy:  -193.19083904872761
    Total Energy =                       -193.1908390487275256
  Basis Set: CC-PVTZ
  Basis Set:
  Basis Set: CC-PVTZ
  Basis Set:
  @DF-RHF Final Energy:  -193.19084236778411
    Total Energy =                       -193.1908423677842279
  Basis Set: CC-PVTZ
  Basis Set:
  Charge       = 0
  Multiplicity = 1
  Basis Set: CC-PVTZ
  Basis Set:

    Orbital Energies (a.u.)
    -----------------------

    Doubly Occupied:

       1A    -20.546072     2A    -11.266235     3A    -11.212869
       4A    -11.201139     5A     -1.364038     6A     -1.047852
       7A     -0.919014     8A     -0.799242     9A     -0.707642
      10A     -0.644038    11A     -0.587399    12A     -0.578005
      13A     -0.541331    14A     -0.499950    15A     -0.481233
      16A     -0.465175    17A     -0.435807

  @DF-RHF Final Energy:  -193.19084271193896

   => Energetics <=

    Nuclear Repulsion Energy =            133.3910908155904735
    One-Electron Energy =                -526.5697929916648263
    Two-Electron Energy =                 199.9878594641353686
    DFT Exchange-Correlation Energy =       0.0000000000000000
    Empirical Dispersion Energy =           0.0000000000000000
    PCM Polarization Energy =               0.0000000000000000
    EFP Energy =                            0.0000000000000000
    Total Energy =                       -193.1908427119389842
    Molecular point group: c1
  Basis Set: CC-PVTZ
  Basis Set:

  -Total Gradient:
     Atom            X                  Y                   Z
    ------   -----------------  -----------------  -----------------
       1       -0.000518670651     0.000176593778    -0.001285712166
       2        0.000447635469    -0.000144744775     0.001318948753
       3        0.000571695370    -0.000316637970     0.000652114948
       4       -0.000501981963     0.000245611507    -0.000678395456
       5       -0.000009151644     0.000012903712    -0.000016963321
       6        0.000009706226     0.000011222639     0.000034865213
       7        0.000007509078     0.000034018871     0.000012337054
       8        0.000003428858    -0.000025276886    -0.000032660097
       9       -0.000000808132     0.000034196047     0.000000075974
      10       -0.000034382722    -0.000035719949     0.000010822271
      11        0.000023239519     0.000001909568    -0.000024404212
      12        0.000001780588     0.000005923457     0.000008971041

  **** Optimization is complete! (in 10 steps) ****
    Final optimized geometry and variables:
    Molecular point group: c1

    Geometry (in Angstrom), charge = 0, multiplicity = 1:

    H           -2.116076876963     0.416056827387     0.907529604150
    O           -1.376390129303    -0.043659132577     0.557543394288
    C           -0.343035232050     0.858497746263     0.254256392490
    C            0.610932738890     0.214456028337    -0.733593841082
    H           -0.750167380805     1.767524536278    -0.180251631345
    H            0.190184371143     1.137386827325     1.161005510802
    C            1.300510141924    -1.031633982771    -0.187833866804
    H            0.057394955369    -0.034421547336    -1.632942679038
    H            1.355455104636     0.954583876671    -1.013118997200
    H            0.575478996281    -1.786331523381     0.086532857122
    H            1.968990900151    -1.457356971747    -0.927283892862
    H            1.888288923910    -0.796527591104     0.693805516852

  Mulliken Charges: (a.u.)
   Center  Symbol    Alpha    Beta     Spin     Total
       1     H     0.39377  0.39377  0.00000  0.21247
       2     O     4.20076  4.20076  0.00000 -0.40151
       3     C     2.96822  2.96822  0.00000  0.06355
       4     C     3.08100  3.08100  0.00000 -0.16200
       5     H     0.46773  0.46773  0.00000  0.06454
       6     H     0.47456  0.47456  0.00000  0.05088
       7     C     3.14826  3.14826  0.00000 -0.29653
       8     H     0.45437  0.45437  0.00000  0.09127
       9     H     0.45636  0.45636  0.00000  0.08728
      10     H     0.44506  0.44506  0.00000  0.10987
      11     H     0.45112  0.45112  0.00000  0.09777
      12     H     0.45879  0.45879  0.00000  0.08242

   Total alpha = 17.00000, Total beta = 17.00000, Total charge = -0.00000

*** Psi4 exiting successfully. Buy a developer a beer!
