  ==> Input File <==

--------------------------------------------------------------------------
set {
	reference rhf
	basis cc-pvtz
}

set_num_threads( 4 )
memory 2 gb

molecule MOL {
0 1

H	 -2.265807	 -0.915581	 0.776136
O	 -2.346257	 -0.289210	 0.080372
C	 -1.183935	 0.486039	 -0.009831
C	 0.062853	 -0.375310	 0.027457
H	 -1.178881	 1.094526	 -0.908634
H	 -1.184406	 1.155156	 0.838676
O	 1.172093	 0.457955	 -0.054438
H	 0.052476	 -1.081302	 -0.804627
H	 0.076323	 -0.955658	 0.947560
C	 2.395478	 -0.199028	 -0.000366
H	 2.505946	 -0.901710	 -0.823354
H	 3.174616	 0.545641	 -0.071768
H	 2.513730	 -0.742241	 0.934223

	symmetry c1
}
set optking {
	frozen_dihedral = ("
		1 2 3 5
	")
}

ee = optimize('scf')
oeprop('DIPOLE', 'QUADRUPOLE', 'MULLIKEN_CHARGES')
f=open( 'psi4out.xyz', 'w' )
f.write( "13  " )
f.write( str(ee) + "\n" )
f.write( MOL.save_string_xyz() )
f.close()
--------------------------------------------------------------------------

    Molecular point group: c1
  Charge       = 0
  Multiplicity = 1
  Basis Set: CC-PVTZ
  Basis Set:
  @DF-RHF Final Energy:  -268.05988891120057
    Total Energy =                       -268.0598889112005736
    Molecular point group: c1
  Basis Set: CC-PVTZ
  Basis Set:
  Basis Set: CC-PVTZ
  Basis Set:
  @DF-RHF Final Energy:  -268.06133171084775
    Total Energy =                       -268.0613317108478100
  Basis Set: CC-PVTZ
  Basis Set:
  Basis Set: CC-PVTZ
  Basis Set:
  @DF-RHF Final Energy:  -268.06163256750142
    Total Energy =                       -268.0616325675013627
  Basis Set: CC-PVTZ
  Basis Set:
  Basis Set: CC-PVTZ
  Basis Set:
  @DF-RHF Final Energy:  -268.06163774637105
    Total Energy =                       -268.0616377463709341
  Basis Set: CC-PVTZ
  Basis Set:
  Charge       = 0
  Multiplicity = 1
  Basis Set: CC-PVTZ
  Basis Set:

    Orbital Energies (a.u.)
    -----------------------

    Doubly Occupied:

       1A    -20.558370     2A    -20.552611     3A    -11.273041
       4A    -11.269547     5A    -11.267380     6A     -1.394426
       7A     -1.369236     8A     -1.020934     9A     -0.915145
      10A     -0.847189    11A     -0.707711    12A     -0.678985
      13A     -0.668385    14A     -0.635736    15A     -0.599258
      16A     -0.578483    17A     -0.546223    18A     -0.496112
      19A     -0.478769    20A     -0.442912    21A     -0.427138

  @DF-RHF Final Energy:  -268.06163822055225

   => Energetics <=

    Nuclear Repulsion Energy =            190.6259412960144743
    One-Electron Energy =                -743.9199794336182094
    Two-Electron Energy =                 285.2323999170514526
    DFT Exchange-Correlation Energy =       0.0000000000000000
    Empirical Dispersion Energy =           0.0000000000000000
    PCM Polarization Energy =               0.0000000000000000
    EFP Energy =                            0.0000000000000000
    Total Energy =                       -268.0616382205522541
    Molecular point group: c1
  Basis Set: CC-PVTZ
  Basis Set:

  -Total Gradient:
     Atom            X                  Y                   Z
    ------   -----------------  -----------------  -----------------
       1        0.000846843468    -0.001332564555    -0.001186105413
       2       -0.000884657582     0.001348759773     0.001303368142
       3       -0.000818240957     0.001249247141     0.000663056945
       4       -0.000038603550     0.000029221077    -0.000003198859
       5        0.000843874273    -0.001277325703    -0.000753637305
       6        0.000003023543    -0.000022068877    -0.000004723970
       7        0.000036023605    -0.000006792452    -0.000004329842
       8        0.000005477949    -0.000010626619     0.000000136174
       9       -0.000007935994     0.000017430082    -0.000020111803
      10        0.000006972328     0.000008172508     0.000012604098
      11       -0.000000264878     0.000001991119    -0.000002139396
      12        0.000002979738    -0.000002241814    -0.000004760262
      13        0.000004508063    -0.000003201678    -0.000000158508

  **** Optimization is complete! (in 5 steps) ****
    Final optimized geometry and variables:
    Molecular point group: c1

    Geometry (in Angstrom), charge = 0, multiplicity = 1:

    H           -2.312850518127    -0.894835238722     0.744116898855
    O           -2.351746615478    -0.290297831397     0.025184929976
    C           -1.187217926390     0.484921802496    -0.022089283235
    C            0.062515817276    -0.372714781727     0.018761628699
    H           -1.209204643350     1.025349072749    -0.957430236973
    H           -1.157611340425     1.207526083338     0.787168847856
    O            1.169652700843     0.463686000252    -0.035546472881
    H            0.056243570533    -1.067858433438    -0.818581490035
    H            0.077954039319    -0.964968292863     0.936408297497
    C            2.394193728304    -0.194030989083    -0.032794868870
    H            2.491896917417    -0.854991935452    -0.890715672938
    H            3.171400940255     0.554455179465    -0.078893737069
    H            2.527240058964    -0.782208526557     0.872476995724

  Mulliken Charges: (a.u.)
   Center  Symbol    Alpha    Beta     Spin     Total
       1     H     0.39458  0.39458  0.00000  0.21085
       2     O     4.20168  4.20168  0.00000 -0.40337
       3     C     2.96471  2.96471  0.00000  0.07058
       4     C     2.97076  2.97076  0.00000  0.05849
       5     H     0.45508  0.45508  0.00000  0.08983
       6     H     0.46826  0.46826  0.00000  0.06347
       7     O     4.17404  4.17404  0.00000 -0.34808
       8     H     0.46869  0.46869  0.00000  0.06262
       9     H     0.48361  0.48361  0.00000  0.03278
      10     C     3.03231  3.03231  0.00000 -0.06463
      11     H     0.46979  0.46979  0.00000  0.06042
      12     H     0.44540  0.44540  0.00000  0.10921
      13     H     0.47108  0.47108  0.00000  0.05784

   Total alpha = 21.00000, Total beta = 21.00000, Total charge =  0.00000
