  ==> Input File <==

--------------------------------------------------------------------------
set {
	reference rhf
	basis 6-31G*
}

set_num_threads( 1 )
memory 2 gb

molecule MOL {
0 1

H	 -2.934558	 -1.655969	 1.175873
C	 -3.124531	 -1.107354	 0.244984
C	 -2.747325	 0.351860	 0.276931
O	 -3.595238	 -1.666037	 -0.692064
C	 -1.304021	 0.576517	 0.748798
H	 -2.913958	 0.769940	 -0.709046
H	 -3.430698	 0.843804	 0.968051
C	 -0.252658	 0.041456	 -0.226725
H	 -1.151784	 1.641804	 0.894646
H	 -1.167268	 0.114870	 1.725495
C	 1.180775	 0.282413	 0.250794
H	 -0.395976	 0.511527	 -1.197468
H	 -0.403692	 -1.024876	 -0.383771
C	 2.148627	 -0.814315	 -0.201312
H	 1.516199	 1.249228	 -0.115937
H	 1.192670	 0.346017	 1.338083
C	 3.580890	 -0.659131	 0.322722
H	 2.166869	 -0.852443	 -1.289387
H	 1.762857	 -1.776509	 0.128956
C	 4.324889	 0.564933	 -0.213704
H	 4.142010	 -1.551473	 0.056605
H	 3.564836	 -0.624694	 1.410140
H	 4.342616	 0.565491	 -1.300421
H	 3.866655	 1.493402	 0.110242
H	 5.353900	 0.572371	 0.132816

	symmetry c1
}
set optking {
	frozen_dihedral = ("
		6 3 5 8,
		6 3 2 4,
		3 5 8 12,
		8 11 14 18,
		20 17 14 18
	")
}

ee = energy('scf')
oeprop('DIPOLE', 'QUADRUPOLE', 'MULLIKEN_CHARGES')
f=open( 'psi4out.xyz', 'w' )
f.write( "25  " )
f.write( str(ee) + "\n" )
f.write( MOL.save_string_xyz() )
f.close()
--------------------------------------------------------------------------

    Molecular point group: c1

    Geometry (in Angstrom), charge = 0, multiplicity = 1:

       Center              X                  Y                   Z               Mass
    ------------   -----------------  -----------------  -----------------  -----------------
           H         -2.964266658175    -1.381350057242     1.126479724329     1.007825032070
           C         -3.154239658175    -0.832735057242     0.195590724329    12.000000000000
           C         -2.777033658175     0.626478942758     0.227537724329    12.000000000000
           O         -3.624946658175    -1.391418057242    -0.741457275671    15.994914619560
           C         -1.333729658175     0.851135942758     0.699404724329    12.000000000000
           H         -2.943666658175     1.044558942758    -0.758439275671     1.007825032070
           H         -3.460406658175     1.118422942758     0.918657724329     1.007825032070
           C         -0.282366658175     0.316074942758    -0.276118275671    12.000000000000
           H         -1.181492658175     1.916422942758     0.845252724329     1.007825032070
           H         -1.196976658175     0.389488942758     1.676101724329     1.007825032070
           C          1.151066341825     0.557031942758     0.201400724329    12.000000000000
           H         -0.425684658175     0.786145942758    -1.246861275671     1.007825032070
           H         -0.433400658175    -0.750257057242    -0.433164275671     1.007825032070
           C          2.118918341825    -0.539696057242    -0.250705275671    12.000000000000
           H          1.486490341825     1.523846942758    -0.165330275671     1.007825032070
           H          1.162961341825     0.620635942758     1.288689724329     1.007825032070
           C          3.551181341825    -0.384512057242     0.273328724329    12.000000000000
           H          2.137160341825    -0.577824057242    -1.338780275671     1.007825032070
           H          1.733148341825    -1.501890057242     0.079562724329     1.007825032070
           C          4.295180341825     0.839551942758    -0.263097275671    12.000000000000
           H          4.112301341825    -1.276854057242     0.007211724329     1.007825032070
           H          3.535127341825    -0.350075057242     1.360746724329     1.007825032070
           H          4.312907341825     0.840109942758    -1.349814275671     1.007825032070
           H          3.836946341825     1.768020942758     0.060848724329     1.007825032070
           H          5.324191341825     0.846989942758     0.083422724329     1.007825032070

  Charge       = 0
  Multiplicity = 1
  Basis Set: 6-31G*
  Basis Set:

    Orbital Energies (a.u.)
    -----------------------

    Doubly Occupied:

       1A    -20.561904     2A    -11.326078     3A    -11.235505
       4A    -11.234420     5A    -11.222997     6A    -11.219014
       7A    -11.217948     8A    -11.217257     9A    -11.210539
      10A     -1.401894    11A     -1.104094    12A     -1.069589
      13A     -1.013246    14A     -0.942176    15A     -0.875629
      16A     -0.820444    17A     -0.787919    18A     -0.782182
      19A     -0.664627    20A     -0.660600    21A     -0.631789
      22A     -0.625881    23A     -0.601094    24A     -0.591386
      25A     -0.581615    26A     -0.549138    27A     -0.536383
      28A     -0.525082    29A     -0.507577    30A     -0.496147
      31A     -0.490624    32A     -0.479373    33A     -0.462478
      34A     -0.458481    35A     -0.440894    36A     -0.409458

  @DF-RHF Final Energy:  -387.11892304374868

   => Energetics <=

    Nuclear Repulsion Energy =            439.9863709614009508
    One-Electron Energy =               -1396.2994429244051844
    Two-Electron Energy =                 569.1941489192560084
    DFT Exchange-Correlation Energy =       0.0000000000000000
    Empirical Dispersion Energy =           0.0000000000000000
    PCM Polarization Energy =               0.0000000000000000
    EFP Energy =                            0.0000000000000000
    Total Energy =                       -387.1189230437481683

  Mulliken Charges: (a.u.)
   Center  Symbol    Alpha    Beta     Spin     Total
       1     H     0.43271  0.43271  0.00000  0.13457
       2     C     2.83063  2.83063  0.00000  0.33873
       3     C     3.20860  3.20860  0.00000 -0.41719
       4     O     4.23778  4.23778  0.00000 -0.47555
       5     C     3.16793  3.16793  0.00000 -0.33585
       6     H     0.39973  0.39973  0.00000  0.20055
       7     H     0.40679  0.40679  0.00000  0.18643
       8     C     3.15594  3.15594  0.00000 -0.31188
       9     H     0.41254  0.41254  0.00000  0.17491
      10     H     0.41939  0.41939  0.00000  0.16122
      11     C     3.15559  3.15559  0.00000 -0.31117
      12     H     0.41644  0.41644  0.00000  0.16712
      13     H     0.41752  0.41752  0.00000  0.16496
      14     C     3.15460  3.15460  0.00000 -0.30921
      15     H     0.41815  0.41815  0.00000  0.16369
      16     H     0.42335  0.42335  0.00000  0.15330
      17     C     3.15297  3.15297  0.00000 -0.30594
      18     H     0.42209  0.42209  0.00000  0.15583
      19     H     0.42132  0.42132  0.00000  0.15735
      20     C     3.24136  3.24136  0.00000 -0.48272
      21     H     0.42007  0.42007  0.00000  0.15986
      22     H     0.42348  0.42348  0.00000  0.15305
      23     H     0.42167  0.42167  0.00000  0.15666
      24     H     0.42061  0.42061  0.00000  0.15877
      25     H     0.41874  0.41874  0.00000  0.16252

   Total alpha = 36.00000, Total beta = 36.00000, Total charge = -0.00000
