  ==> Input File <==

--------------------------------------------------------------------------
set {
	reference rhf
	basis 6-31G*
}

set_num_threads( 4 )
memory 2 gb

molecule MOL {
0 1

H	 2.421060	 -0.928070	 -2.014435
C	 1.699358	 -1.151640	 -1.237203
C	 1.322923	 0.120767	 -0.479465
H	 0.832263	 -1.602400	 -1.709786
H	 2.143063	 -1.888953	 -0.575319
C	 0.306652	 -0.176050	 0.621399
H	 0.898060	 0.849474	 -1.162037
H	 2.203291	 0.566739	 -0.031890
N	 -1.068537	 -0.011044	 0.085269
H	 0.372515	 -1.192590	 0.973735
H	 0.391664	 0.520566	 1.441230
O	 -1.656956	 -0.997225	 -0.235017
O	 -1.478635	 1.104830	 -0.018026

	symmetry c1
}
set optking {
	frozen_dihedral = ("
		7 3 6 9
	")
}

ee = optimize('scf')
oeprop('DIPOLE', 'QUADRUPOLE', 'MULLIKEN_CHARGES')
f=open( 'psi4out.xyz', 'w' )
f.write( "13  " )
f.write( str(ee) + "\n" )
f.write( MOL.save_string_xyz() )
f.close()
--------------------------------------------------------------------------

    Molecular point group: c1
  Charge       = 0
  Multiplicity = 1
  Basis Set: 6-31G*
  Basis Set:
  @DF-RHF Final Energy:  -321.73236468365371
    Total Energy =                       -321.7323646836535431
    Molecular point group: c1
  Basis Set: 6-31G*
  Basis Set:
  Basis Set: 6-31G*
  Basis Set:
  @DF-RHF Final Energy:  -321.73246378500289
    Total Energy =                       -321.7324637850027784
  Basis Set: 6-31G*
  Basis Set:
  Basis Set: 6-31G*
  Basis Set:
  @DF-RHF Final Energy:  -321.73238938913778
    Total Energy =                       -321.7323893891376088
  Basis Set: 6-31G*
  Basis Set:
  Basis Set: 6-31G*
  Basis Set:
  @DF-RHF Final Energy:  -321.73253223829033
    Total Energy =                       -321.7325322382903892
  Basis Set: 6-31G*
  Basis Set:
  @DF-RHF Final Energy:  -321.73266116319212
    Total Energy =                       -321.7326611631918922
  Basis Set: 6-31G*
  Basis Set:
  @DF-RHF Final Energy:  -321.73270385036437
    Total Energy =                       -321.7327038503642598
  Basis Set: 6-31G*
  Basis Set:
  Basis Set: 6-31G*
  Basis Set:
  @DF-RHF Final Energy:  -321.73271202082174
    Total Energy =                       -321.7327120208218503
  Basis Set: 6-31G*
  Basis Set:
  Basis Set: 6-31G*
  Basis Set:
  @DF-RHF Final Energy:  -321.73271531257876
    Total Energy =                       -321.7327153125789891
  Basis Set: 6-31G*
  Basis Set:
  Charge       = 0
  Multiplicity = 1
  Basis Set: 6-31G*
  Basis Set:

    Orbital Energies (a.u.)
    -----------------------

    Doubly Occupied:

       1A    -20.602231     2A    -20.600069     3A    -15.847332
       4A    -11.299611     5A    -11.257826     6A    -11.232144
       7A     -1.630922     8A     -1.416290     9A     -1.133516
      10A     -1.024008    11A     -0.888019    12A     -0.828965
      13A     -0.760257    14A     -0.734150    15A     -0.723358
      16A     -0.645483    17A     -0.628033    18A     -0.594518
      19A     -0.529330    20A     -0.522632    21A     -0.515481
      22A     -0.482426    23A     -0.473459    24A     -0.448398

  @DF-RHF Final Energy:  -321.73271607651702

   => Energetics <=

    Nuclear Repulsion Energy =            250.6966579033629330
    One-Electron Energy =                -935.2218305694582341
    Two-Electron Energy =                 362.7924565895783076
    DFT Exchange-Correlation Energy =       0.0000000000000000
    Empirical Dispersion Energy =           0.0000000000000000
    PCM Polarization Energy =               0.0000000000000000
    EFP Energy =                            0.0000000000000000
    Total Energy =                       -321.7327160765169651
    Molecular point group: c1
  Basis Set: 6-31G*
  Basis Set:

  -Total Gradient:
     Atom            X                  Y                   Z
    ------   -----------------  -----------------  -----------------
       1        0.000001264733    -0.000003389551    -0.000003659896
       2        0.000018240146     0.000005528745    -0.000001982076
       3        0.002082507112     0.004910411149     0.003136572949
       4       -0.000004651279    -0.000001143162    -0.000004588707
       5       -0.000006010863     0.000009167625     0.000001824876
       6       -0.000466026722    -0.004793294527    -0.001617927586
       7       -0.001666143157    -0.003193937120    -0.002332192297
       8        0.000010442334    -0.000000287135    -0.000004529253
       9        0.000104826153     0.003013261799     0.000840809991
      10        0.000013655102     0.000004138981     0.000010357331
      11       -0.000000795048     0.000006452635    -0.000000157920
      12       -0.000040614136     0.000062378490     0.000000854425
      13       -0.000046694374    -0.000019287931    -0.000025381837

  **** Optimization is complete! (in 9 steps) ****
    Final optimized geometry and variables:
    Molecular point group: c1

    Geometry (in Angstrom), charge = 0, multiplicity = 1:

    H            2.600974076412    -0.735302689695    -1.830069551229
    C            1.899044225638    -0.976416195977    -1.039234237713
    C            1.507584586947     0.284692945498    -0.267535515625
    H            1.030677122361    -1.442727272062    -1.491408915028
    H            2.369956518244    -1.705454083669    -0.386971762409
    C            0.478258947548     0.010964070282     0.840414264416
    H            1.089215171881     1.009205864635    -0.956694465010
    H            2.382381630033     0.734462311521     0.187220973166
    N           -0.897202699052     0.183218787958     0.304383640070
    H            0.534493081242    -0.994687153016     1.223753275686
    H            0.555681056279     0.728801072900     1.641384958598
    O           -1.473915638297    -0.794993151513    -0.061520000713
    O           -1.320791043540     1.296903336766     0.246539107354

  Mulliken Charges: (a.u.)
   Center  Symbol    Alpha    Beta     Spin     Total
       1     H     0.41137  0.41137  0.00000  0.17726
       2     C     3.24661  3.24661  0.00000 -0.49321
       3     C     3.17481  3.17481  0.00000 -0.34962
       4     H     0.40485  0.40485  0.00000  0.19030
       5     H     0.41756  0.41756  0.00000  0.16488
       6     C     3.08893  3.08893  0.00000 -0.17785
       7     H     0.39513  0.39513  0.00000  0.20975
       8     H     0.40495  0.40495  0.00000  0.19010
       9     N     3.22494  3.22494  0.00000  0.55012
      10     H     0.38647  0.38647  0.00000  0.22706
      11     H     0.38609  0.38609  0.00000  0.22781
      12     O     4.22896  4.22896  0.00000 -0.45792
      13     O     4.22934  4.22934  0.00000 -0.45868

   Total alpha = 24.00000, Total beta = 24.00000, Total charge =  0.00000
