  ==> Input File <==

--------------------------------------------------------------------------
set {
	reference rhf
	basis 6-31G*
}

set_num_threads( 4 )
memory 2 gb

molecule MOL {
0 1

H	 0.101286	 -0.100461	 -2.332726
O	 -0.384834	 0.712829	 -2.342806
C	 -0.224731	 1.354852	 -1.111491
C	 -0.793441	 0.596080	 0.058728
H	 -0.724903	 2.312330	 -1.202409
H	 0.826206	 1.569911	 -0.920945
C	 -1.530462	 -0.493172	 -0.025500
H	 -0.559426	 1.010779	 1.027100
H	 -1.092586	 -1.461565	 -0.186463
H	 -2.602122	 -0.450675	 0.050101

	symmetry c1
}
set optking {
	frozen_dihedral = ("
		3 4 7 9
	")
}

ee = optimize('scf')
oeprop('DIPOLE', 'QUADRUPOLE', 'MULLIKEN_CHARGES')
f=open( 'psi4out.xyz', 'w' )
f.write( "10  " )
f.write( str(ee) + "\n" )
f.write( MOL.save_string_xyz() )
f.close()
--------------------------------------------------------------------------

    Molecular point group: c1
  Charge       = 0
  Multiplicity = 1
  Basis Set: 6-31G*
  Basis Set:
  @DF-RHF Final Energy:  -191.77126095677716
    Total Energy =                       -191.7712609567772120
    Molecular point group: c1
  Basis Set: 6-31G*
  Basis Set:
  Basis Set: 6-31G*
  Basis Set:
  @DF-RHF Final Energy:  -191.80856697415413
    Total Energy =                       -191.8085669741541039
  Basis Set: 6-31G*
  Basis Set:
  Basis Set: 6-31G*
  Basis Set:
  @DF-RHF Final Energy:  -191.84809333671086
    Total Energy =                       -191.8480933367108321
  Basis Set: 6-31G*
  Basis Set:
  Basis Set: 6-31G*
  Basis Set:
  @DF-RHF Final Energy:  -191.86398918305628
    Total Energy =                       -191.8639891830562192
  Basis Set: 6-31G*
  Basis Set:
  @DF-RHF Final Energy:  -191.86511458538592
    Total Energy =                       -191.8651145853858679
  @DF-RHF Final Energy:  -191.86566817042956
    Total Energy =                       -191.8656681704295863
  @DF-RHF Final Energy:  -191.86580060547175
    Total Energy =                       -191.8658006054716907
  @DF-RHF Final Energy:  -191.86581012870212
    Total Energy =                       -191.8658101287020372
  @DF-RHF Final Energy:  -191.86581390641385
    Total Energy =                       -191.8658139064137913
  @DF-RHF Final Energy:  -191.83380122688732
    Total Energy =                       -191.8338012268871751
  @DF-RHF Final Energy:  -191.78201964258801
    Total Energy =                       -191.7820196425879828
  @DF-RHF Final Energy:  -191.84998246153395
    Total Energy =                       -191.8499824615340117
  @DF-RHF Final Energy:  -191.80332850728371
    Total Energy =                       -191.8033285072836520
  @DF-RHF Final Energy:  -191.85173943109251
    Total Energy =                       -191.8517394310924828
  @DF-RHF Final Energy:  -191.81979606490131
    Total Energy =                       -191.8197960649013680
  @DF-RHF Final Energy:  -191.85911938474487
    Total Energy =                       -191.8591193847447869
  @DF-RHF Final Energy:  -191.86394740867624
    Total Energy =                       -191.8639474086763244
  @DF-RHF Final Energy:  -191.86520088331906
    Total Energy =                       -191.8652008833190905
  @DF-RHF Final Energy:  -191.86574658922223
    Total Energy =                       -191.8657465892222262
  @DF-RHF Final Energy:  -191.86580107450868
    Total Energy =                       -191.8658010745086813
  @DF-RHF Final Energy:  -191.86581168429601
    Total Energy =                       -191.8658116842959203
  @DF-RHF Final Energy:  -191.86575455425955
    Total Energy =                       -191.8657545542595244
  @DF-RHF Final Energy:  -191.86581166966789
    Total Energy =                       -191.8658116696679201
  @DF-RHF Final Energy:  -191.86581263699102
    Total Energy =                       -191.8658126369910519
  @DF-RHF Final Energy:  -191.86581236459426
    Total Energy =                       -191.8658123645942908
  @DF-RHF Final Energy:  -191.86580183197432
    Total Energy =                       -191.8658018319743803
  @DF-RHF Final Energy:  -191.86581144089232
    Total Energy =                       -191.8658114408924007
  @DF-RHF Final Energy:  -191.86568765617301
    Total Energy =                       -191.8656876561728950
  @DF-RHF Final Energy:  -191.86574105028356
    Total Energy =                       -191.8657410502835887
  @DF-RHF Final Energy:  -191.86581272192691
    Total Energy =                       -191.8658127219268863
  @DF-RHF Final Energy:  -191.86581263912524
    Total Energy =                       -191.8658126391252381
  @DF-RHF Final Energy:  -191.86581248667386
    Total Energy =                       -191.8658124866738603
  @DF-RHF Final Energy:  -191.86581227643285
    Total Energy =                       -191.8658122764329050
  @DF-RHF Final Energy:  -191.86581194646530
    Total Energy =                       -191.8658119464652145
  @DF-RHF Final Energy:  -191.86581129051763
    Total Energy =                       -191.8658112905177404
  @DF-RHF Final Energy:  -191.86580919675256
    Total Energy =                       -191.8658091967525081
  Basis Set: 6-31G*
  Basis Set:
  @DF-RHF Final Energy:  -191.86581174309219
    Total Energy =                       -191.8658117430921379
  Basis Set: 6-31G*
  Basis Set:
  Basis Set: 6-31G*
  Basis Set:
  @DF-RHF Final Energy:  -191.86581238118328
    Total Energy =                       -191.8658123811832752
  Basis Set: 6-31G*
  Basis Set:
  Basis Set: 6-31G*
  Basis Set:
  @DF-RHF Final Energy:  -191.86581237159746
    Total Energy =                       -191.8658123715975137
  Basis Set: 6-31G*
  Basis Set:
  Charge       = 0
  Multiplicity = 1
  Basis Set: 6-31G*
  Basis Set:

    Orbital Energies (a.u.)
    -----------------------

    Doubly Occupied:

       1A    -20.558786     2A    -11.284721     3A    -11.240564
       4A    -11.226851     5A     -1.367149     6A     -1.059281
       7A     -0.933644     8A     -0.770920     9A     -0.689696
      10A     -0.645120    11A     -0.611742    12A     -0.571133
      13A     -0.542396    14A     -0.483441    15A     -0.443665
      16A     -0.350630

  @DF-RHF Final Energy:  -191.86581225362636

   => Energetics <=

    Nuclear Repulsion Energy =            117.3791800516666086
    One-Electron Energy =                -492.9305071546139629
    Two-Electron Energy =                 183.6855148493210095
    DFT Exchange-Correlation Energy =       0.0000000000000000
    Empirical Dispersion Energy =           0.0000000000000000
    PCM Polarization Energy =               0.0000000000000000
    EFP Energy =                            0.0000000000000000
    Total Energy =                       -191.8658122536263591
    Molecular point group: c1
  Basis Set: 6-31G*
  Basis Set:

  -Total Gradient:
     Atom            X                  Y                   Z
    ------   -----------------  -----------------  -----------------
       1        0.000081085888    -0.000047236832    -0.000031505103
       2       -0.000132917718    -0.000126084078    -0.000240474644
       3       -0.020534948782     0.022480422745     0.007440587572
       4        0.040301225713    -0.044638161883     0.006336508940
       5        0.000118700858    -0.000099055019    -0.000014396690
       6        0.000005533171     0.000049907306     0.000166483078
       7       -0.030291615897     0.034885745685    -0.051987263276
       8        0.000271285398     0.000078880666    -0.000165292400
       9        0.010709503596    -0.012563609206     0.038349311454
      10       -0.000527852227    -0.000020809384     0.000146041071

    Molecular point group: c1

    Geometry (in Angstrom), charge = 0, multiplicity = 1:

    H            1.174302913983    -0.486798886512    -1.425672102470
    O            0.534460168088     0.211093126347    -1.437249250374
    C            0.462772185307     0.797052972512    -0.169957875790
    C           -0.081565036436    -0.077834225708     0.937238100215
    H           -0.239768197604     1.614530999243    -0.252244264021
    H            1.421468505403     1.226172178942     0.118300186540
    C           -1.060766647900    -0.990167772314     0.922592229417
    H           -0.123255488899     0.559506840649     1.815619749281
    H           -1.014211094579    -2.011797409230     0.576019913283
    H           -1.609408818738    -1.025671195959     1.857143301713

  Mulliken Charges: (a.u.)
   Center  Symbol    Alpha    Beta     Spin     Total
       1     H     0.28059  0.28059  0.00000  0.43883
       2     O     4.36522  4.36522  0.00000 -0.73043
       3     C     2.99981  2.99981  0.00000  0.00037
       4     C     3.09430  3.09430  0.00000 -0.18860
       5     H     0.40206  0.40206  0.00000  0.19588
       6     H     0.42664  0.42664  0.00000  0.14671
       7     C     3.18071  3.18071  0.00000 -0.36142
       8     H     0.42190  0.42190  0.00000  0.15619
       9     H     0.40705  0.40705  0.00000  0.18590
      10     H     0.42172  0.42172  0.00000  0.15657

   Total alpha = 16.00000, Total beta = 16.00000, Total charge =  0.00000
