  ==> Input File <==

--------------------------------------------------------------------------
set {
	reference rhf
	basis 6-31G*
}

set_num_threads( 4 )
memory 2 gb

molecule MOL {
0 1

H	 -2.129144	 0.952176	 -2.209459
N	 -1.154186	 0.841715	 -2.008883
C	 -0.788779	 -0.563695	 -1.988776
H	 -0.987550	 1.243255	 -1.106604
C	 0.678937	 -0.711441	 -1.646556
H	 -1.368368	 -1.157845	 -1.280917
H	 -0.956533	 -0.979970	 -2.977389
O	 0.874168	 -0.245412	 -0.342030
H	 0.979340	 -1.756456	 -1.719636
H	 1.277763	 -0.133703	 -2.347171
C	 2.202317	 -0.244239	 0.074611
H	 2.711377	 -1.041390	 -0.449894
H	 2.692099	 0.699270	 -0.159667
H	 2.283185	 -0.418429	 1.145558

	symmetry c1
}
set optking {
	frozen_dihedral = ("
		5 8 11 13
	")
}

ee = optimize('scf')
oeprop('DIPOLE', 'QUADRUPOLE', 'MULLIKEN_CHARGES')
f=open( 'psi4out.xyz', 'w' )
f.write( "14  " )
f.write( str(ee) + "\n" )
f.write( MOL.save_string_xyz() )
f.close()
--------------------------------------------------------------------------

    Molecular point group: c1
  Charge       = 0
  Multiplicity = 1
  Basis Set: 6-31G*
  Basis Set:
  @DF-RHF Final Energy:  -248.12214544196772
    Total Energy =                       -248.1221454419675752
    Molecular point group: c1
  Basis Set: 6-31G*
  Basis Set:
  Basis Set: 6-31G*
  Basis Set:
  @DF-RHF Final Energy:  -248.12312965733003
    Total Energy =                       -248.1231296573299687
  Basis Set: 6-31G*
  Basis Set:
  Basis Set: 6-31G*
  Basis Set:
  @DF-RHF Final Energy:  -248.12340590946712
    Total Energy =                       -248.1234059094669533
  Basis Set: 6-31G*
  Basis Set:
  Basis Set: 6-31G*
  Basis Set:
  @DF-RHF Final Energy:  -248.12340741245004
    Total Energy =                       -248.1234074124499216
  Basis Set: 6-31G*
  Basis Set:
  Charge       = 0
  Multiplicity = 1
  Basis Set: 6-31G*
  Basis Set:

    Orbital Energies (a.u.)
    -----------------------

    Doubly Occupied:

       1A    -20.555614     2A    -15.528238     3A    -11.265901
       4A    -11.265803     5A    -11.240504     6A     -1.378888
       7A     -1.173347     8A     -0.998961     9A     -0.907295
      10A     -0.814846    11A     -0.683452    12A     -0.672591
      13A     -0.643324    14A     -0.610380    15A     -0.604678
      16A     -0.540091    17A     -0.533067    18A     -0.496258
      19A     -0.472286    20A     -0.414677    21A     -0.379902

  @DF-RHF Final Energy:  -248.12340767076458

   => Energetics <=

    Nuclear Repulsion Energy =            194.5123848916654481
    One-Electron Energy =                -722.9113803317588918
    Two-Electron Energy =                 280.2755877693290358
    DFT Exchange-Correlation Energy =       0.0000000000000000
    Empirical Dispersion Energy =           0.0000000000000000
    PCM Polarization Energy =               0.0000000000000000
    EFP Energy =                            0.0000000000000000
    Total Energy =                       -248.1234076707644363
    Molecular point group: c1
  Basis Set: 6-31G*
  Basis Set:

  -Total Gradient:
     Atom            X                  Y                   Z
    ------   -----------------  -----------------  -----------------
       1       -0.000000531975     0.000002900720     0.000003306757
       2       -0.000001232034    -0.000000977357     0.000002072714
       3        0.000006967197     0.000006075047    -0.000022108590
       4       -0.000003445851     0.000002134028     0.000005209784
       5       -0.000278808839    -0.002307085649     0.000854276460
       6        0.000012220952     0.000003195101    -0.000000490847
       7       -0.000004293357    -0.000002782063    -0.000005311025
       8        0.000161578680     0.003585581772    -0.000434421253
       9        0.000004764216    -0.000001483221    -0.000002105685
      10       -0.000008029725     0.000001211821     0.000006672289
      11        0.000977220170    -0.002391721015    -0.003121864345
      12        0.000003755077    -0.000000340376    -0.000001281908
      13       -0.000872412401     0.001101239455     0.002712707259
      14        0.000002247887     0.000002051738     0.000003338389

  **** Optimization is complete! (in 5 steps) ****
    Final optimized geometry and variables:
    Molecular point group: c1

    Geometry (in Angstrom), charge = 0, multiplicity = 1:

    H           -2.502815306995     1.132044239194    -1.018137028461
    N           -1.526163037010     1.019639510548    -0.827271917082
    C           -1.161594290043    -0.386161939753    -0.818124208760
    H           -1.350975592816     1.415918831524     0.075711522429
    C            0.309568035476    -0.537560966758    -0.493211222294
    H           -1.733403535030    -0.983075254211    -0.106266248016
    H           -1.341019157396    -0.797688909259    -1.806687787431
    O            0.516699450778    -0.079301863655     0.812983915309
    H            0.607358788766    -1.582289534850    -0.572852721265
    H            0.899446441909     0.042042108472    -1.199714169597
    C            1.845741085286    -0.076855140666     1.236686882466
    H            2.414470794294    -0.887784932936     0.790110556988
    H            2.328209088872     0.869690815095     1.006342213004
    H            1.851384787974    -0.203796353460     2.312082221106

  Mulliken Charges: (a.u.)
   Center  Symbol    Alpha    Beta     Spin     Total
       1     H     0.33288  0.33288  0.00000  0.33424
       2     N     3.92525  3.92525  0.00000 -0.85050
       3     C     3.06895  3.06895  0.00000 -0.13790
       4     H     0.32371  0.32371  0.00000  0.35259
       5     C     2.99014  2.99014  0.00000  0.01971
       6     H     0.42669  0.42669  0.00000  0.14662
       7     H     0.42058  0.42058  0.00000  0.15884
       8     O     4.31192  4.31192  0.00000 -0.62385
       9     H     0.43058  0.43058  0.00000  0.13885
      10     H     0.42270  0.42270  0.00000  0.15461
      11     C     3.07733  3.07733  0.00000 -0.15466
      12     H     0.42969  0.42969  0.00000  0.14062
      13     H     0.42437  0.42437  0.00000  0.15126
      14     H     0.41521  0.41521  0.00000  0.16958

   Total alpha = 21.00000, Total beta = 21.00000, Total charge =  0.00000
