                              Psi4 1.0.54 Driver

  ==> Input File <==

--------------------------------------------------------------------------
set {
	reference rhf
	basis cc-pvtz
}

set_num_threads( 4 )
memory 2 gb

molecule MOL {
0 1

H	 2.769501	 0.620314	 0.565490
N	 2.326826	 -0.066186	 0.000000
C	 0.934676	 -0.005420	 0.000000
H	 2.737707	 -0.108086	 -0.903573
C	 0.226436	 -0.001077	 -1.195129
C	 0.226436	 -0.001077	 1.195129
H	 0.759091	 -0.011439	 -2.128123
C	 -1.153391	 0.009141	 -1.189028
H	 0.759091	 -0.011439	 2.128123
C	 -1.153391	 0.009141	 1.189028
H	 -1.680905	 0.012964	 -2.124348
C	 -1.857876	 0.014675	 0.000000
H	 -1.680905	 0.012964	 2.124348
H	 -2.930222	 0.022904	 0.000000

	symmetry c1
}
set optking {
	frozen_dihedral = ("
		1 2 3 5
	")
}

ee,wfn = optimize('scf', return_wfn=True)
oeprop( wfn, 'DIPOLE', 'QUADRUPOLE', 'MULLIKEN_CHARGES')
f=open( 'psi4out.xyz', 'w' )
f.write( "14  " )
f.write( str(ee) + "\n" )
f.write( MOL.save_string_xyz() )
f.close()
--------------------------------------------------------------------------

    Molecular point group: c1
  Charge       = 0
  Multiplicity = 1
  Basis Set: CC-PVTZ
  Basis Set:
  @DF-RHF Final Energy:  -285.83205334602997
    Total Energy =                       -285.8320533460301931
    Molecular point group: c1
  Basis Set: CC-PVTZ
  Basis Set:
  Basis Set: CC-PVTZ
  Basis Set:
  @DF-RHF Final Energy:  -285.83243423172905
    Total Energy =                       -285.8324342317288256
  Basis Set: CC-PVTZ
  Basis Set:
  Basis Set: CC-PVTZ
  Basis Set:
  @DF-RHF Final Energy:  -285.83252004872463
    Total Energy =                       -285.8325200487246889
  Basis Set: CC-PVTZ
  Basis Set:
  Basis Set: CC-PVTZ
  Basis Set:
  @DF-RHF Final Energy:  -285.83252585457291
    Total Energy =                       -285.8325258545729639
  Basis Set: CC-PVTZ
  Basis Set:
  Charge       = 0
  Multiplicity = 1
  Basis Set: CC-PVTZ
  Basis Set:

    Orbital Energies (a.u.)
    -----------------------

    Doubly Occupied:

       1A    -15.554148     2A    -11.268877     3A    -11.227909
       4A    -11.227527     5A    -11.218186     6A    -11.216515
       7A    -11.214185     8A     -1.224138     9A     -1.131512
      10A     -1.014481    11A     -0.988840    12A     -0.832917
      13A     -0.812965    14A     -0.707508    15A     -0.682760
      16A     -0.653504    17A     -0.604473    18A     -0.594944
      19A     -0.583278    20A     -0.527990    21A     -0.506466
      22A     -0.489226    23A     -0.446070    24A     -0.336727
      25A     -0.300868

  @DF-RHF Final Energy:  -285.83252635178161

   => Energetics <=

    Nuclear Repulsion Energy =            273.5858218468287646
    One-Electron Energy =                -928.1046622797855434
    Two-Electron Energy =                 368.6863140811751691
    DFT Exchange-Correlation Energy =       0.0000000000000000
    Empirical Dispersion Energy =           0.0000000000000000
    PCM Polarization Energy =               0.0000000000000000
    EFP Energy =                            0.0000000000000000
    Total Energy =                       -285.8325263517815529
    Molecular point group: c1
  Basis Set: CC-PVTZ
  Basis Set:

  -Total Gradient:
     Atom            X                  Y                   Z
    ------   -----------------  -----------------  -----------------
       1        0.000121396090     0.001777811693    -0.002082469894
       2       -0.000086123038    -0.001180475117     0.002635870028
       3       -0.000152047470    -0.002717380615    -0.000396778203
       4        0.000016759264     0.000008113446    -0.000005829548
       5       -0.000025921944     0.002137538868    -0.000081850268
       6        0.000095507707    -0.000008353283    -0.000067799754
       7        0.000003164874    -0.000006487805     0.000001489796
       8        0.000115718809    -0.000046174434    -0.000057891277
       9        0.000003025597     0.000014645150     0.000015955812
      10       -0.000096268673    -0.000030688036    -0.000067894463
      11       -0.000007341727     0.000011060557     0.000003800288
      12       -0.000001816956     0.000038759072     0.000121038852
      13        0.000015137210    -0.000002298309     0.000000271530
      14       -0.000001189742     0.000003928815    -0.000017912896

  **** Optimization is complete! (in 5 steps) ****
    Final optimized geometry and variables:
    Molecular point group: c1

    Geometry (in Angstrom), charge = 0, multiplicity = 1:

    H            2.744399293738     0.615600220674     0.599912579287
    N            2.334244188170    -0.077559827504     0.014142673517
    C            0.932119900248    -0.023572665159    -0.003941150850
    H            2.734154603353    -0.014207715002    -0.894848580972
    C            0.222279269766    -0.009748764986    -1.194895849723
    C            0.228951744813    -0.002777969892     1.194188467216
    H            0.751062887667    -0.016148669482    -2.130284285887
    C           -1.159868305414     0.006435004602    -1.186188708301
    H            0.769088610417    -0.024959565448     2.122053814174
    C           -1.149291236170     0.031618208845     1.193606019285
    H           -1.690851646226     0.010396449727    -2.119447865555
    C           -1.857162240656     0.032141805745     0.004605170508
    H           -1.674806118935     0.049190967576     2.129787138621
    H           -2.929496642268     0.051801025910     0.008523603593

  Mulliken Charges: (a.u.)
   Center  Symbol    Alpha    Beta     Spin     Total
       1     H     0.41964  0.41964  0.00000  0.16073
       2     N     3.67540  3.67540  0.00000 -0.35081
       3     C     2.88717  2.88717  0.00000  0.22566
       4     H     0.42672  0.42672  0.00000  0.14655
       5     C     3.11823  3.11823  0.00000 -0.23646
       6     C     3.11511  3.11511  0.00000 -0.23021
       7     H     0.43432  0.43432  0.00000  0.13136
       8     C     3.06131  3.06131  0.00000 -0.12261
       9     H     0.42821  0.42821  0.00000  0.14358
      10     C     3.05977  3.05977  0.00000 -0.11954
      11     H     0.42447  0.42447  0.00000  0.15106
      12     C     3.10038  3.10038  0.00000 -0.20076
      13     H     0.42434  0.42434  0.00000  0.15132
      14     H     0.42493  0.42493  0.00000  0.15014

   Total alpha = 25.00000, Total beta = 25.00000, Total charge = -0.00000

*** Psi4 exiting successfully. Buy a developer a beer!
