  ==> Input File <==

--------------------------------------------------------------------------
set {
	reference rhf
	basis 6-31G*
}

set_num_threads( 1 )
memory 2 gb

molecule MOL {
0 1

O	 -2.821601	 1.309235	 -0.001213
C	 -2.668563	 0.129746	 -0.000350
C	 -3.801572	 -0.864014	 -0.000442
O	 -1.481751	 -0.454642	 0.000584
H	 -4.417280	 -0.689587	 -0.874708
H	 -3.443784	 -1.883046	 -0.000565
H	 -4.417179	 -0.689832	 0.873954
C	 -0.334255	 0.388708	 0.000906
C	 0.891947	 -0.504646	 0.000751
H	 -0.365390	 1.025305	 -0.873475
H	 -0.365484	 1.024911	 0.875569
C	 2.191998	 0.301789	 0.000897
H	 0.855148	 -1.151283	 -0.871571
H	 0.855132	 -1.151660	 0.872805
C	 3.441114	 -0.581407	 0.000108
H	 2.215074	 0.954890	 -0.869742
H	 2.215465	 0.953923	 0.872248
C	 3.595375	 -1.395296	 1.284108
H	 4.321480	 0.041604	 -0.140915
H	 3.403995	 -1.255373	 -0.852806
H	 3.669303	 -0.747272	 2.152793
H	 4.489100	 -2.010573	 1.253679
H	 2.745116	 -2.054226	 1.435378

	symmetry c1
}
set optking {
	frozen_dihedral = ("
		13 9 8 10,
		2 4 8 10,
		16 12 9 13,
		1 2 4 8
	")
}

ee = energy('scf')
oeprop('DIPOLE', 'QUADRUPOLE', 'MULLIKEN_CHARGES')
f=open( 'psi4out.xyz', 'w' )
f.write( "23  " )
f.write( str(ee) + "\n" )
f.write( MOL.save_string_xyz() )
f.close()
--------------------------------------------------------------------------

    Molecular point group: c1

    Geometry (in Angstrom), charge = 0, multiplicity = 1:

       Center              X                  Y                   Z               Mass
    ------------   -----------------  -----------------  -----------------  -----------------
           O         -2.689498171872     1.496201604662    -0.149595461991    15.994914619560
           C         -2.536460171872     0.316712604662    -0.148732461991    12.000000000000
           C         -3.669469171872    -0.677047395338    -0.148824461991    12.000000000000
           O         -1.349648171872    -0.267675395338    -0.147798461991    15.994914619560
           H         -4.285177171872    -0.502620395338    -1.023090461991     1.007825032070
           H         -3.311681171872    -1.696079395338    -0.148947461991     1.007825032070
           H         -4.285076171872    -0.502865395338     0.725571538009     1.007825032070
           C         -0.202152171872     0.575674604662    -0.147476461991    12.000000000000
           C          1.024049828128    -0.317679395338    -0.147631461991    12.000000000000
           H         -0.233287171872     1.212271604662    -1.021857461991     1.007825032070
           H         -0.233381171872     1.211877604662     0.727186538009     1.007825032070
           C          2.324100828128     0.488755604662    -0.147485461991    12.000000000000
           H          0.987250828128    -0.964316395338    -1.019953461991     1.007825032070
           H          0.987234828128    -0.964693395338     0.724422538009     1.007825032070
           C          3.573216828128    -0.394440395338    -0.148274461991    12.000000000000
           H          2.347176828128     1.141856604662    -1.018124461991     1.007825032070
           H          2.347567828128     1.140889604662     0.723865538009     1.007825032070
           C          3.727477828128    -1.208329395338     1.135725538009    12.000000000000
           H          4.453582828128     0.228570604662    -0.289297461991     1.007825032070
           H          3.536097828128    -1.068406395338    -1.001188461991     1.007825032070
           H          3.801405828128    -0.560305395338     2.004410538009     1.007825032070
           H          4.621202828128    -1.823606395338     1.105296538009     1.007825032070
           H          2.877218828128    -1.867259395338     1.286995538009     1.007825032070

  Charge       = 0
  Multiplicity = 1
  Basis Set: 6-31G*
  Basis Set:

    Orbital Energies (a.u.)
    -----------------------

    Doubly Occupied:

       1A    -20.602958     2A    -20.540508     3A    -11.374066
       4A    -11.281427     5A    -11.232406     6A    -11.224120
       7A    -11.223449     8A    -11.221654     9A    -11.212707
      10A     -1.467935    11A     -1.360707    12A     -1.095672
      13A     -1.041382    14A     -1.001504    15A     -0.930659
      16A     -0.853610    17A     -0.793547    18A     -0.771933
      19A     -0.691301    20A     -0.685245    21A     -0.670138
      22A     -0.635483    23A     -0.618654    24A     -0.599094
      25A     -0.576466    26A     -0.571260    27A     -0.546849
      28A     -0.537464    29A     -0.525605    30A     -0.506988
      31A     -0.497429    32A     -0.473028    33A     -0.467464
      34A     -0.465720    35A     -0.451060    36A     -0.435303

  @DF-RHF Final Energy:  -422.97745310998624

   => Energetics <=

    Nuclear Repulsion Energy =            455.0770702885791366
    One-Electron Energy =               -1477.7393466301682565
    Two-Electron Energy =                 599.6848232315978748
    DFT Exchange-Correlation Energy =       0.0000000000000000
    Empirical Dispersion Energy =           0.0000000000000000
    PCM Polarization Energy =               0.0000000000000000
    EFP Energy =                            0.0000000000000000
    Total Energy =                       -422.9774531099913020

  Mulliken Charges: (a.u.)
   Center  Symbol    Alpha    Beta     Spin     Total
       1     O     4.28391  4.28391  0.00000 -0.56783
       2     C     2.61533  2.61533  0.00000  0.76934
       3     C     3.28773  3.28773  0.00000 -0.57546
       4     O     4.31269  4.31269  0.00000 -0.62538
       5     H     0.39749  0.39749  0.00000  0.20501
       6     H     0.39991  0.39991  0.00000  0.20018
       7     H     0.39750  0.39750  0.00000  0.20499
       8     C     2.99491  2.99491  0.00000  0.01018
       9     C     3.16771  3.16771  0.00000 -0.33542
      10     H     0.41071  0.41071  0.00000  0.17858
      11     H     0.41072  0.41072  0.00000  0.17856
      12     C     3.16172  3.16172  0.00000 -0.32343
      13     H     0.41444  0.41444  0.00000  0.17113
      14     H     0.41219  0.41219  0.00000  0.17563
      15     C     3.15275  3.15275  0.00000 -0.30551
      16     H     0.41866  0.41866  0.00000  0.16268
      17     H     0.42094  0.42094  0.00000  0.15812
      18     C     3.24288  3.24288  0.00000 -0.48577
      19     H     0.41844  0.41844  0.00000  0.16312
      20     H     0.42151  0.42151  0.00000  0.15697
      21     H     0.42101  0.42101  0.00000  0.15798
      22     H     0.41748  0.41748  0.00000  0.16504
      23     H     0.41936  0.41936  0.00000  0.16129

   Total alpha = 36.00000, Total beta = 36.00000, Total charge = -0.00000
