  ==> Input File <==

--------------------------------------------------------------------------
set {
	reference rhf
	basis 6-31G*
}

set_num_threads( 4 )
memory 2 gb

molecule MOL {
0 1

H	 -2.931332	 1.041296	 -1.194882
O	 -3.452007	 0.283848	 -0.965577
C	 -3.181085	 -0.079926	 0.364119
C	 -1.765924	 0.277073	 0.805136
H	 -3.327791	 -1.152017	 0.410903
H	 -3.905698	 0.375695	 1.036898
C	 -0.677594	 -0.417312	 -0.014550
H	 -1.637766	 1.358238	 0.744969
H	 -1.659588	 0.017670	 1.857098
C	 0.738335	 -0.034840	 0.421385
H	 -0.814977	 -0.178223	 -1.064632
H	 -0.802730	 -1.495410	 0.071702
C	 1.822265	 -0.738362	 -0.399735
H	 0.853533	 1.043532	 0.342250
H	 0.871597	 -0.279636	 1.474438
C	 3.258060	 -0.455774	 0.057203
H	 1.718003	 -0.459167	 -1.447053
H	 1.651028	 -1.811884	 -0.354513
C	 3.709143	 0.994797	 -0.123830
H	 3.930637	 -1.101717	 -0.501982
H	 3.365259	 -0.739518	 1.102287
H	 3.601178	 1.310569	 -1.158127
H	 4.753787	 1.110486	 0.148516
H	 3.135362	 1.678896	 0.492569

	symmetry c1
}
set optking {
	frozen_dihedral = ("
		1 2 3 5
	")
}

ee = optimize('scf')
oeprop('DIPOLE', 'QUADRUPOLE', 'MULLIKEN_CHARGES')
f=open( 'psi4out.xyz', 'w' )
f.write( "24  " )
f.write( str(ee) + "\n" )
f.write( MOL.save_string_xyz() )
f.close()
--------------------------------------------------------------------------

    Molecular point group: c1
  Charge       = 0
  Multiplicity = 1
  Basis Set: 6-31G*
  Basis Set:
  @DF-RHF Final Energy:  -349.24577750483371
    Total Energy =                       -349.2457775048336543
    Molecular point group: c1
  Basis Set: 6-31G*
  Basis Set:
  Basis Set: 6-31G*
  Basis Set:
  @DF-RHF Final Energy:  -349.24583134368083
    Total Energy =                       -349.2458313436813455
  Basis Set: 6-31G*
  Basis Set:
  Basis Set: 6-31G*
  Basis Set:
  @DF-RHF Final Energy:  -349.24588089805729
    Total Energy =                       -349.2458808980575213
  Basis Set: 6-31G*
  Basis Set:
  Basis Set: 6-31G*
  Basis Set:
  @DF-RHF Final Energy:  -349.24589049474645
    Total Energy =                       -349.2458904947464475
  Basis Set: 6-31G*
  Basis Set:
  Charge       = 0
  Multiplicity = 1
  Basis Set: 6-31G*
  Basis Set:

    Orbital Energies (a.u.)
    -----------------------

    Doubly Occupied:

       1A    -20.550993     2A    -11.266920     3A    -11.222994
       4A    -11.218137     5A    -11.216688     6A    -11.216588
       7A    -11.215039     8A    -11.209638     9A     -1.358109
      10A     -1.092777    11A     -1.051551    12A     -0.988289
      13A     -0.918117    14A     -0.854423    15A     -0.804954
      16A     -0.779869    17A     -0.664025    18A     -0.657740
      19A     -0.635340    20A     -0.624459    21A     -0.603955
      22A     -0.587859    23A     -0.559500    24A     -0.541612
      25A     -0.519027    26A     -0.513999    27A     -0.498857
      28A     -0.476321    29A     -0.471245    30A     -0.463609
      31A     -0.455694    32A     -0.450822    33A     -0.422329

  @DF-RHF Final Energy:  -349.24589067237594

   => Energetics <=

    Nuclear Repulsion Energy =            384.7411352513453267
    One-Electron Energy =               -1235.7510907631667578
    Two-Electron Energy =                 501.7640648394455525
    DFT Exchange-Correlation Energy =       0.0000000000000000
    Empirical Dispersion Energy =           0.0000000000000000
    PCM Polarization Energy =               0.0000000000000000
    EFP Energy =                            0.0000000000000000
    Total Energy =                       -349.2458906723758787
    Molecular point group: c1
  Basis Set: 6-31G*
  Basis Set:

  -Total Gradient:
     Atom            X                  Y                   Z
    ------   -----------------  -----------------  -----------------
       1        0.002044528008    -0.001561693875    -0.000870708140
       2       -0.001991300594     0.001826925466     0.000966358914
       3       -0.002210482291    -0.000045316503     0.000470282107
       4        0.000007370263     0.000131129162    -0.000071735156
       5        0.002171025573    -0.000261446762    -0.000589552826
       6        0.000029533265    -0.000034763084     0.000030927943
       7       -0.000046665461    -0.000022172646     0.000004304415
       8        0.000043091953     0.000009354712     0.000003182704
       9       -0.000021931445    -0.000033250929     0.000012753468
      10       -0.000024889304     0.000008438430     0.000018885322
      11       -0.000007225926    -0.000011152943     0.000020469658
      12       -0.000001274456    -0.000022388863     0.000018679840
      13       -0.000005089560     0.000025578492    -0.000024224927
      14       -0.000015341904    -0.000006367188     0.000010969175
      15        0.000014027902    -0.000015915016     0.000002670542
      16       -0.000007370505     0.000008181626     0.000004162472
      17        0.000000682392     0.000002949867    -0.000005236953
      18        0.000006609959     0.000006529419     0.000000325399
      19        0.000007626374    -0.000000493898    -0.000003318553
      20        0.000001467269    -0.000006632274     0.000002515955
      21       -0.000003947547     0.000006432094     0.000003665977
      22       -0.000002536862     0.000002488711    -0.000001447719
      23        0.000003142399    -0.000001160286    -0.000002076762
      24        0.000008950507    -0.000005253713    -0.000001852856

  **** Optimization is complete! (in 5 steps) ****
    Final optimized geometry and variables:
    Molecular point group: c1

    Geometry (in Angstrom), charge = 0, multiplicity = 1:

    H           -2.972610255884     1.059036894988    -1.192936366750
    O           -3.475175669950     0.292123466712    -0.958047669813
    C           -3.185449939671    -0.079840862889     0.366534584198
    C           -1.767891693927     0.280814827506     0.798139026841
    H           -3.311831527635    -1.155087140084     0.417084526670
    H           -3.903822979053     0.375221811836     1.044274660249
    C           -0.677902215799    -0.419210871769    -0.016706261734
    H           -1.640589927174     1.362340957045     0.734814876643
    H           -1.657903823398     0.027101471814     1.850334184260
    C            0.737199794573    -0.036488314178     0.421608462237
    H           -0.804881189828    -0.188896126786    -1.071228715778
    H           -0.806321429821    -1.496141184363     0.073243519610
    C            1.822805212837    -0.737881023172    -0.399099474637
    H            0.851989598883     1.042063849730     0.345553132915
    H            0.867768984644    -0.283843138255     1.474217788204
    C            3.257457570595    -0.454589885872     0.060878827357
    H            1.720344203288    -0.457067758933    -1.446179804406
    H            1.652264792706    -1.811565445174    -0.355902075180
    C            3.708707927023     0.995874200585    -0.120366060248
    H            3.931032790316    -1.100972245049    -0.496363654153
    H            3.362242683554    -0.737626553616     1.106349499075
    H            3.602882943778     1.310935605732    -1.155091042566
    H            4.752792165625     1.111593964122     0.153830207965
    H            3.133978300817     1.680506530692     0.494554090277

  Mulliken Charges: (a.u.)
   Center  Symbol    Alpha    Beta     Spin     Total
       1     H     0.28179  0.28179  0.00000  0.43642
       2     O     4.37355  4.37355  0.00000 -0.74711
       3     C     2.98110  2.98110  0.00000  0.03780
       4     C     3.18465  3.18465  0.00000 -0.36929
       5     H     0.42011  0.42011  0.00000  0.15978
       6     H     0.42649  0.42649  0.00000  0.14703
       7     C     3.15132  3.15132  0.00000 -0.30263
       8     H     0.42582  0.42582  0.00000  0.14836
       9     H     0.41812  0.41812  0.00000  0.16377
      10     C     3.15348  3.15348  0.00000 -0.30696
      11     H     0.41912  0.41912  0.00000  0.16175
      12     H     0.42062  0.42062  0.00000  0.15875
      13     C     3.15249  3.15249  0.00000 -0.30499
      14     H     0.42261  0.42261  0.00000  0.15477
      15     H     0.42408  0.42408  0.00000  0.15184
      16     C     3.15252  3.15252  0.00000 -0.30505
      17     H     0.42381  0.42381  0.00000  0.15237
      18     H     0.42149  0.42149  0.00000  0.15703
      19     C     3.24124  3.24124  0.00000 -0.48248
      20     H     0.42051  0.42051  0.00000  0.15897
      21     H     0.42334  0.42334  0.00000  0.15332
      22     H     0.42226  0.42226  0.00000  0.15548
      23     H     0.41894  0.41894  0.00000  0.16213
      24     H     0.42054  0.42054  0.00000  0.15892

   Total alpha = 33.00000, Total beta = 33.00000, Total charge = -0.00000
