                              Psi4 1.0.54 Driver

  ==> Input File <==

--------------------------------------------------------------------------
set {
	reference rhf
	basis cc-pvtz
}

set_num_threads( 4 )
memory 2 gb

molecule MOL {
0 1

H	 1.093748	 -1.115947	 -0.726735
O	 1.266760	 -0.223717	 -0.968489
C	 0.706474	 0.636793	 -0.025501
C	 -0.793473	 0.591216	 0.050087
H	 1.019479	 1.637484	 -0.299267
H	 1.114253	 0.444893	 0.965252
C	 -1.534243	 -0.493009	 -0.013340
H	 -1.266611	 1.552628	 0.164437
H	 -1.101195	 -1.466332	 -0.144046
H	 -2.604242	 -0.437780	 0.050785

	symmetry c1
}
set optking {
	frozen_dihedral = ("
		5 3 4 7
	")
}

ee,wfn = optimize('scf', return_wfn=True)
oeprop( wfn, 'DIPOLE', 'QUADRUPOLE', 'MULLIKEN_CHARGES')
f=open( 'psi4out.xyz', 'w' )
f.write( "10  " )
f.write( str(ee) + "\n" )
f.write( MOL.save_string_xyz() )
f.close()
--------------------------------------------------------------------------

    Molecular point group: c1
  Charge       = 0
  Multiplicity = 1
  Basis Set: CC-PVTZ
  Basis Set:
  @DF-RHF Final Energy:  -191.99315748807840
    Total Energy =                       -191.9931574880783955
    Molecular point group: c1
  Basis Set: CC-PVTZ
  Basis Set:
  Basis Set: CC-PVTZ
  Basis Set:
  @DF-RHF Final Energy:  -191.99355201402244
    Total Energy =                       -191.9935520140222422
  Basis Set: CC-PVTZ
  Basis Set:
  Basis Set: CC-PVTZ
  Basis Set:
  @DF-RHF Final Energy:  -191.99361923233801
    Total Energy =                       -191.9936192323380340
  Basis Set: CC-PVTZ
  Basis Set:
  Basis Set: CC-PVTZ
  Basis Set:
  @DF-RHF Final Energy:  -191.99363191394656
    Total Energy =                       -191.9936319139465581
  Basis Set: CC-PVTZ
  Basis Set:
  Basis Set: CC-PVTZ
  Basis Set:
  @DF-RHF Final Energy:  -191.99363627481523
    Total Energy =                       -191.9936362748152305
  Basis Set: CC-PVTZ
  Basis Set:
  Charge       = 0
  Multiplicity = 1
  Basis Set: CC-PVTZ
  Basis Set:

    Orbital Energies (a.u.)
    -----------------------

    Doubly Occupied:

       1A    -20.553888     2A    -11.277966     3A    -11.231061
       4A    -11.220206     5A     -1.373477     6A     -1.063393
       7A     -0.932274     8A     -0.770491     9A     -0.701130
      10A     -0.660795    11A     -0.624210    12A     -0.575100
      13A     -0.530414    14A     -0.507780    15A     -0.446218
      16A     -0.371020

  @DF-RHF Final Energy:  -191.99363709627528

   => Energetics <=

    Nuclear Repulsion Energy =            118.8610315941447624
    One-Electron Energy =                -496.0304896362143268
    Two-Electron Energy =                 185.1758209457941859
    DFT Exchange-Correlation Energy =       0.0000000000000000
    Empirical Dispersion Energy =           0.0000000000000000
    PCM Polarization Energy =               0.0000000000000000
    EFP Energy =                            0.0000000000000000
    Total Energy =                       -191.9936370962753642
    Molecular point group: c1
  Basis Set: CC-PVTZ
  Basis Set:

  -Total Gradient:
     Atom            X                  Y                   Z
    ------   -----------------  -----------------  -----------------
       1       -0.000055888284    -0.000020112529    -0.000036775760
       2        0.000030365868     0.000072545724     0.000109718889
       3       -0.000163689056    -0.001665186327    -0.003265710472
       4       -0.000283895027     0.000784091195    -0.005283480105
       5        0.000202510046     0.001137235806     0.004256376765
       6        0.000029183767     0.000029742557     0.000036451254
       7        0.000283290799    -0.000357416051     0.004183383337
       8       -0.000010731635     0.000032070684     0.000002657839
       9       -0.000011263441    -0.000005643656    -0.000003818843
      10       -0.000019883037    -0.000007327404     0.000001197095

  **** Optimization is complete! (in 6 steps) ****
    Final optimized geometry and variables:
    Molecular point group: c1

    Geometry (in Angstrom), charge = 0, multiplicity = 1:

    H            1.204508983724    -1.229509222858    -0.385262997709
    O            1.294570810648    -0.345638802976    -0.689417348954
    C            0.721750166600     0.542149552488     0.221646625503
    C           -0.785260558022     0.499214889687     0.306014068220
    H            1.038687533331     1.538333769014    -0.054182746766
    H            1.122841904012     0.375651614101     1.220349372396
    C           -1.527552571691    -0.583689667319     0.247846173518
    H           -1.259932226686     1.444100902991     0.509965962826
    H           -1.114046197274    -1.556679490286     0.052042857011
    H           -2.593324082213    -0.535814082891     0.364813766708

  Mulliken Charges: (a.u.)
   Center  Symbol    Alpha    Beta     Spin     Total
       1     H     0.39165  0.39165  0.00000  0.21669
       2     O     4.19697  4.19697  0.00000 -0.39393
       3     C     2.95588  2.95588  0.00000  0.08824
       4     C     3.07177  3.07177  0.00000 -0.14354
       5     H     0.45283  0.45283  0.00000  0.09433
       6     H     0.46939  0.46939  0.00000  0.06123
       7     C     3.17440  3.17440  0.00000 -0.34880
       8     H     0.42091  0.42091  0.00000  0.15818
       9     H     0.43966  0.43966  0.00000  0.12069
      10     H     0.42654  0.42654  0.00000  0.14691

   Total alpha = 16.00000, Total beta = 16.00000, Total charge = -0.00000

*** Psi4 exiting successfully. Buy a developer a beer!
