  ==> Input File <==

--------------------------------------------------------------------------
set {
	reference rhf
	basis cc-pvtz
}

set_num_threads( 4 )
memory 2 gb

molecule MOL {
0 1

H	 -1.140724	 0.465742	 0.677906
N	 -0.712187	 0.000026	 -0.093397
C	 0.734067	 -0.000020	 0.038424
H	 -0.995007	 0.480439	 -0.920840
H	 1.140372	 -0.872115	 -0.458226
H	 1.140363	 0.872301	 -0.457869
H	 1.095085	 -0.000244	 1.065614

	symmetry c1
}
set optking {
	frozen_dihedral = ("
		1 2 3 7
	")
}

ee = optimize('scf')
oeprop('DIPOLE', 'QUADRUPOLE', 'MULLIKEN_CHARGES')
f=open( 'psi4out.xyz', 'w' )
f.write( "7  " )
f.write( str(ee) + "\n" )
f.write( MOL.save_string_xyz() )
f.close()
--------------------------------------------------------------------------

    Molecular point group: c1
  Charge       = 0
  Multiplicity = 1
  Basis Set: CC-PVTZ
  Basis Set:
  @DF-RHF Final Energy:   -95.25052089488369
    Total Energy =                        -95.2505208948837065
    Molecular point group: c1
  Basis Set: CC-PVTZ
  Basis Set:
  Basis Set: CC-PVTZ
  Basis Set:
  @DF-RHF Final Energy:   -95.25189869911844
    Total Energy =                        -95.2518986991184136
  Basis Set: CC-PVTZ
  Basis Set:
  Basis Set: CC-PVTZ
  Basis Set:
  @DF-RHF Final Energy:   -95.25208831184989
    Total Energy =                        -95.2520883118498602
  Basis Set: CC-PVTZ
  Basis Set:
  Basis Set: CC-PVTZ
  Basis Set:
  @DF-RHF Final Energy:   -95.25209465319779
    Total Energy =                        -95.2520946531978581
  Basis Set: CC-PVTZ
  Basis Set:
  Charge       = 0
  Multiplicity = 1
  Basis Set: CC-PVTZ
  Basis Set:

    Orbital Energies (a.u.)
    -----------------------

    Doubly Occupied:

       1A    -15.526250     2A    -11.235470     3A     -1.169843
       4A     -0.897379     5A     -0.667669     6A     -0.601011
       7A     -0.560878     8A     -0.517970     9A     -0.382503

  @DF-RHF Final Energy:   -95.25209538045084

   => Energetics <=

    Nuclear Repulsion Energy =             42.3631882143284386
    One-Electron Energy =                -212.1126228520959671
    Two-Electron Energy =                  74.4973392573166819
    DFT Exchange-Correlation Energy =       0.0000000000000000
    Empirical Dispersion Energy =           0.0000000000000000
    PCM Polarization Energy =               0.0000000000000000
    EFP Energy =                            0.0000000000000000
    Total Energy =                        -95.2520953804508537
    Molecular point group: c1
  Basis Set: CC-PVTZ
  Basis Set:

  -Total Gradient:
     Atom            X                  Y                   Z
    ------   -----------------  -----------------  -----------------
       1       -0.000126797410    -0.002383299839     0.001334739397
       2        0.000036361248     0.003643563618    -0.001682999846
       3        0.000087781266    -0.003772407695     0.000308332324
       4        0.000007529016    -0.000010232655     0.000017628129
       5       -0.000006128614     0.000041418539     0.000001384569
       6       -0.000008937269    -0.000009647223    -0.000001788699
       7        0.000010191764     0.002490605254     0.000022704125

  **** Optimization is complete! (in 5 steps) ****
    Final optimized geometry and variables:
    Molecular point group: c1

    Geometry (in Angstrom), charge = 0, multiplicity = 1:

    H           -1.135706062111     0.429204163498     0.731696976095
    N           -0.716072394483    -0.026940553302    -0.047172927867
    C            0.734492207568    -0.029698498327     0.046334913322
    H           -1.040064174331     0.409022195422    -0.881645532389
    H            1.144815782340    -0.913055177388    -0.427421587601
    H            1.203160527104     0.841648600902    -0.406162053198
    H            1.031681708409    -0.038883366696     1.087267505058

  Mulliken Charges: (a.u.)
   Center  Symbol    Alpha    Beta     Spin     Total
       1     H     0.42623  0.42623  0.00000  0.14755
       2     N     3.69032  3.69032  0.00000 -0.38065
       3     C     3.06866  3.06866  0.00000 -0.13732
       4     H     0.42717  0.42717  0.00000  0.14567
       5     H     0.45867  0.45867  0.00000  0.08265
       6     H     0.47030  0.47030  0.00000  0.05940
       7     H     0.45865  0.45865  0.00000  0.08270

   Total alpha =  9.00000, Total beta =  9.00000, Total charge =  0.00000
