                              Psi4 1.0.54 Driver

  ==> Input File <==

--------------------------------------------------------------------------
set {
	reference rhf
	basis cc-pvtz
}

set_num_threads( 4 )
memory 2 gb

molecule MOL {
0 1

H	 2.342730	 0.877684	 -1.045694
C	 2.360424	 0.000000	 -0.411793
C	 1.173749	 0.000000	 0.526870
H	 3.286567	 0.000000	 0.151574
H	 2.342730	 -0.877684	 -1.045694
O	 0.000000	 0.000000	 -0.223739
H	 1.203779	 0.876757	 1.172538
H	 1.203779	 -0.876757	 1.172538
C	 -1.173749	 0.000000	 0.526870
C	 -2.250054	 -0.737553	 -0.239204
H	 -1.488118	 1.023351	 0.727908
H	 -1.000902	 -0.478974	 1.489782
H	 -2.435746	 -0.256100	 -1.191146
H	 -3.174318	 -0.750109	 0.327101
H	 -1.948015	 -1.760014	 -0.428467

	symmetry c1
}
set optking {
	frozen_dihedral = ("
		11 9 6 3
	")
}

ee,wfn = optimize('scf', return_wfn=True)
oeprop( wfn, 'DIPOLE', 'QUADRUPOLE', 'MULLIKEN_CHARGES')
f=open( 'psi4out.xyz', 'w' )
f.write( "15  " )
f.write( str(ee) + "\n" )
f.write( MOL.save_string_xyz() )
f.close()
--------------------------------------------------------------------------

    Molecular point group: c1
  Charge       = 0
  Multiplicity = 1
  Basis Set: CC-PVTZ
  Basis Set:
  @DF-RHF Final Energy:  -232.23160764832483
    Total Energy =                       -232.2316076483249390
    Molecular point group: c1
  Basis Set: CC-PVTZ
  Basis Set:
  Basis Set: CC-PVTZ
  Basis Set:
  @DF-RHF Final Energy:  -232.23171894332071
    Total Energy =                       -232.2317189433208000
  Basis Set: CC-PVTZ
  Basis Set:
  Basis Set: CC-PVTZ
  Basis Set:
  @DF-RHF Final Energy:  -232.23175046181146
    Total Energy =                       -232.2317504618110888
  Basis Set: CC-PVTZ
  Basis Set:
  Charge       = 0
  Multiplicity = 1
  Basis Set: CC-PVTZ
  Basis Set:

    Orbital Energies (a.u.)
    -----------------------

    Doubly Occupied:

       1A    -20.543945     2A    -11.266645     3A    -11.265967
       4A    -11.207066     5A    -11.206853     6A     -1.379171
       7A     -1.044693     8A     -0.983404     9A     -0.848444
      10A     -0.825181    11A     -0.676820    12A     -0.667540
      13A     -0.618883    14A     -0.588847    15A     -0.549778
      16A     -0.533530    17A     -0.522592    18A     -0.496213
      19A     -0.487167    20A     -0.466065    21A     -0.410705

  @DF-RHF Final Energy:  -232.23175087788195

   => Energetics <=

    Nuclear Repulsion Energy =            191.3062608977824084
    One-Electron Energy =                -693.8970074654444034
    Two-Electron Energy =                 270.3589956897798743
    DFT Exchange-Correlation Energy =       0.0000000000000000
    Empirical Dispersion Energy =           0.0000000000000000
    PCM Polarization Energy =               0.0000000000000000
    EFP Energy =                            0.0000000000000000
    Total Energy =                       -232.2317508778821207
    Molecular point group: c1
  Basis Set: CC-PVTZ
  Basis Set:

  -Total Gradient:
     Atom            X                  Y                   Z
    ------   -----------------  -----------------  -----------------
       1       -0.000008247008    -0.000006973237     0.000010972054
       2        0.000005311067    -0.000010018340    -0.000000127769
       3        0.000004236168    -0.002327498126    -0.000027280710
       4        0.000020064347    -0.000003176021    -0.000000810058
       5        0.000003263701     0.000003780188    -0.000001722150
       6       -0.000423307567     0.003396781063    -0.000580804031
       7       -0.000010623819    -0.000007212988    -0.000004910850
       8       -0.000014005080     0.000004724217    -0.000009715902
       9        0.001983580647    -0.001097017784     0.003055669271
      10       -0.000004262542     0.000029787486     0.000006894382
      11       -0.001538395817     0.000024030194    -0.002456506487
      12       -0.000007723326    -0.000004387935     0.000008672870
      13       -0.000008867897    -0.000008670837    -0.000006679440
      14       -0.000012901758     0.000000394269     0.000000870750
      15        0.000011878888     0.000005457851     0.000005478072

  **** Optimization is complete! (in 4 steps) ****
    Final optimized geometry and variables:
    Molecular point group: c1

    Geometry (in Angstrom), charge = 0, multiplicity = 1:

    H            2.322214209859     1.035960914597    -1.066979963555
    C            2.340095357286     0.143337620861    -0.454257670312
    C            1.163274135860     0.128545720024     0.496515175712
    H            3.272098176079     0.123462097007     0.099334816880
    H            2.309211356635    -0.718805167484    -1.108831470141
    O           -0.017416946301     0.143763887868    -0.244120595518
    H            1.206183762202     0.992640506220     1.158710266826
    H            1.196591430308    -0.760708451567     1.123765168925
    C           -1.198853329240     0.144625960922     0.500147300980
    C           -2.287557759906    -0.550624906561    -0.291772419181
    H           -1.501414245544     1.169625400998     0.705066576137
    H           -1.049851920211    -0.357881872879     1.452406283906
    H           -2.428746365203    -0.061427771333    -1.247591909743
    H           -3.226481057603    -0.522371373396     0.250218369142
    H           -2.025306580743    -1.585239979888    -0.475964030534

  Mulliken Charges: (a.u.)
   Center  Symbol    Alpha    Beta     Spin     Total
       1     H     0.45144  0.45144  0.00000  0.09711
       2     C     3.13631  3.13631  0.00000 -0.27263
       3     C     2.96553  2.96553  0.00000  0.06893
       4     H     0.45909  0.45909  0.00000  0.08182
       5     H     0.45170  0.45170  0.00000  0.09661
       6     O     4.18152  4.18152  0.00000 -0.36305
       7     H     0.47367  0.47367  0.00000  0.05266
       8     H     0.47318  0.47318  0.00000  0.05365
       9     C     2.96964  2.96964  0.00000  0.06072
      10     C     3.13433  3.13433  0.00000 -0.26866
      11     H     0.46598  0.46598  0.00000  0.06803
      12     H     0.47347  0.47347  0.00000  0.05307
      13     H     0.45081  0.45081  0.00000  0.09838
      14     H     0.45936  0.45936  0.00000  0.08129
      15     H     0.45397  0.45397  0.00000  0.09206

   Total alpha = 21.00000, Total beta = 21.00000, Total charge = -0.00000

*** Psi4 exiting successfully. Buy a developer a beer!
