  ==> Input File <==

--------------------------------------------------------------------------
set {
	reference rhf
	basis 6-31G*
}

set_num_threads( 1 )
memory 2 gb

molecule MOL {
0 1

H	 -2.798360	 -0.862255	 -0.071053
N	 -1.863561	 -0.715187	 0.256814
C	 -1.344686	 0.554728	 -0.219830
H	 -1.300452	 -1.461917	 -0.101532
C	 -2.338508	 1.660294	 0.068577
H	 -0.385913	 0.830565	 0.221383
H	 -1.202174	 0.490015	 -1.294206
O	 -2.458434	 1.791206	 1.456225
H	 -1.995554	 2.598224	 -0.367666
H	 -3.301411	 1.410407	 -0.371436
C	 -3.410144	 2.721026	 1.865191
H	 -3.411433	 2.735164	 2.946623
H	 -3.173456	 3.719231	 1.501120
H	 -4.404539	 2.452610	 1.514561

	symmetry c1
}
set optking {
	frozen_dihedral = ("
		8 5 3 6,
		5 8 11 13,
		11 8 5 3
	")
}

ee = energy('scf')
oeprop('DIPOLE', 'QUADRUPOLE', 'MULLIKEN_CHARGES')
f=open( 'psi4out.xyz', 'w' )
f.write( "14  " )
f.write( str(ee) + "\n" )
f.write( MOL.save_string_xyz() )
f.close()
--------------------------------------------------------------------------

    Molecular point group: c1

    Geometry (in Angstrom), charge = 0, multiplicity = 1:

       Center              X                  Y                   Z               Mass
    ------------   -----------------  -----------------  -----------------  -----------------
           H         -0.498014152304    -2.059472284733    -0.756621718884     1.007825032070
           N          0.436784847696    -1.912404284733    -0.428754718884    14.003074004780
           C          0.955659847696    -0.642489284733    -0.905398718884    12.000000000000
           H          0.999893847696    -2.659134284733    -0.787100718884     1.007825032070
           C         -0.038162152304     0.463076715267    -0.616991718884    12.000000000000
           H          1.914432847696    -0.366652284733    -0.464185718884     1.007825032070
           H          1.098171847696    -0.707202284733    -1.979774718884     1.007825032070
           O         -0.158088152304     0.593988715267     0.770656281116    15.994914619560
           H          0.304791847696     1.401006715267    -1.053234718884     1.007825032070
           H         -1.001065152304     0.213189715267    -1.057004718884     1.007825032070
           C         -1.109798152304     1.523808715267     1.179622281116    12.000000000000
           H         -1.111087152304     1.537946715267     2.261054281116     1.007825032070
           H         -0.873110152304     2.522013715267     0.815551281116     1.007825032070
           H         -2.104193152304     1.255392715267     0.828992281116     1.007825032070

  Charge       = 0
  Multiplicity = 1
  Basis Set: 6-31G*
  Basis Set:

    Orbital Energies (a.u.)
    -----------------------

    Doubly Occupied:

       1A    -20.550431     2A    -15.529398     3A    -11.269506
       4A    -11.261975     5A    -11.242833     6A     -1.375183
       7A     -1.176695     8A     -0.998825     9A     -0.903364
      10A     -0.819583    11A     -0.684056    12A     -0.663899
      13A     -0.649527    14A     -0.612023    15A     -0.586596
      16A     -0.567519    17A     -0.523101    18A     -0.499327
      19A     -0.464321    20A     -0.415113    21A     -0.375726

  @DF-RHF Final Energy:  -248.11657179512468

   => Energetics <=

    Nuclear Repulsion Energy =            194.3072101972511518
    One-Electron Energy =                -722.5094406070147670
    Two-Electron Energy =                 280.0856586146389304
    DFT Exchange-Correlation Energy =       0.0000000000000000
    Empirical Dispersion Energy =           0.0000000000000000
    PCM Polarization Energy =               0.0000000000000000
    EFP Energy =                            0.0000000000000000
    Total Energy =                       -248.1165717951246847

  Mulliken Charges: (a.u.)
   Center  Symbol    Alpha    Beta     Spin     Total
       1     H     0.33543  0.33543  0.00000  0.32914
       2     N     3.91245  3.91245  0.00000 -0.82489
       3     C     3.06615  3.06615  0.00000 -0.13230
       4     H     0.33384  0.33384  0.00000  0.33232
       5     C     2.99335  2.99335  0.00000  0.01331
       6     H     0.41097  0.41097  0.00000  0.17806
       7     H     0.43427  0.43427  0.00000  0.13145
       8     O     4.29633  4.29633  0.00000 -0.59265
       9     H     0.42860  0.42860  0.00000  0.14279
      10     H     0.43564  0.43564  0.00000  0.12872
      11     C     3.07837  3.07837  0.00000 -0.15674
      12     H     0.41085  0.41085  0.00000  0.17829
      13     H     0.43236  0.43236  0.00000  0.13529
      14     H     0.43139  0.43139  0.00000  0.13723

   Total alpha = 21.00000, Total beta = 21.00000, Total charge = -0.00000
