  ==> Input File <==

--------------------------------------------------------------------------
set {
	reference rhf
	basis 6-31G*
}

set_num_threads( 4 )
memory 2 gb

molecule MOL {
0 1

H	 1.599720	 -1.441168	 1.492210
C	 1.753642	 -0.434086	 1.086136
C	 0.505924	 0.399805	 0.949152
O	 2.845478	 -0.070678	 0.789560
C	 -0.558097	 -0.297372	 0.091132
H	 0.783427	 1.360504	 0.531383
H	 0.108442	 0.569331	 1.949202
C	 -1.850991	 0.512573	 -0.019058
H	 -0.156727	 -0.474030	 -0.904090
H	 -0.781674	 -1.276023	 0.511983
C	 -3.096943	 -0.368295	 -0.099594
H	 -1.800724	 1.150330	 -0.898172
H	 -1.931651	 1.177355	 0.838044
H	 -3.060452	 -1.020287	 -0.967456
H	 -3.996858	 0.233488	 -0.175704
H	 -3.191959	 -0.995686	 0.782074

	symmetry c1
}
set optking {
	frozen_dihedral = ("
		9 5 8 12
	")
}

ee = optimize('scf')
oeprop('DIPOLE', 'QUADRUPOLE', 'MULLIKEN_CHARGES')
f=open( 'psi4out.xyz', 'w' )
f.write( "16  " )
f.write( str(ee) + "\n" )
f.write( MOL.save_string_xyz() )
f.close()
--------------------------------------------------------------------------

    Molecular point group: c1
  Charge       = 0
  Multiplicity = 1
  Basis Set: 6-31G*
  Basis Set:
  @DF-RHF Final Energy:  -270.01627643911229
    Total Energy =                       -270.0162764391121186
    Molecular point group: c1
  Basis Set: 6-31G*
  Basis Set:
  Basis Set: 6-31G*
  Basis Set:
  @DF-RHF Final Energy:  -270.01647808497495
    Total Energy =                       -270.0164780849748922
  Basis Set: 6-31G*
  Basis Set:
  Basis Set: 6-31G*
  Basis Set:
  @DF-RHF Final Energy:  -270.01638541016746
    Total Energy =                       -270.0163854101672882
  Basis Set: 6-31G*
  Basis Set:
  Basis Set: 6-31G*
  Basis Set:
  @DF-RHF Final Energy:  -270.01662882957942
    Total Energy =                       -270.0166288295794175
  Basis Set: 6-31G*
  Basis Set:
  Basis Set: 6-31G*
  Basis Set:
  @DF-RHF Final Energy:  -270.01663451467971
    Total Energy =                       -270.0166345146798790
  Basis Set: 6-31G*
  Basis Set:
  Basis Set: 6-31G*
  Basis Set:
  @DF-RHF Final Energy:  -270.01663560871054
    Total Energy =                       -270.0166356087103736
  Basis Set: 6-31G*
  Basis Set:
  Charge       = 0
  Multiplicity = 1
  Basis Set: 6-31G*
  Basis Set:

    Orbital Energies (a.u.)
    -----------------------

    Doubly Occupied:

       1A    -20.562368     2A    -11.326198     3A    -11.236674
       4A    -11.235057     5A    -11.229274     6A    -11.218679
       7A     -1.402053     8A     -1.095088     9A     -1.018514
      10A     -0.905377    11A     -0.812124    12A     -0.793304
      13A     -0.679735    14A     -0.641439    15A     -0.630760
      16A     -0.609138    17A     -0.579219    18A     -0.547571
      19A     -0.532554    20A     -0.506682    21A     -0.487628
      22A     -0.481824    23A     -0.476234    24A     -0.408487

  @DF-RHF Final Energy:  -270.01663628204278

   => Energetics <=

    Nuclear Repulsion Energy =            228.8130090440731976
    One-Electron Energy =                -818.8273319102883079
    Two-Electron Energy =                 319.9976865841725271
    DFT Exchange-Correlation Energy =       0.0000000000000000
    Empirical Dispersion Energy =           0.0000000000000000
    PCM Polarization Energy =               0.0000000000000000
    EFP Energy =                            0.0000000000000000
    Total Energy =                       -270.0166362820426116
    Molecular point group: c1
  Basis Set: 6-31G*
  Basis Set:

  -Total Gradient:
     Atom            X                  Y                   Z
    ------   -----------------  -----------------  -----------------
       1        0.000002611256    -0.000003993627    -0.000008013329
       2        0.000011076499     0.000008912372     0.000006082764
       3       -0.000031552633    -0.000026542654    -0.000021627858
       4        0.000002891403     0.000002979608     0.000017368229
       5       -0.003393589948    -0.005308554891    -0.000904003584
       6       -0.000000330583     0.000001423287     0.000004249577
       7        0.000020658946     0.000010294833     0.000013919720
       8        0.002851794112     0.004809541877     0.003061468738
       9        0.002371963378     0.003739148445     0.000275958355
      10       -0.000024348308     0.000009949914    -0.000008741311
      11       -0.000002884778    -0.000019907317     0.000015914826
      12       -0.001831002335    -0.003215455885    -0.002455142116
      13        0.000025197376    -0.000011622681     0.000000631078
      14        0.000003176336     0.000002821977    -0.000000189352
      15       -0.000001797451     0.000001425082     0.000003599788
      16       -0.000003863272    -0.000000420339    -0.000001475528

  **** Optimization is complete! (in 7 steps) ****
    Final optimized geometry and variables:
    Molecular point group: c1

    Geometry (in Angstrom), charge = 0, multiplicity = 1:

    H            1.714661329532    -1.383938390268     1.025151918534
    C            1.842876909883    -0.379202636067     0.604590226908
    C            0.582185468057     0.439700331682     0.504474135725
    O            2.919006901911    -0.008991936215     0.262100235358
    C           -0.500429028503    -0.273103716552    -0.321023798736
    H            0.834647381681     1.402332765612     0.074875513813
    H            0.212869263529     0.608008758803     1.515248473967
    C           -1.788637142027     0.558437914543    -0.443827939362
    H           -0.094414709647    -0.457646841235    -1.311910346882
    H           -0.718081773326    -1.239173874873     0.127372536890
    C           -3.039998611139    -0.311149432618    -0.581877639970
    H           -1.721111498069     1.191510997781    -1.323767222826
    H           -1.898007101261     1.211768209949     0.417032112255
    H           -2.962966011566    -0.973696432995    -1.439386472053
    H           -3.928136955708     0.298574999321    -0.714270949725
    H           -3.188758611378    -0.927989760381     0.299770122332

  Mulliken Charges: (a.u.)
   Center  Symbol    Alpha    Beta     Spin     Total
       1     H     0.43227  0.43227  0.00000  0.13545
       2     C     2.83040  2.83040  0.00000  0.33919
       3     C     3.20940  3.20940  0.00000 -0.41879
       4     O     4.23707  4.23707  0.00000 -0.47414
       5     C     3.16595  3.16595  0.00000 -0.33190
       6     H     0.39927  0.39927  0.00000  0.20147
       7     H     0.41005  0.41005  0.00000  0.17989
       8     C     3.15293  3.15293  0.00000 -0.30585
       9     H     0.41109  0.41109  0.00000  0.17783
      10     H     0.41766  0.41766  0.00000  0.16468
      11     C     3.24118  3.24118  0.00000 -0.48236
      12     H     0.41609  0.41609  0.00000  0.16782
      13     H     0.41876  0.41876  0.00000  0.16247
      14     H     0.41960  0.41960  0.00000  0.16080
      15     H     0.41721  0.41721  0.00000  0.16559
      16     H     0.42108  0.42108  0.00000  0.15784

   Total alpha = 24.00000, Total beta = 24.00000, Total charge = -0.00000
