  ==> Input File <==

--------------------------------------------------------------------------
set {
	reference rhf
	basis cc-pvtz
}

set_num_threads( 4 )
memory 2 gb

molecule MOL {
0 1

H	 2.646708	 0.758099	 0.000000
O	 2.258158	 -0.097743	 0.000000
C	 0.911162	 -0.015915	 0.000000
C	 0.224001	 -0.765133	 0.940896
C	 0.217660	 0.777841	 -0.894106
H	 0.778417	 -1.375139	 1.626472
C	 -1.152572	 -0.713071	 0.978443
H	 0.750806	 1.359338	 -1.624359
C	 -1.164448	 0.820342	 -0.844787
H	 -1.679814	 -1.295819	 1.709758
C	 -1.858646	 0.078530	 0.087809
H	 -1.695239	 1.439428	 -1.542870
H	 -2.929812	 0.113893	 0.123150

	symmetry c1
}
set optking {
	frozen_dihedral = ("
		4 3 2 1
	")
}

ee = optimize('scf')
oeprop('DIPOLE', 'QUADRUPOLE', 'MULLIKEN_CHARGES')
f=open( 'psi4out.xyz', 'w' )
f.write( "13  " )
f.write( str(ee) + "\n" )
f.write( MOL.save_string_xyz() )
f.close()
--------------------------------------------------------------------------

    Molecular point group: c1
  Charge       = 0
  Multiplicity = 1
  Basis Set: CC-PVTZ
  Basis Set:
  @DF-RHF Final Energy:  -305.66762867477291
    Total Energy =                       -305.6676286747728000
    Molecular point group: c1
  Basis Set: CC-PVTZ
  Basis Set:
  Basis Set: CC-PVTZ
  Basis Set:
  @DF-RHF Final Energy:  -305.66783159923449
    Total Energy =                       -305.6678315992344324
  Basis Set: CC-PVTZ
  Basis Set:
  Basis Set: CC-PVTZ
  Basis Set:
  @DF-RHF Final Energy:  -305.66785833629814
    Total Energy =                       -305.6678583362979111
  Basis Set: CC-PVTZ
  Basis Set:
  Charge       = 0
  Multiplicity = 1
  Basis Set: CC-PVTZ
  Basis Set:

    Orbital Energies (a.u.)
    -----------------------

    Doubly Occupied:

       1A    -20.576341     2A    -11.292303     3A    -11.234437
       4A    -11.233190     5A    -11.226322     6A    -11.223313
       7A    -11.222831     8A     -1.404701     9A     -1.153134
      10A     -1.022569    11A     -1.008385    12A     -0.844419
      13A     -0.827550    14A     -0.739714    15A     -0.686107
      16A     -0.652601    17A     -0.626283    18A     -0.598406
      19A     -0.591959    20A     -0.538850    21A     -0.517404
      22A     -0.496878    23A     -0.477744    24A     -0.342441
      25A     -0.323229

  @DF-RHF Final Energy:  -305.66786123976328

   => Energetics <=

    Nuclear Repulsion Energy =            273.5240092079975511
    One-Electron Energy =                -956.6615166258138743
    Two-Electron Energy =                 377.4696461780530399
    DFT Exchange-Correlation Energy =       0.0000000000000000
    Empirical Dispersion Energy =           0.0000000000000000
    PCM Polarization Energy =               0.0000000000000000
    EFP Energy =                            0.0000000000000000
    Total Energy =                       -305.6678612397632833
    Molecular point group: c1
  Basis Set: CC-PVTZ
  Basis Set:

  -Total Gradient:
     Atom            X                  Y                   Z
    ------   -----------------  -----------------  -----------------
       1       -0.000065471977    -0.000011136298     0.002511670265
       2        0.000195624773     0.000559042121    -0.002528214696
       3       -0.000405737520    -0.001789697902    -0.001198826067
       4       -0.000050257349     0.001382237012     0.001199799847
       5        0.000233587602    -0.000181029643     0.000032993677
       6        0.000043370049    -0.000019038346     0.000039095879
       7        0.000274893212    -0.000205738734     0.000061742911
       8       -0.000005486248     0.000009030785     0.000004210792
       9       -0.000326847238    -0.000049448408     0.000116030637
      10        0.000025102629     0.000031376051    -0.000018020008
      11        0.000082040824     0.000284256315    -0.000225533102
      12        0.000019642220     0.000006314720     0.000006308054
      13       -0.000020460972    -0.000016167673    -0.000001258189

  **** Optimization is complete! (in 4 steps) ****
    Final optimized geometry and variables:
    Molecular point group: c1

    Geometry (in Angstrom), charge = 0, multiplicity = 1:

    H            2.648282212895     0.744488854108    -0.054615092005
    O            2.264788337563    -0.114140772521    -0.053803275808
    C            0.906562148679    -0.032412645420    -0.028417706509
    C            0.220174529474    -0.779350526957     0.909850613855
    C            0.216808614983     0.761588061509    -0.925419679498
    H            0.774172070857    -1.385891882611     1.599090165483
    C           -1.159793849592    -0.737703658052     0.939166621408
    H            0.758386956331     1.329409498561    -1.658591195753
    C           -1.163984697552     0.807819662548    -0.878383195416
    H           -1.689866869072    -1.322654063395     1.666468745807
    C           -1.859200505916     0.057974664118     0.050134139824
    H           -1.695227609606     1.427231803785    -1.575731023299
    H           -2.930929856835     0.091185481503     0.080341937076

  Mulliken Charges: (a.u.)
   Center  Symbol    Alpha    Beta     Spin     Total
       1     H     0.38566  0.38566  0.00000  0.22868
       2     O     4.18670  4.18670  0.00000 -0.37341
       3     C     2.86645  2.86645  0.00000  0.26710
       4     C     3.10837  3.10837  0.00000 -0.21674
       5     C     3.12222  3.12222  0.00000 -0.24444
       6     H     0.41684  0.41684  0.00000  0.16633
       7     C     3.06341  3.06341  0.00000 -0.12681
       8     H     0.42403  0.42403  0.00000  0.15195
       9     C     3.06768  3.06768  0.00000 -0.13537
      10     H     0.42192  0.42192  0.00000  0.15617
      11     C     3.09123  3.09123  0.00000 -0.18245
      12     H     0.42208  0.42208  0.00000  0.15585
      13     H     0.42342  0.42342  0.00000  0.15316

   Total alpha = 25.00000, Total beta = 25.00000, Total charge =  0.00000
