                              Psi4 1.0.54 Driver

  ==> Input File <==

--------------------------------------------------------------------------
set {
	reference rhf
	basis cc-pvtz
}

set_num_threads( 4 )
memory 2 gb

molecule MOL {
0 1

H	 -3.162190	 0.493205	 -0.000107
C	 -2.363908	 -0.234727	 0.000005
O	 -1.158738	 0.454634	 -0.000087
H	 -2.464314	 -0.863616	 -0.882153
H	 -2.464327	 -0.863359	 0.882345
C	 -0.028611	 -0.359694	 0.000037
C	 1.212847	 0.509314	 -0.000053
H	 -0.034155	 -1.007047	 -0.877198
H	 -0.034195	 -1.006836	 0.877430
C	 1.455617	 1.177788	 -1.348592
H	 1.109123	 1.259919	 0.775678
H	 2.064424	 -0.104916	 0.271037
H	 0.624889	 1.817161	 -1.628199
H	 2.347401	 1.791747	 -1.320396
H	 1.586871	 0.443217	 -2.136149

	symmetry c1
}
set optking {
	frozen_dihedral = ("
		11 7 6 8
	")
}

ee,wfn = optimize('scf', return_wfn=True)
oeprop( wfn, 'DIPOLE', 'QUADRUPOLE', 'MULLIKEN_CHARGES')
f=open( 'psi4out.xyz', 'w' )
f.write( "15  " )
f.write( str(ee) + "\n" )
f.write( MOL.save_string_xyz() )
f.close()
--------------------------------------------------------------------------

    Molecular point group: c1
  Charge       = 0
  Multiplicity = 1
  Basis Set: CC-PVTZ
  Basis Set:
  @DF-RHF Final Energy:  -232.22765608310556
    Total Energy =                       -232.2276560831054439
    Molecular point group: c1
  Basis Set: CC-PVTZ
  Basis Set:
  Basis Set: CC-PVTZ
  Basis Set:
  @DF-RHF Final Energy:  -232.22779191944610
    Total Energy =                       -232.2277919194459628
  Basis Set: CC-PVTZ
  Basis Set:
  Basis Set: CC-PVTZ
  Basis Set:
  @DF-RHF Final Energy:  -232.22782382017124
    Total Energy =                       -232.2278238201712384
  Basis Set: CC-PVTZ
  Basis Set:
  Charge       = 0
  Multiplicity = 1
  Basis Set: CC-PVTZ
  Basis Set:

    Orbital Energies (a.u.)
    -----------------------

    Doubly Occupied:

       1A    -20.547794     2A    -11.264783     3A    -11.262094
       4A    -11.213412     5A    -11.202963     6A     -1.381812
       7A     -1.055452     8A     -0.951841     9A     -0.885048
      10A     -0.801425    11A     -0.671273    12A     -0.664041
      13A     -0.634042    14A     -0.589819    15A     -0.571587
      16A     -0.546607    17A     -0.498707    18A     -0.484114
      19A     -0.481471    20A     -0.461023    21A     -0.416107

  @DF-RHF Final Energy:  -232.22782442466948

   => Energetics <=

    Nuclear Repulsion Energy =            192.7562930915738946
    One-Electron Energy =                -696.7974041915814496
    Two-Electron Energy =                 271.8132866753383610
    DFT Exchange-Correlation Energy =       0.0000000000000000
    Empirical Dispersion Energy =           0.0000000000000000
    PCM Polarization Energy =               0.0000000000000000
    EFP Energy =                            0.0000000000000000
    Total Energy =                       -232.2278244246692225
    Molecular point group: c1
  Basis Set: CC-PVTZ
  Basis Set:

  -Total Gradient:
     Atom            X                  Y                   Z
    ------   -----------------  -----------------  -----------------
       1       -0.000000663789    -0.000007609808     0.000001602971
       2       -0.000071913755    -0.000004720811    -0.000018850833
       3        0.000083092819    -0.000064548988    -0.000037483516
       4       -0.000002196895     0.000002911663     0.000009370419
       5        0.000009979992     0.000006775629    -0.000005294195
       6        0.001032428254    -0.001477160646     0.001152259282
       7        0.000970032287    -0.001217526382     0.001432502298
       8       -0.001078694210     0.001505299526    -0.001113596781
       9        0.000041089142    -0.000020741479    -0.000010827084
      10       -0.000031650481     0.000002092663    -0.000016487587
      11       -0.000962831236     0.001288256346    -0.001390860488
      12        0.000002024646    -0.000007922087     0.000004717028
      13        0.000013289821     0.000003928781    -0.000000388553
      14       -0.000013364560    -0.000016055501     0.000003349992
      15        0.000009377965     0.000007021094    -0.000010012954

  **** Optimization is complete! (in 4 steps) ****
    Final optimized geometry and variables:
    Molecular point group: c1

    Geometry (in Angstrom), charge = 0, multiplicity = 1:

    H           -2.948230681818     0.198193365428     0.258406107039
    C           -2.152031718032    -0.532206162712     0.259897848544
    O           -0.944617906387     0.152232414028     0.280161934374
    H           -2.245045395592    -1.152329249262    -0.629272340758
    H           -2.264343188747    -1.169317484756     1.134870285482
    C            0.184816084596    -0.667495225715     0.292825576185
    C            1.429645153059     0.200082874532     0.265569770033
    H            0.164110622650    -1.324030807719    -0.577311997602
    H            0.177815697907    -1.293606941054     1.183517286433
    C            1.657909064794     0.883370037934    -1.079406966108
    H            1.329481683496     0.954858528907     1.037892172912
    H            2.287121032143    -0.415460995246     0.518576968532
    H            0.810135455952     1.501201995328    -1.346365423676
    H            2.537897200284     1.515377168914    -1.048482872857
    H            1.803149648025     0.153226224498    -1.869166450148

  Mulliken Charges: (a.u.)
   Center  Symbol    Alpha    Beta     Spin     Total
       1     H     0.44723  0.44723  0.00000  0.10554
       2     C     3.03245  3.03245  0.00000 -0.06490
       3     O     4.17569  4.17569  0.00000 -0.35137
       4     H     0.47207  0.47207  0.00000  0.05587
       5     H     0.47156  0.47156  0.00000  0.05687
       6     C     2.96923  2.96923  0.00000  0.06154
       7     C     3.07947  3.07947  0.00000 -0.15895
       8     H     0.47471  0.47471  0.00000  0.05059
       9     H     0.46506  0.46506  0.00000  0.06987
      10     C     3.15066  3.15066  0.00000 -0.30133
      11     H     0.45213  0.45213  0.00000  0.09573
      12     H     0.45471  0.45471  0.00000  0.09057
      13     H     0.44648  0.44648  0.00000  0.10705
      14     H     0.45017  0.45017  0.00000  0.09966
      15     H     0.45837  0.45837  0.00000  0.08326

   Total alpha = 21.00000, Total beta = 21.00000, Total charge = -0.00000

*** Psi4 exiting successfully. Buy a developer a beer!
