  ==> Input File <==

--------------------------------------------------------------------------
set {
	reference rhf
	basis 6-31G*
}

set_num_threads( 1 )
memory 2 gb

molecule MOL {
0 1

H	 -3.420663	 1.227371	 -1.044276
O	 -3.452007	 0.283848	 -0.965577
C	 -3.181085	 -0.079926	 0.364119
C	 -1.765924	 0.277073	 0.805136
H	 -3.327791	 -1.152017	 0.410903
H	 -3.905698	 0.375695	 1.036898
C	 -0.677594	 -0.417312	 -0.014550
H	 -1.637766	 1.358238	 0.744969
H	 -1.659588	 0.017670	 1.857098
C	 0.738335	 -0.034840	 0.421385
H	 -0.814977	 -0.178223	 -1.064632
H	 -0.802730	 -1.495410	 0.071702
C	 1.822265	 -0.738362	 -0.399735
H	 0.853533	 1.043532	 0.342250
H	 0.871597	 -0.279636	 1.474438
C	 3.059259	 0.117271	 -0.696201
H	 1.393542	 -1.085852	 -1.338427
H	 2.140361	 -1.630379	 0.135929
C	 2.797788	 1.319660	 -1.605212
H	 3.811117	 -0.514678	 -1.162720
H	 3.492047	 0.460711	 0.241320
H	 2.352863	 1.007560	 -2.546367
H	 3.723776	 1.838098	 -1.834568
H	 2.128395	 2.039053	 -1.145267

	symmetry c1
}
set optking {
	frozen_dihedral = ("
		20 16 13 17,
		13 10 7 11,
		11 7 4 3,
		1 2 3 5,
		7 4 3 2
	")
}

ee = energy('scf')
oeprop('DIPOLE', 'QUADRUPOLE', 'MULLIKEN_CHARGES')
f=open( 'psi4out.xyz', 'w' )
f.write( "24  " )
f.write( str(ee) + "\n" )
f.write( MOL.save_string_xyz() )
f.close()
--------------------------------------------------------------------------

    Molecular point group: c1

    Geometry (in Angstrom), charge = 0, multiplicity = 1:

       Center              X                  Y                   Z               Mass
    ------------   -----------------  -----------------  -----------------  -----------------
           H         -3.278918939940     1.116121119494    -0.761847196623     1.007825032070
           O         -3.310262939940     0.172598119494    -0.683148196623    15.994914619560
           C         -3.039340939940    -0.191175880506     0.646547803377    12.000000000000
           C         -1.624179939940     0.165823119494     1.087564803377    12.000000000000
           H         -3.186046939940    -1.263266880506     0.693331803377     1.007825032070
           H         -3.763953939940     0.264445119494     1.319326803377     1.007825032070
           C         -0.535849939940    -0.528561880506     0.267878803377    12.000000000000
           H         -1.496021939940     1.246988119494     1.027397803377     1.007825032070
           H         -1.517843939940    -0.093579880506     2.139526803377     1.007825032070
           C          0.880079060060    -0.146089880506     0.703813803377    12.000000000000
           H         -0.673232939940    -0.289472880506    -0.782203196623     1.007825032070
           H         -0.660985939940    -1.606659880506     0.354130803377     1.007825032070
           C          1.964009060060    -0.849611880506    -0.117306196623    12.000000000000
           H          0.995277060060     0.932282119494     0.624678803377     1.007825032070
           H          1.013341060060    -0.390885880506     1.756866803377     1.007825032070
           C          3.201003060060     0.006021119494    -0.413772196623    12.000000000000
           H          1.535286060060    -1.197101880506    -1.055998196623     1.007825032070
           H          2.282105060060    -1.741628880506     0.418357803377     1.007825032070
           C          2.939532060060     1.208410119494    -1.322783196623    12.000000000000
           H          3.952861060060    -0.625927880506    -0.880291196623     1.007825032070
           H          3.633791060060     0.349461119494     0.523748803377     1.007825032070
           H          2.494607060060     0.896310119494    -2.263938196623     1.007825032070
           H          3.865520060060     1.726848119494    -1.552139196623     1.007825032070
           H          2.270139060060     1.927803119494    -0.862838196623     1.007825032070

  Charge       = 0
  Multiplicity = 1
  Basis Set: 6-31G*
  Basis Set:

    Orbital Energies (a.u.)
    -----------------------

    Doubly Occupied:

       1A    -20.553425     2A    -11.267500     3A    -11.216962
       4A    -11.214239     5A    -11.211467     6A    -11.210942
       7A    -11.210396     8A    -11.207578     9A     -1.360021
      10A     -1.088653    11A     -1.047937    12A     -0.985262
      13A     -0.915508    14A     -0.850183    15A     -0.800638
      16A     -0.776250    17A     -0.678910    18A     -0.653909
      19A     -0.624423    20A     -0.619576    21A     -0.599646
      22A     -0.576157    23A     -0.568033    24A     -0.535178
      25A     -0.516810    26A     -0.510957    27A     -0.496033
      28A     -0.475205    29A     -0.466974    30A     -0.458342
      31A     -0.454145    32A     -0.449599    33A     -0.418147

  @DF-RHF Final Energy:  -349.24353854394769

   => Energetics <=

    Nuclear Repulsion Energy =            387.4627615715195361
    One-Electron Energy =               -1241.3747596445305135
    Two-Electron Energy =                 504.6684595290616357
    DFT Exchange-Correlation Energy =       0.0000000000000000
    Empirical Dispersion Energy =           0.0000000000000000
    PCM Polarization Energy =               0.0000000000000000
    EFP Energy =                            0.0000000000000000
    Total Energy =                       -349.2435385439493416

  Mulliken Charges: (a.u.)
   Center  Symbol    Alpha    Beta     Spin     Total
       1     H     0.28339  0.28339  0.00000  0.43322
       2     O     4.36833  4.36833  0.00000 -0.73666
       3     C     2.99612  2.99612  0.00000  0.00776
       4     C     3.16927  3.16927  0.00000 -0.33854
       5     H     0.41639  0.41639  0.00000  0.16723
       6     H     0.42828  0.42828  0.00000  0.14345
       7     C     3.15389  3.15389  0.00000 -0.30779
       8     H     0.42840  0.42840  0.00000  0.14319
       9     H     0.42243  0.42243  0.00000  0.15513
      10     C     3.15459  3.15459  0.00000 -0.30917
      11     H     0.41174  0.41174  0.00000  0.17653
      12     H     0.42320  0.42320  0.00000  0.15359
      13     C     3.15470  3.15470  0.00000 -0.30940
      14     H     0.42265  0.42265  0.00000  0.15471
      15     H     0.42295  0.42295  0.00000  0.15410
      16     C     3.15347  3.15347  0.00000 -0.30694
      17     H     0.42125  0.42125  0.00000  0.15749
      18     H     0.42082  0.42082  0.00000  0.15837
      19     C     3.24060  3.24060  0.00000 -0.48120
      20     H     0.42146  0.42146  0.00000  0.15709
      21     H     0.42383  0.42383  0.00000  0.15234
      22     H     0.42156  0.42156  0.00000  0.15688
      23     H     0.41922  0.41922  0.00000  0.16156
      24     H     0.42146  0.42146  0.00000  0.15708

   Total alpha = 33.00000, Total beta = 33.00000, Total charge = -0.00000
