                              Psi4 1.0.54 Driver

  ==> Input File <==

--------------------------------------------------------------------------
set {
	reference rhf
	basis cc-pvtz
}

set_num_threads( 4 )
memory 2 gb

molecule MOL {
0 1

O	 1.847685	 1.294399	 -0.000190
C	 1.704209	 0.119472	 -0.000093
C	 0.380337	 -0.600947	 -0.000234
O	 2.715427	 -0.733672	 0.000025
C	 -0.824290	 0.329213	 -0.000115
H	 0.371455	 -1.255476	 -0.865660
H	 0.371410	 -1.255787	 0.864952
C	 -1.798398	 0.017396	 1.132096
H	 -1.333064	 0.255057	 -0.954538
H	 -0.483417	 1.355252	 0.079504
C	 -3.013258	 0.940599	 1.148874
H	 -2.134483	 -1.013721	 1.047870
H	 -1.281085	 0.090407	 2.086190
C	 -3.987102	 0.628690	 2.280135
H	 -3.531255	 0.867761	 0.196755
H	 -2.678832	 1.970632	 1.234612
H	 -4.366380	 -0.384875	 2.202232
H	 -4.836834	 1.301294	 2.262971
H	 -3.507333	 0.727100	 3.248314
C	 4.020999	 -0.192556	 0.000019
H	 4.182809	 0.412891	 -0.879449
H	 4.692590	 -1.035653	 0.000152
H	 4.182726	 0.413087	 0.879368

	symmetry c1
}
set optking {
	frozen_dihedral = ("
		9 5 3 6
	")
}

ee,wfn = optimize('scf', return_wfn=True)
oeprop( wfn, 'DIPOLE', 'QUADRUPOLE', 'MULLIKEN_CHARGES')
f=open( 'psi4out.xyz', 'w' )
f.write( "23  " )
f.write( str(ee) + "\n" )
f.write( MOL.save_string_xyz() )
f.close()
--------------------------------------------------------------------------

    Molecular point group: c1
  Charge       = 0
  Multiplicity = 1
  Basis Set: CC-PVTZ
  Basis Set:
  @DF-RHF Final Energy:  -423.12630177419419
    Total Energy =                       -423.1263017741943031
    Molecular point group: c1
  Basis Set: CC-PVTZ
  Basis Set:
  Basis Set: CC-PVTZ
  Basis Set:
  @DF-RHF Final Energy:  -423.12659055216272
    Total Energy =                       -423.1265905521630657
  Basis Set: CC-PVTZ
  Basis Set:
  Basis Set: CC-PVTZ
  Basis Set:
  @DF-RHF Final Energy:  -423.12652113681969
    Total Energy =                       -423.1265211368197470
  Basis Set: CC-PVTZ
  Basis Set:
  Basis Set: CC-PVTZ
  Basis Set:
  @DF-RHF Final Energy:  -423.12668288341257
    Total Energy =                       -423.1266828834131957
  Basis Set: CC-PVTZ
  Basis Set:
  Basis Set: CC-PVTZ
  Basis Set:
  @DF-RHF Final Energy:  -423.12668524308276
    Total Energy =                       -423.1266852430828749
  Basis Set: CC-PVTZ
  Basis Set:
  Basis Set: CC-PVTZ
  Basis Set:
  @DF-RHF Final Energy:  -423.12668685997551
    Total Energy =                       -423.1266868599755071
  Basis Set: CC-PVTZ
  Basis Set:
  Basis Set: CC-PVTZ
  Basis Set:
  @DF-RHF Final Energy:  -423.12668777985050
    Total Energy =                       -423.1266877798506130
  Basis Set: CC-PVTZ
  Basis Set:
  Charge       = 0
  Multiplicity = 1
  Basis Set: CC-PVTZ
  Basis Set:

    Orbital Energies (a.u.)
    -----------------------

    Doubly Occupied:

       1A    -20.596519     2A    -20.534977     3A    -11.365435
       4A    -11.278676     5A    -11.233794     6A    -11.215535
       7A    -11.214722     8A    -11.213342     9A    -11.206895
      10A     -1.472806    11A     -1.366329    12A     -1.092070
      13A     -1.043651    14A     -0.987598    15A     -0.932100
      16A     -0.844527    17A     -0.795260    18A     -0.768976
      19A     -0.702658    20A     -0.684581    21A     -0.676130
      22A     -0.646116    23A     -0.611801    24A     -0.601016
      25A     -0.571760    26A     -0.559038    27A     -0.556702
      28A     -0.529651    29A     -0.524820    30A     -0.501370
      31A     -0.486735    32A     -0.468046    33A     -0.463848
      34A     -0.461775    35A     -0.457118    36A     -0.440846

  @DF-RHF Final Energy:  -423.12668828263753

   => Energetics <=

    Nuclear Repulsion Energy =            454.5921764726904826
    One-Electron Energy =               -1477.2232806795179840
    Two-Electron Energy =                 599.5044159241899706
    DFT Exchange-Correlation Energy =       0.0000000000000000
    Empirical Dispersion Energy =           0.0000000000000000
    PCM Polarization Energy =               0.0000000000000000
    EFP Energy =                            0.0000000000000000
    Total Energy =                       -423.1266882826375877
    Molecular point group: c1
  Basis Set: CC-PVTZ
  Basis Set:

  -Total Gradient:
     Atom            X                  Y                   Z
    ------   -----------------  -----------------  -----------------
       1        0.000030928281    -0.000018560096    -0.000000235792
       2       -0.000063144446     0.000092253547    -0.000005122105
       3       -0.000916570142    -0.001199242512     0.000835179135
       4        0.000061728803    -0.000046077422    -0.000003755702
       5        0.000949420477     0.001221333471    -0.000678346446
       6        0.000577174251     0.000767685768    -0.000582600399
       7       -0.000004285658     0.000015017695    -0.000001926359
       8       -0.000006570547    -0.000009656414     0.000034767681
       9       -0.000618486699    -0.000810723288     0.000393414333
      10       -0.000006878010    -0.000013127956     0.000005847314
      11       -0.000001398822     0.000005216491     0.000001167200
      12        0.000004546423    -0.000000026835     0.000002028090
      13       -0.000008162163     0.000003000304     0.000006340434
      14       -0.000001013033    -0.000008113702    -0.000007312103
      15       -0.000001309834     0.000000949113     0.000000307847
      16        0.000004622617    -0.000001166087     0.000002541337
      17       -0.000000928495    -0.000002034994     0.000002959348
      18        0.000004544965    -0.000000878464    -0.000005604507
      19        0.000001156948     0.000001919746    -0.000002061383
      20       -0.000031614949    -0.000014757890     0.000002721219
      21        0.000005542904     0.000009286652    -0.000006786647
      22        0.000013000993    -0.000000964177    -0.000000257710
      23        0.000007696139     0.000008667052     0.000006735212

  **** Optimization is complete! (in 8 steps) ****
    Final optimized geometry and variables:
    Molecular point group: c1

    Geometry (in Angstrom), charge = 0, multiplicity = 1:

    O            1.742720477754     1.092860008402    -0.436065492919
    C            1.569258727392    -0.076482845549    -0.493621833054
    C            0.232893252670    -0.780465632882    -0.492012256212
    O            2.560758432507    -0.950092037044    -0.561894183176
    C           -0.985224765120     0.152060766725    -0.483413808325
    H            0.233406884301    -1.435540863659    -1.354714215138
    H            0.238763005298    -1.435336749366     0.372453533254
    C           -1.976110013551    -0.170295660891     0.633641410326
    H           -1.498030903996     0.079626597748    -1.436396244023
    H           -0.649967448432     1.174899307530    -0.385697438520
    C           -3.201161560314     0.738356467186     0.628706901848
    H           -2.297849395097    -1.206045836791     0.548283858282
    H           -1.471236796400    -0.086128028586     1.593295336967
    C           -4.186599476367     0.421822749347     1.748684259167
    H           -3.706223126104     0.653939539941    -0.329727858679
    H           -2.879142510155     1.772383351762     0.712691094016
    H           -4.552597258753    -0.596793574121     1.672425407533
    H           -5.044038913510     1.084016033929     1.715713948713
    H           -3.721030042170     0.532441229342     2.722375667809
    C            3.878217326335    -0.438845360153    -0.560235711016
    H            4.036386826245     0.210614436001    -1.408401585487
    H            4.529850142986    -1.295366085916    -0.620877947040
    H            4.072102985404     0.113319165245     0.347403993756

  Mulliken Charges: (a.u.)
   Center  Symbol    Alpha    Beta     Spin     Total
       1     O     4.19606  4.19606  0.00000 -0.39213
       2     C     2.80036  2.80036  0.00000  0.39927
       3     C     3.11169  3.11169  0.00000 -0.22337
       4     O     4.14727  4.14727  0.00000 -0.29454
       5     C     3.09631  3.09631  0.00000 -0.19262
       6     H     0.43365  0.43365  0.00000  0.13270
       7     H     0.43850  0.43850  0.00000  0.12299
       8     C     3.09036  3.09036  0.00000 -0.18071
       9     H     0.45141  0.45141  0.00000  0.09717
      10     H     0.43468  0.43468  0.00000  0.13064
      11     C     3.08530  3.08530  0.00000 -0.17061
      12     H     0.45471  0.45471  0.00000  0.09057
      13     H     0.45374  0.45374  0.00000  0.09251
      14     C     3.14986  3.14986  0.00000 -0.29973
      15     H     0.45479  0.45479  0.00000  0.09041
      16     H     0.45178  0.45178  0.00000  0.09645
      17     H     0.45577  0.45577  0.00000  0.08847
      18     H     0.44809  0.44809  0.00000  0.10382
      19     H     0.45482  0.45482  0.00000  0.09036
      20     C     3.03650  3.03650  0.00000 -0.07300
      21     H     0.45428  0.45428  0.00000  0.09145
      22     H     0.44554  0.44554  0.00000  0.10891
      23     H     0.45451  0.45451  0.00000  0.09098

   Total alpha = 36.00000, Total beta = 36.00000, Total charge = -0.00000

*** Psi4 exiting successfully. Buy a developer a beer!
