  ==> Input File <==

--------------------------------------------------------------------------
set {
	reference rhf
	basis 6-31G*
}

set_num_threads( 4 )
memory 2 gb

molecule MOL {
0 1

H	 -1.351036	 1.370655	 0.166736
C	 -0.776352	 0.444088	 0.205465
N	 0.538815	 0.649616	 0.000000
O	 -1.294828	 -0.613540	 0.409949
C	 1.521968	 -0.411503	 0.000000
H	 0.842021	 1.582862	 -0.159379
H	 2.150599	 -0.357004	 -0.881901
H	 0.999455	 -1.354525	 0.000000
H	 2.150599	 -0.357004	 0.881901

	symmetry c1
}
set optking {
	frozen_dihedral = ("
		6 3 5 7
	")
}

ee = optimize('scf')
oeprop('DIPOLE', 'QUADRUPOLE', 'MULLIKEN_CHARGES')
f=open( 'psi4out.xyz', 'w' )
f.write( "9  " )
f.write( str(ee) + "\n" )
f.write( MOL.save_string_xyz() )
f.close()
--------------------------------------------------------------------------

    Molecular point group: c1
  Charge       = 0
  Multiplicity = 1
  Basis Set: 6-31G*
  Basis Set:
  @DF-RHF Final Energy:  -207.96094331745451
    Total Energy =                       -207.9609433174545075
    Molecular point group: c1
  Basis Set: 6-31G*
  Basis Set:
  Basis Set: 6-31G*
  Basis Set:
  @DF-RHF Final Energy:  -207.96096560258499
    Total Energy =                       -207.9609656025849915
  Basis Set: 6-31G*
  Basis Set:
  Basis Set: 6-31G*
  Basis Set:
  @DF-RHF Final Energy:  -207.96096371067841
    Total Energy =                       -207.9609637106784703
  Basis Set: 6-31G*
  Basis Set:
  Basis Set: 6-31G*
  Basis Set:
  @DF-RHF Final Energy:  -207.96098238463037
    Total Energy =                       -207.9609823846303698
  Basis Set: 6-31G*
  Basis Set:
  Basis Set: 6-31G*
  Basis Set:
  @DF-RHF Final Energy:  -207.96099636385543
    Total Energy =                       -207.9609963638554575
  Basis Set: 6-31G*
  Basis Set:
  Basis Set: 6-31G*
  Basis Set:
  @DF-RHF Final Energy:  -207.96099811235723
    Total Energy =                       -207.9609981123572595
  Basis Set: 6-31G*
  Basis Set:
  Charge       = 0
  Multiplicity = 1
  Basis Set: 6-31G*
  Basis Set:

    Orbital Energies (a.u.)
    -----------------------

    Doubly Occupied:

       1A    -20.525583     2A    -15.591085     3A    -11.344235
       4A    -11.260280     5A     -1.389064     6A     -1.236589
       7A     -0.968592     8A     -0.807285     9A     -0.746454
      10A     -0.641682    11A     -0.626337    12A     -0.593337
      13A     -0.554368    14A     -0.537068    15A     -0.423845
      16A     -0.390626

  @DF-RHF Final Energy:  -207.96099821619850

   => Energetics <=

    Nuclear Repulsion Energy =            122.4842057990963582
    One-Electron Energy =                -525.6175471713497700
    Two-Electron Energy =                 195.1723431560549784
    DFT Exchange-Correlation Energy =       0.0000000000000000
    Empirical Dispersion Energy =           0.0000000000000000
    PCM Polarization Energy =               0.0000000000000000
    EFP Energy =                            0.0000000000000000
    Total Energy =                       -207.9609982161984476
    Molecular point group: c1
  Basis Set: 6-31G*
  Basis Set:

  -Total Gradient:
     Atom            X                  Y                   Z
    ------   -----------------  -----------------  -----------------
       1       -0.000003014701    -0.000002026583     0.000000052321
       2        0.000019892524     0.000029465014    -0.000006627334
       3       -0.000051798421    -0.000047759691    -0.000215908691
       4       -0.000004190338    -0.000018714741     0.000003318067
       5        0.000107305227     0.000093750705     0.000134634135
       6        0.000013181565     0.000021025740     0.000153740537
       7       -0.000080551079    -0.000077546858    -0.000070564119
       8        0.000001759455    -0.000002827104     0.000000321547
       9       -0.000002584234     0.000004633518     0.000001033537

  **** Optimization is complete! (in 7 steps) ****
    Final optimized geometry and variables:
    Molecular point group: c1

    Geometry (in Angstrom), charge = 0, multiplicity = 1:

    H           -1.363848905026     1.359890351252     0.013072258937
    C           -0.785519494460     0.435873480512     0.058667683116
    N            0.520140632213     0.634356538072    -0.206841186474
    O           -1.293455957407    -0.616994891393     0.308958576662
    C            1.506002749685    -0.423370951883    -0.162568545858
    H            0.828855207638     1.570325504615    -0.337083323141
    H            2.175767174054    -0.342817365320    -1.010206262663
    H            0.991693749906    -1.370005287233    -0.209560464784
    H            2.089930633137    -0.388073936224     0.751434641871

  Mulliken Charges: (a.u.)
   Center  Symbol    Alpha    Beta     Spin     Total
       1     H     0.42744  0.42744  0.00000  0.14511
       2     C     2.74506  2.74506  0.00000  0.50987
       3     N     3.87467  3.87467  0.00000 -0.74933
       4     O     4.28421  4.28421  0.00000 -0.56842
       5     C     3.14372  3.14372  0.00000 -0.28744
       6     H     0.30959  0.30959  0.00000  0.38081
       7     H     0.41411  0.41411  0.00000  0.17178
       8     H     0.38749  0.38749  0.00000  0.22501
       9     H     0.41370  0.41370  0.00000  0.17260

   Total alpha = 16.00000, Total beta = 16.00000, Total charge =  0.00000
