                              Psi4 1.0.54 Driver

  ==> Input File <==

--------------------------------------------------------------------------
set {
	reference rhf
	basis cc-pvtz
}

set_num_threads( 4 )
memory 2 gb

molecule MOL {
0 1

O	 1.097998	 0.405942	 0.975346
C	 1.704209	 0.119472	 -0.000093
C	 1.443285	 0.658758	 -1.383108
O	 2.715427	 -0.733672	 0.000025
C	 0.288339	 1.647795	 -1.448141
H	 2.366917	 1.109594	 -1.731104
H	 1.268197	 -0.193240	 -2.031865
C	 0.052404	 2.172691	 -2.861235
H	 0.488116	 2.475060	 -0.776580
H	 -0.611841	 1.170778	 -1.077438
C	 -1.102828	 3.165981	 -2.946577
H	 0.959677	 2.647639	 -3.228019
H	 -0.144196	 1.337824	 -3.530253
C	 -1.338366	 3.690994	 -4.358772
H	 -0.907071	 4.000735	 -2.279476
H	 -2.009876	 2.692151	 -2.582010
H	 -0.459385	 4.201156	 -4.738720
H	 -2.163938	 4.392803	 -4.383830
H	 -1.571300	 2.882275	 -5.043571
C	 4.020999	 -0.192556	 0.000019
H	 4.182809	 0.412891	 -0.879449
H	 4.692590	 -1.035653	 0.000152
H	 4.182726	 0.413087	 0.879368

	symmetry c1
}
set optking {
	frozen_dihedral = ("
		1 2 4 20
	")
}

ee,wfn = optimize('scf', return_wfn=True)
oeprop( wfn, 'DIPOLE', 'QUADRUPOLE', 'MULLIKEN_CHARGES')
f=open( 'psi4out.xyz', 'w' )
f.write( "23  " )
f.write( str(ee) + "\n" )
f.write( MOL.save_string_xyz() )
f.close()
--------------------------------------------------------------------------

    Molecular point group: c1
  Charge       = 0
  Multiplicity = 1
  Basis Set: CC-PVTZ
  Basis Set:
  @DF-RHF Final Energy:  -423.10889092642350
    Total Energy =                       -423.1088909264235554
    Molecular point group: c1
  Basis Set: CC-PVTZ
  Basis Set:
  Basis Set: CC-PVTZ
  Basis Set:
  @DF-RHF Final Energy:  -422.94458437255491
    Total Energy =                       -422.9445843725545728
  Basis Set: CC-PVTZ
  Basis Set:
  Basis Set: CC-PVTZ
  Basis Set:
  @DF-RHF Final Energy:  -423.05938780048484
    Total Energy =                       -423.0593878004848420
  Basis Set: CC-PVTZ
  Basis Set:
  Basis Set: CC-PVTZ
  Basis Set:
  @DF-RHF Final Energy:  -423.10616409584765
    Total Energy =                       -423.1061640958467933
  Basis Set: CC-PVTZ
  Basis Set:
  @DF-RHF Final Energy:  -423.09344359162731
    Total Energy =                       -423.0934435916274197
  @DF-RHF Final Energy:  -423.10852389791171
    Total Energy =                       -423.1085238979119367
  @DF-RHF Final Energy:  -423.11054806138679
    Total Energy =                       -423.1105480613865666
  @DF-RHF Final Energy:  -423.11095458394112
    Total Energy =                       -423.1109545839412931
  Basis Set: CC-PVTZ
  Basis Set:
  @DF-RHF Final Energy:  -423.11098049396975
    Total Energy =                       -423.1109804939694641
  Basis Set: CC-PVTZ
  Basis Set:
  Basis Set: CC-PVTZ
  Basis Set:
  @DF-RHF Final Energy:  -423.11098874688355
    Total Energy =                       -423.1109887468836632
  Basis Set: CC-PVTZ
  Basis Set:
  Basis Set: CC-PVTZ
  Basis Set:
  @DF-RHF Final Energy:  -423.11099088538566
    Total Energy =                       -423.1109908853854904
  Basis Set: CC-PVTZ
  Basis Set:
  Charge       = 0
  Multiplicity = 1
  Basis Set: CC-PVTZ
  Basis Set:

    Orbital Energies (a.u.)
    -----------------------

    Doubly Occupied:

       1A    -20.578294     2A    -20.545126     3A    -11.367676
       4A    -11.289821     5A    -11.238856     6A    -11.220599
       7A    -11.218826     8A    -11.216809     9A    -11.209697
      10A     -1.461280    11A     -1.370042    12A     -1.096673
      13A     -1.042974    14A     -0.981015    15A     -0.945442
      16A     -0.852019    17A     -0.798450    18A     -0.766532
      19A     -0.698473    20A     -0.681166    21A     -0.677430
      22A     -0.651592    23A     -0.621326    24A     -0.607343
      25A     -0.580890    26A     -0.569182    27A     -0.557923
      28A     -0.537416    29A     -0.511512    30A     -0.497983
      31A     -0.487721    32A     -0.482847    33A     -0.471348
      34A     -0.468807    35A     -0.452646    36A     -0.434522

  @DF-RHF Final Energy:  -423.11099112817277

   => Energetics <=

    Nuclear Repulsion Energy =            453.6607382786742733
    One-Electron Energy =               -1475.1629345183926034
    Two-Electron Energy =                 598.3912051115453323
    DFT Exchange-Correlation Energy =       0.0000000000000000
    Empirical Dispersion Energy =           0.0000000000000000
    PCM Polarization Energy =               0.0000000000000000
    EFP Energy =                            0.0000000000000000
    Total Energy =                       -423.1109911281730547
    Molecular point group: c1
  Basis Set: CC-PVTZ
  Basis Set:

  -Total Gradient:
     Atom            X                  Y                   Z
    ------   -----------------  -----------------  -----------------
       1       -0.000842525683    -0.001203941908    -0.000131045907
       2        0.001212021968     0.001696785332    -0.000416542649
       3       -0.000007921656    -0.000011834570    -0.000001549489
       4       -0.000434008216    -0.000235681841     0.001686880905
       5        0.000002612427    -0.000014760640     0.000006725090
       6       -0.000011425194    -0.000004490656     0.000011513881
       7        0.000006671845    -0.000004830407    -0.000000408087
       8        0.000007586714     0.000015126148    -0.000003037597
       9       -0.000002609605     0.000000108905    -0.000006734717
      10       -0.000000066700     0.000004770545     0.000007137886
      11        0.000009945454     0.000005894511     0.000005539325
      12       -0.000003375899     0.000002843275    -0.000000733181
      13        0.000009738315     0.000003641704     0.000002842919
      14       -0.000011239453    -0.000013686866    -0.000005881976
      15        0.000001016174    -0.000002210878    -0.000003684438
      16        0.000000194180     0.000006119701     0.000002266377
      17       -0.000002360283     0.000001316628     0.000004124247
      18       -0.000002505249    -0.000003202441    -0.000000436858
      19        0.000003038356     0.000003255586    -0.000002842390
      20        0.000040286792    -0.000265401951    -0.001158616409
      21        0.000011191755     0.000003159839    -0.000007967067
      22       -0.000002494562     0.000004875132     0.000000872668
      23        0.000016228513     0.000012144847     0.000011577479

  **** Optimization is complete! (in 12 steps) ****
    Final optimized geometry and variables:
    Molecular point group: c1

    Geometry (in Angstrom), charge = 0, multiplicity = 1:

    O            0.037085347923    -0.305748180551     2.379462677397
    C            0.712004967596    -0.722998370720     1.511960905180
    C            0.446596625885    -0.518614901433     0.041423901017
    O            1.771366279833    -1.519371234800     1.774476491356
    C           -0.732380885055     0.396633331614    -0.256799179657
    H            1.354254395534    -0.143544518081    -0.420355871671
    H            0.292801546588    -1.507615919182    -0.380132760021
    C           -0.978210967310     0.561448766560    -1.753649089830
    H           -0.555589569033     1.366229490318     0.195909885961
    H           -1.619792995004    -0.000614552376     0.221606308432
    C           -2.160612606260     1.472679850838    -2.069918992400
    H           -0.083696211671     0.959974869649    -2.227587649566
    H           -1.149532060224    -0.414594883658    -2.202050860689
    C           -2.408186470904     1.635137263054    -3.565792013349
    H           -1.989666434450     2.448676349015    -1.624494179722
    H           -3.054433131476     1.075507725420    -1.597412718233
    H           -1.543596343668     2.063762607952    -4.061835492301
    H           -3.253633555564     2.286361972353    -3.754850386137
    H           -2.616324348106     0.679018230709    -4.034477079468
    C            3.050660494866    -0.931240720291     1.776556977505
    H            3.308473372000    -0.531665659313     0.802658563453
    H            3.749496822241    -1.711390594523     2.030983358149
    H            3.108468284472    -0.144300660667     2.518472067579

  Mulliken Charges: (a.u.)
   Center  Symbol    Alpha    Beta     Spin     Total
       1     O     4.16773  4.16773  0.00000 -0.33545
       2     C     2.78498  2.78498  0.00000  0.43005
       3     C     3.12504  3.12504  0.00000 -0.25008
       4     O     4.16650  4.16650  0.00000 -0.33300
       5     C     3.08482  3.08482  0.00000 -0.16964
       6     H     0.44425  0.44425  0.00000  0.11149
       7     H     0.43768  0.43768  0.00000  0.12464
       8     C     3.08808  3.08808  0.00000 -0.17616
       9     H     0.44750  0.44750  0.00000  0.10500
      10     H     0.44297  0.44297  0.00000  0.11406
      11     C     3.08446  3.08446  0.00000 -0.16891
      12     H     0.45640  0.45640  0.00000  0.08721
      13     H     0.45497  0.45497  0.00000  0.09007
      14     C     3.15032  3.15032  0.00000 -0.30064
      15     H     0.45330  0.45330  0.00000  0.09339
      16     H     0.45246  0.45246  0.00000  0.09508
      17     H     0.45557  0.45557  0.00000  0.08885
      18     H     0.44734  0.44734  0.00000  0.10531
      19     H     0.45501  0.45501  0.00000  0.08997
      20     C     3.03682  3.03682  0.00000 -0.07363
      21     H     0.46608  0.46608  0.00000  0.06784
      22     H     0.44129  0.44129  0.00000  0.11742
      23     H     0.45643  0.45643  0.00000  0.08714

   Total alpha = 36.00000, Total beta = 36.00000, Total charge = -0.00000

*** Psi4 exiting successfully. Buy a developer a beer!
