                              Psi4 1.0.54 Driver

  ==> Input File <==

--------------------------------------------------------------------------
set {
	reference rhf
	basis cc-pvtz
}

set_num_threads( 4 )
memory 2 gb

molecule MOL {
0 1

H	 0.569714	 -2.917743	 2.097778
O	 0.927592	 -2.348502	 1.433261
C	 0.123470	 -1.296887	 1.303163
C	 0.626018	 -0.337582	 0.258241
O	 -0.857448	 -1.172299	 1.951331
C	 -0.267326	 0.883135	 0.076490
H	 1.635271	 -0.065841	 0.543591
H	 0.719536	 -0.896822	 -0.667468
C	 -1.726822	 0.642622	 0.463839
H	 -0.210803	 1.217591	 -0.953497
H	 0.129920	 1.693110	 0.675679
C	 -2.480891	 -0.340606	 -0.429852
H	 -2.243098	 1.597649	 0.438609
H	 -1.776542	 0.301208	 1.495542
C	 -3.955933	 -0.460128	 -0.060472
H	 -2.393755	 -0.020485	 -1.464726
H	 -2.024244	 -1.323637	 -0.374360
H	 -4.467673	 -1.160944	 -0.709827
H	 -4.458917	 0.497287	 -0.144505
H	 -4.076458	 -0.806900	 0.960497

	symmetry c1
}
set optking {
	frozen_dihedral = ("
		7 4 6 10
	")
}

ee,wfn = optimize('scf', return_wfn=True)
oeprop( wfn, 'DIPOLE', 'QUADRUPOLE', 'MULLIKEN_CHARGES')
f=open( 'psi4out.xyz', 'w' )
f.write( "20  " )
f.write( str(ee) + "\n" )
f.write( MOL.save_string_xyz() )
f.close()
--------------------------------------------------------------------------

    Molecular point group: c1
  Charge       = 0
  Multiplicity = 1
  Basis Set: CC-PVTZ
  Basis Set:
  @DF-RHF Final Energy:  -384.06832941971390
    Total Energy =                       -384.0683294197140185
    Molecular point group: c1
  Basis Set: CC-PVTZ
  Basis Set:
  Basis Set: CC-PVTZ
  Basis Set:
  @DF-RHF Final Energy:  -384.08135821648244
    Total Energy =                       -384.0813582164822719
  Basis Set: CC-PVTZ
  Basis Set:
  Basis Set: CC-PVTZ
  Basis Set:
  @DF-RHF Final Energy:  -384.08471015602424
    Total Energy =                       -384.0847101560244710
  Basis Set: CC-PVTZ
  Basis Set:
  Basis Set: CC-PVTZ
  Basis Set:
  @DF-RHF Final Energy:  -384.08292123549006
    Total Energy =                       -384.0829212354900619
  Basis Set: CC-PVTZ
  Basis Set:
  @DF-RHF Final Energy:  -384.08654878330958
    Total Energy =                       -384.0865487833094676
  @DF-RHF Final Energy:  -384.08709731143438
    Total Energy =                       -384.0870973114346043
  @DF-RHF Final Energy:  -384.08764693967032
    Total Energy =                       -384.0876469396705488
  @DF-RHF Final Energy:  -384.08818105658423
    Total Energy =                       -384.0881810565844034
  @DF-RHF Final Energy:  -384.08867538799097
    Total Energy =                       -384.0886753879907474
  @DF-RHF Final Energy:  -384.08878308718164
    Total Energy =                       -384.0887830871819233
  @DF-RHF Final Energy:  -384.08880539907761
    Total Energy =                       -384.0888053990776143
  Basis Set: CC-PVTZ
  Basis Set:
  @DF-RHF Final Energy:  -384.08884590177934
    Total Energy =                       -384.0888459017788819
  Basis Set: CC-PVTZ
  Basis Set:
  Basis Set: CC-PVTZ
  Basis Set:
  @DF-RHF Final Energy:  -384.08884924327663
    Total Energy =                       -384.0888492432766270
  Basis Set: CC-PVTZ
  Basis Set:
  Basis Set: CC-PVTZ
  Basis Set:
  @DF-RHF Final Energy:  -384.08885056382553
    Total Energy =                       -384.0888505638255310
  Basis Set: CC-PVTZ
  Basis Set:
  Charge       = 0
  Multiplicity = 1
  Basis Set: CC-PVTZ
  Basis Set:

    Orbital Energies (a.u.)
    -----------------------

    Doubly Occupied:

       1A    -20.606388     2A    -20.538280     3A    -11.374153
       4A    -11.239422     5A    -11.226868     6A    -11.215652
       7A    -11.211449     8A    -11.207193     9A     -1.478577
      10A     -1.368642    11A     -1.094453    12A     -1.038375
      13A     -0.960168    14A     -0.873050    15A     -0.817006
      16A     -0.777355    17A     -0.706685    18A     -0.684233
      19A     -0.663511    20A     -0.636084    21A     -0.609595
      22A     -0.592048    23A     -0.576676    24A     -0.557347
      25A     -0.536551    26A     -0.514935    27A     -0.499548
      28A     -0.484341    29A     -0.470207    30A     -0.464533
      31A     -0.455444    32A     -0.437725

  @DF-RHF Final Energy:  -384.08885060508931

   => Energetics <=

    Nuclear Repulsion Energy =            393.2493346986543656
    One-Electron Energy =               -1302.8433821547776006
    Two-Electron Energy =                 525.5051968510344977
    DFT Exchange-Correlation Energy =       0.0000000000000000
    Empirical Dispersion Energy =           0.0000000000000000
    PCM Polarization Energy =               0.0000000000000000
    EFP Energy =                            0.0000000000000000
    Total Energy =                       -384.0888506050887372
    Molecular point group: c1
  Basis Set: CC-PVTZ
  Basis Set:

  -Total Gradient:
     Atom            X                  Y                   Z
    ------   -----------------  -----------------  -----------------
       1        0.000005551875     0.000004718796    -0.000025150789
       2       -0.000023455013    -0.000031583006     0.000057124050
       3        0.000080578373     0.000041888916    -0.000117536417
       4        0.001932743225     0.000048604896    -0.008386300205
       5       -0.000116322992    -0.000009118117     0.000068110518
       6        0.006108958238     0.003640727678     0.004290369289
       7       -0.002432686071    -0.000579922639     0.006404473244
       8       -0.000031911300    -0.000010398650     0.000014096431
       9        0.000010801047     0.000044096990     0.000036399951
      10       -0.005543675978    -0.003082515885    -0.002381647732
      11       -0.000017960144    -0.000005400164     0.000008937819
      12        0.000033742018    -0.000060255923     0.000038129655
      13        0.000001859461    -0.000016006226    -0.000014863075
      14        0.000000914371     0.000005385496     0.000009201418
      15       -0.000006631226     0.000005649953     0.000000980102
      16       -0.000006912552    -0.000000023468    -0.000004351764
      17        0.000002123717     0.000006051818    -0.000002190350
      18        0.000005553155     0.000001438009     0.000003640237
      19       -0.000002775994    -0.000003096096     0.000000660081
      20       -0.000000494204    -0.000000242378    -0.000000082460

  **** Optimization is complete! (in 15 steps) ****
    Final optimized geometry and variables:
    Molecular point group: c1

    Geometry (in Angstrom), charge = 0, multiplicity = 1:

    H            0.611663220599    -2.689767312170     1.115695426519
    O            0.950094588452    -2.158644667899     0.410086276751
    C            0.971734820896    -0.892516163773     0.813856014503
    C            1.574649946183     0.034603066605    -0.211785468390
    O            0.596607543847    -0.572686308916     1.889929418700
    C            0.869749024884     1.397866135796    -0.357722342887
    H            2.573239279328     0.196764638567     0.183154262195
    H            1.658618221903    -0.485121879627    -1.153072140653
    C           -0.658406383990     1.395528426912    -0.238452296577
    H            1.096404017757     1.759836338631    -1.355412500097
    H            1.278821641307     2.098189539947     0.357242944253
    C           -1.369093575593     0.534253334686    -1.281479618450
    H           -0.993696206620     2.422713308720    -0.351301792062
    H           -0.953977979563     1.085620306419     0.755476752434
    C           -2.888494533513     0.613525862047    -1.173505914707
    H           -1.062317883810     0.846995873870    -2.276611904721
    H           -1.063757223816    -0.503393492738    -1.183568336284
    H           -3.368589568773    -0.004449954818    -1.923535110768
    H           -3.237235392163     1.631636486749    -1.310369943802
    H           -3.227872962026     0.277324333699    -0.199725210243

  Mulliken Charges: (a.u.)
   Center  Symbol    Alpha    Beta     Spin     Total
       1     H     0.38060  0.38060  0.00000  0.23879
       2     O     4.16254  4.16254  0.00000 -0.32508
       3     C     2.79478  2.79478  0.00000  0.41044
       4     C     3.12125  3.12125  0.00000 -0.24251
       5     O     4.19915  4.19915  0.00000 -0.39829
       6     C     3.09293  3.09293  0.00000 -0.18585
       7     H     0.43292  0.43292  0.00000  0.13416
       8     H     0.43118  0.43118  0.00000  0.13764
       9     C     3.11225  3.11225  0.00000 -0.22451
      10     H     0.44874  0.44874  0.00000  0.10253
      11     H     0.44054  0.44054  0.00000  0.11892
      12     C     3.08623  3.08623  0.00000 -0.17247
      13     H     0.44568  0.44568  0.00000  0.10864
      14     H     0.43729  0.43729  0.00000  0.12542
      15     C     3.15059  3.15059  0.00000 -0.30118
      16     H     0.45362  0.45362  0.00000  0.09276
      17     H     0.45406  0.45406  0.00000  0.09189
      18     H     0.44852  0.44852  0.00000  0.10296
      19     H     0.45453  0.45453  0.00000  0.09093
      20     H     0.45260  0.45260  0.00000  0.09480

   Total alpha = 32.00000, Total beta = 32.00000, Total charge = -0.00000

*** Psi4 exiting successfully. Buy a developer a beer!
