  ==> Input File <==

--------------------------------------------------------------------------
set {
	reference rhf
	basis 6-31G*
}

set_num_threads( 1 )
memory 2 gb

molecule MOL {
0 1

H	 -2.437437	 0.674178	 4.823728
O	 -1.676670	 0.682987	 5.386069
C	 -1.028107	 -0.561873	 5.324867
C	 -0.287394	 -0.789869	 4.011822
H	 -0.324378	 -0.567835	 6.147305
H	 -1.737208	 -1.370025	 5.500496
C	 -1.199905	 -0.846655	 2.784236
H	 0.444263	 0.004037	 3.886289
H	 0.267702	 -1.722928	 4.093284
C	 -0.432699	 -1.130501	 1.489769
H	 -1.732358	 0.095791	 2.691205
H	 -1.954225	 -1.620159	 2.929258
C	 -1.309753	 -1.282496	 0.241564
H	 0.295060	 -0.338226	 1.323894
H	 0.140841	 -2.045670	 1.620987
C	 -2.037799	 -0.007733	 -0.193645
H	 -0.680284	 -1.619612	 -0.579373
H	 -2.037976	 -2.074788	 0.408305
C	 -3.489788	 0.042957	 0.286558
H	 -2.017067	 0.064384	 -1.280144
H	 -1.513726	 0.868678	 0.179924
C	 -4.216917	 1.317354	 -0.141063
H	 -4.025645	 -0.823308	 -0.095450
H	 -3.513059	 -0.038752	 1.371301
H	 -4.239342	 1.411634	 -1.223113
H	 -5.243387	 1.322503	 0.212445
H	 -3.726170	 2.201406	 0.256408

	symmetry c1
}
set optking {
	frozen_dihedral = ("
		14 10 7 4,
		14 10 13 16,
		10 7 4 8,
		8 4 3 2,
		20 16 19 22,
		4 3 2 1
	")
}

ee = energy('scf')
oeprop('DIPOLE', 'QUADRUPOLE', 'MULLIKEN_CHARGES')
f=open( 'psi4out.xyz', 'w' )
f.write( "27  " )
f.write( str(ee) + "\n" )
f.write( MOL.save_string_xyz() )
f.close()
--------------------------------------------------------------------------

    Molecular point group: c1

    Geometry (in Angstrom), charge = 0, multiplicity = 1:

       Center              X                  Y                   Z               Mass
    ------------   -----------------  -----------------  -----------------  -----------------
           H         -0.676604738486     0.933936096795     2.638946232238     1.007825032070
           O          0.084162261514     0.942745096795     3.201287232238    15.994914619560
           C          0.732725261514    -0.302114903205     3.140085232238    12.000000000000
           C          1.473438261514    -0.530110903205     1.827040232238    12.000000000000
           H          1.436454261514    -0.308076903205     3.962523232238     1.007825032070
           H          0.023624261514    -1.110266903205     3.315714232238     1.007825032070
           C          0.560927261514    -0.586896903205     0.599454232238    12.000000000000
           H          2.205095261514     0.263795096795     1.701507232238     1.007825032070
           H          2.028534261514    -1.463169903205     1.908502232238     1.007825032070
           C          1.328133261514    -0.870742903205    -0.695012767762    12.000000000000
           H          0.028474261514     0.355549096795     0.506423232238     1.007825032070
           H         -0.193392738486    -1.360400903205     0.744476232238     1.007825032070
           C          0.451079261514    -1.022737903205    -1.943217767762    12.000000000000
           H          2.055892261514    -0.078467903205    -0.860887767762     1.007825032070
           H          1.901673261514    -1.785911903205    -0.563794767762     1.007825032070
           C         -0.276966738486     0.252025096795    -2.378426767762    12.000000000000
           H          1.080548261514    -1.359853903205    -2.764154767762     1.007825032070
           H         -0.277143738486    -1.815029903205    -1.776476767762     1.007825032070
           C         -1.728955738486     0.302715096795    -1.898223767762    12.000000000000
           H         -0.256234738486     0.324142096795    -3.464925767762     1.007825032070
           H          0.247106261514     1.128436096795    -2.004857767762     1.007825032070
           C         -2.456084738486     1.577112096795    -2.325844767762    12.000000000000
           H         -2.264812738486    -0.563549903205    -2.280231767762     1.007825032070
           H         -1.752226738486     0.221006096795    -0.813480767762     1.007825032070
           H         -2.478509738486     1.671392096795    -3.407894767762     1.007825032070
           H         -3.482554738486     1.582261096795    -1.972336767762     1.007825032070
           H         -1.965337738486     2.461164096795    -1.928373767762     1.007825032070

  Charge       = 0
  Multiplicity = 1
  Basis Set: 6-31G*
  Basis Set:

    Orbital Energies (a.u.)
    -----------------------

    Doubly Occupied:

       1A    -20.552614     2A    -11.267283     3A    -11.220163
       4A    -11.217398     5A    -11.216516     6A    -11.215380
       7A    -11.214694     8A    -11.213655     9A    -11.209621
      10A     -1.359351    11A     -1.096807    12A     -1.060620
      13A     -1.011253    14A     -0.949641    15A     -0.888869
      16A     -0.825608    17A     -0.795598    18A     -0.779977
      19A     -0.693986    20A     -0.654359    21A     -0.634386
      22A     -0.611752    23A     -0.600734    24A     -0.590420
      25A     -0.578348    26A     -0.559883    27A     -0.543229
      28A     -0.517771    29A     -0.509918    30A     -0.494898
      31A     -0.489360    32A     -0.477862    33A     -0.470732
      34A     -0.461821    35A     -0.445727    36A     -0.439987
      37A     -0.422915

  @DF-RHF Final Energy:  -388.27665767129179

   => Energetics <=

    Nuclear Repulsion Energy =            471.5468042029591516
    One-Electron Energy =               -1461.0610682867293235
    Two-Electron Energy =                 601.2376064124805453
    DFT Exchange-Correlation Energy =       0.0000000000000000
    Empirical Dispersion Energy =           0.0000000000000000
    PCM Polarization Energy =               0.0000000000000000
    EFP Energy =                            0.0000000000000000
    Total Energy =                       -388.2766576712896267

  Mulliken Charges: (a.u.)
   Center  Symbol    Alpha    Beta     Spin     Total
       1     H     0.27998  0.27998  0.00000  0.44004
       2     O     4.37088  4.37088  0.00000 -0.74176
       3     C     2.99743  2.99743  0.00000  0.00514
       4     C     3.16061  3.16061  0.00000 -0.32121
       5     H     0.41437  0.41437  0.00000  0.17126
       6     H     0.43197  0.43197  0.00000  0.13605
       7     C     3.16422  3.16422  0.00000 -0.32844
       8     H     0.41512  0.41512  0.00000  0.16976
       9     H     0.42420  0.42420  0.00000  0.15159
      10     C     3.15162  3.15162  0.00000 -0.30324
      11     H     0.42278  0.42278  0.00000  0.15445
      12     H     0.42508  0.42508  0.00000  0.14985
      13     C     3.15704  3.15704  0.00000 -0.31408
      14     H     0.42135  0.42135  0.00000  0.15729
      15     H     0.42217  0.42217  0.00000  0.15566
      16     C     3.15505  3.15505  0.00000 -0.31009
      17     H     0.41901  0.41901  0.00000  0.16198
      18     H     0.42231  0.42231  0.00000  0.15538
      19     C     3.15343  3.15343  0.00000 -0.30687
      20     H     0.42040  0.42040  0.00000  0.15920
      21     H     0.42157  0.42157  0.00000  0.15685
      22     C     3.23988  3.23988  0.00000 -0.47976
      23     H     0.42237  0.42237  0.00000  0.15526
      24     H     0.42432  0.42432  0.00000  0.15135
      25     H     0.42116  0.42116  0.00000  0.15768
      26     H     0.41984  0.41984  0.00000  0.16032
      27     H     0.42183  0.42183  0.00000  0.15634

   Total alpha = 37.00000, Total beta = 37.00000, Total charge = -0.00000
