                              Psi4 1.0.54 Driver

  ==> Input File <==

--------------------------------------------------------------------------
set {
	reference rhf
	basis cc-pvtz
}

set_num_threads( 4 )
memory 2 gb

molecule MOL {
0 1

H	 2.751406	 0.205769	 -0.856034
N	 2.326826	 -0.066186	 0.000000
C	 0.934676	 -0.005420	 0.000000
H	 2.702082	 -0.924258	 0.331539
C	 0.226436	 -0.001077	 -1.195129
C	 0.226436	 -0.001077	 1.195129
H	 0.759091	 -0.011439	 -2.128123
C	 -1.153391	 0.009141	 -1.189028
H	 0.759091	 -0.011439	 2.128123
C	 -1.153391	 0.009141	 1.189028
H	 -1.680905	 0.012964	 -2.124348
C	 -1.857876	 0.014675	 0.000000
H	 -1.680905	 0.012964	 2.124348
H	 -2.930222	 0.022904	 0.000000

	symmetry c1
}
set optking {
	frozen_dihedral = ("
		1 2 3 5
	")
}

ee,wfn = optimize('scf', return_wfn=True)
oeprop( wfn, 'DIPOLE', 'QUADRUPOLE', 'MULLIKEN_CHARGES')
f=open( 'psi4out.xyz', 'w' )
f.write( "14  " )
f.write( str(ee) + "\n" )
f.write( MOL.save_string_xyz() )
f.close()
--------------------------------------------------------------------------

    Molecular point group: c1
  Charge       = 0
  Multiplicity = 1
  Basis Set: CC-PVTZ
  Basis Set:
  @DF-RHF Final Energy:  -285.82939943204445
    Total Energy =                       -285.8293994320445108
    Molecular point group: c1
  Basis Set: CC-PVTZ
  Basis Set:
  Basis Set: CC-PVTZ
  Basis Set:
  @DF-RHF Final Energy:  -285.82987393951646
    Total Energy =                       -285.8298739395166876
  Basis Set: CC-PVTZ
  Basis Set:
  Basis Set: CC-PVTZ
  Basis Set:
  @DF-RHF Final Energy:  -285.82993585970905
    Total Energy =                       -285.8299358597090531
  Basis Set: CC-PVTZ
  Basis Set:
  Basis Set: CC-PVTZ
  Basis Set:
  @DF-RHF Final Energy:  -285.82994420077688
    Total Energy =                       -285.8299442007772200
  Basis Set: CC-PVTZ
  Basis Set:
  Basis Set: CC-PVTZ
  Basis Set:
  @DF-RHF Final Energy:  -285.82994897988630
    Total Energy =                       -285.8299489798864670
  Basis Set: CC-PVTZ
  Basis Set:
  Charge       = 0
  Multiplicity = 1
  Basis Set: CC-PVTZ
  Basis Set:

    Orbital Energies (a.u.)
    -----------------------

    Doubly Occupied:

       1A    -15.546743     2A    -11.264782     3A    -11.227499
       4A    -11.226703     5A    -11.219888     6A    -11.217826
       7A    -11.217062     8A     -1.216448     9A     -1.130825
      10A     -1.014410    11A     -0.988823    12A     -0.831163
      13A     -0.811928    14A     -0.706769    15A     -0.680608
      16A     -0.651273    17A     -0.616522    18A     -0.595498
      19A     -0.583930    20A     -0.514568    21A     -0.505675
      22A     -0.491487    23A     -0.430547    24A     -0.335914
      25A     -0.309073

  @DF-RHF Final Energy:  -285.82994982681140

   => Energetics <=

    Nuclear Repulsion Energy =            273.3469386551989260
    One-Electron Energy =                -927.6818490817553311
    Two-Electron Energy =                 368.5049605997448907
    DFT Exchange-Correlation Energy =       0.0000000000000000
    Empirical Dispersion Energy =           0.0000000000000000
    PCM Polarization Energy =               0.0000000000000000
    EFP Energy =                            0.0000000000000000
    Total Energy =                       -285.8299498268115713
    Molecular point group: c1
  Basis Set: CC-PVTZ
  Basis Set:

  -Total Gradient:
     Atom            X                  Y                   Z
    ------   -----------------  -----------------  -----------------
       1        0.000032595170     0.003950474461     0.001417201627
       2       -0.000069663677    -0.006769897917    -0.001826769995
       3        0.000090571418     0.006019342164     0.000219178468
       4       -0.000021627298     0.000019982278     0.000024590863
       5        0.000089777637    -0.003238651196     0.000061480003
       6       -0.000132373771     0.000003748643     0.000104275743
       7       -0.000009701866     0.000001113505     0.000008592588
       8       -0.000105754037     0.000033758676     0.000069562905
       9        0.000016032453    -0.000004813421    -0.000013464778
      10        0.000132961706     0.000018871067     0.000070787504
      11       -0.000012173236    -0.000004857840     0.000002793457
      12        0.000005008299    -0.000022706421    -0.000131475404
      13       -0.000013456358    -0.000000735914    -0.000008302962
      14       -0.000002196441    -0.000005628086     0.000001549982

  **** Optimization is complete! (in 6 steps) ****
    Final optimized geometry and variables:
    Molecular point group: c1

    Geometry (in Angstrom), charge = 0, multiplicity = 1:

    H            2.764790062463     0.256287683803    -0.822716461444
    N            2.339825470910    -0.036760353808     0.026343949991
    C            0.930174360311    -0.007076979602    -0.004123660157
    H            2.722291618199    -0.897815727748     0.345245828927
    C            0.220308768917    -0.004661902332    -1.194382946246
    C            0.228577506734     0.003072638926     1.193493329338
    H            0.750537590220    -0.031904200671    -2.128353543685
    C           -1.162054252205     0.037034149309    -1.187421646867
    H            0.775095881462     0.012144460220     2.117008715506
    C           -1.150862238483     0.017164824288     1.195533758970
    H           -1.694767931716     0.050050806428    -2.119530315820
    C           -1.856278876220     0.041361247666     0.005407640172
    H           -1.677823525446     0.023392432283     2.130949350484
    H           -2.928822108977     0.063974064745     0.010079214373

  Mulliken Charges: (a.u.)
   Center  Symbol    Alpha    Beta     Spin     Total
       1     H     0.42083  0.42083  0.00000  0.15834
       2     N     3.70139  3.70139  0.00000 -0.40278
       3     C     2.88182  2.88182  0.00000  0.23636
       4     H     0.41624  0.41624  0.00000  0.16751
       5     C     3.11642  3.11642  0.00000 -0.23284
       6     C     3.11358  3.11358  0.00000 -0.22716
       7     H     0.43095  0.43095  0.00000  0.13810
       8     C     3.06714  3.06714  0.00000 -0.13429
       9     H     0.42289  0.42289  0.00000  0.15422
      10     C     3.06296  3.06296  0.00000 -0.12592
      11     H     0.42423  0.42423  0.00000  0.15154
      12     C     3.09303  3.09303  0.00000 -0.18605
      13     H     0.42401  0.42401  0.00000  0.15198
      14     H     0.42450  0.42450  0.00000  0.15099

   Total alpha = 25.00000, Total beta = 25.00000, Total charge = -0.00000

*** Psi4 exiting successfully. Buy a developer a beer!
