                              Psi4 1.0.54 Driver

  ==> Input File <==

--------------------------------------------------------------------------
set {
	reference rhf
	basis cc-pvtz
}

set_num_threads( 4 )
memory 2 gb

molecule MOL {
0 1

O	 1.158399	 1.422388	 0.471280
C	 -0.019016	 1.310186	 0.424319
C	 -0.993979	 2.445887	 0.558797
O	 -0.637375	 0.157174	 0.243149
H	 -1.648718	 2.264947	 1.401588
H	 -0.455922	 3.369235	 0.698657
H	 -1.609946	 2.503639	 -0.329357
C	 0.162530	 -1.009518	 0.097799
C	 1.587210	 -0.664190	 0.477086
H	 0.096803	 -1.356267	 -0.924704
H	 -0.233803	 -1.785900	 0.736810
C	 2.256770	 0.342732	 -0.454344
H	 2.154716	 -1.590834	 0.479041
H	 1.598751	 -0.289614	 1.496104
C	 3.698146	 0.643205	 -0.057145
H	 2.235038	 -0.042575	 -1.470299
H	 1.683491	 1.262594	 -0.461300
H	 4.150202	 1.356548	 -0.736242
H	 4.305463	 -0.255904	 -0.069842
H	 3.749130	 1.061068	 0.942759

	symmetry c1
}
set optking {
	frozen_dihedral = ("
		2 4 8 10
	")
}

ee,wfn = optimize('scf', return_wfn=True)
oeprop( wfn, 'DIPOLE', 'QUADRUPOLE', 'MULLIKEN_CHARGES')
f=open( 'psi4out.xyz', 'w' )
f.write( "20  " )
f.write( str(ee) + "\n" )
f.write( MOL.save_string_xyz() )
f.close()
--------------------------------------------------------------------------

    Molecular point group: c1
  Charge       = 0
  Multiplicity = 1
  Basis Set: CC-PVTZ
  Basis Set:
  @DF-RHF Final Energy:  -383.81681393139490
    Total Energy =                       -383.8168139313949041
    Molecular point group: c1
  Basis Set: CC-PVTZ
  Basis Set:
  Basis Set: CC-PVTZ
  Basis Set:
  @DF-RHF Final Energy:  -383.92182788860970
    Total Energy =                       -383.9218278886094140
  Basis Set: CC-PVTZ
  Basis Set:
  Basis Set: CC-PVTZ
  Basis Set:
  @DF-RHF Final Energy:  -383.98556068145911
    Total Energy =                       -383.9855606814587645
  Basis Set: CC-PVTZ
  Basis Set:
  Basis Set: CC-PVTZ
  Basis Set:
  @DF-RHF Final Energy:  -384.01250066257188
    Total Energy =                       -384.0125006625715969
  Basis Set: CC-PVTZ
  Basis Set:
  @DF-RHF Final Energy:  -384.04818060024240
    Total Energy =                       -384.0481806002420626
  @DF-RHF Final Energy:  -384.06120992178802
    Total Energy =                       -384.0612099217884179
  @DF-RHF Final Energy:  -384.06660033522718
    Total Energy =                       -384.0666003352274629
  @DF-RHF Final Energy:  -384.06964998884166
    Total Energy =                       -384.0696499888414337
  @DF-RHF Final Energy:  -384.07103359369773
    Total Energy =                       -384.0710335936978481
  @DF-RHF Final Energy:  -384.07178645783966
    Total Energy =                       -384.0717864578402896
  @DF-RHF Final Energy:  -384.07227710803556
    Total Energy =                       -384.0722771080359053
  @DF-RHF Final Energy:  -384.07257586301836
    Total Energy =                       -384.0725758630184146
  @DF-RHF Final Energy:  -384.07271409967342
    Total Energy =                       -384.0727140996733624
  @DF-RHF Final Energy:  -384.07276655231738
    Total Energy =                       -384.0727665523173755
  @DF-RHF Final Energy:  -384.07279116222827
    Total Energy =                       -384.0727911622284410
  @DF-RHF Final Energy:  -384.07281506124264
    Total Energy =                       -384.0728150612428635
  Basis Set: CC-PVTZ
  Basis Set:
  @DF-RHF Final Energy:  -384.07283668372503
    Total Energy =                       -384.0728366837251997
  Basis Set: CC-PVTZ
  Basis Set:
  Basis Set: CC-PVTZ
  Basis Set:
  @DF-RHF Final Energy:  -384.07286403530139
    Total Energy =                       -384.0728640353014498
  Basis Set: CC-PVTZ
  Basis Set:
  Basis Set: CC-PVTZ
  Basis Set:
  @DF-RHF Final Energy:  -384.07286932104046
    Total Energy =                       -384.0728693210402298
  Basis Set: CC-PVTZ
  Basis Set:
  Charge       = 0
  Multiplicity = 1
  Basis Set: CC-PVTZ
  Basis Set:

    Orbital Energies (a.u.)
    -----------------------

    Doubly Occupied:

       1A    -20.591555     2A    -20.529352     3A    -11.369001
       4A    -11.288054     5A    -11.228902     6A    -11.218797
       7A    -11.206986     8A    -11.201820     9A     -1.463708
      10A     -1.365383    11A     -1.080513    12A     -1.025903
      13A     -0.977951    14A     -0.895365    15A     -0.810128
      16A     -0.746182    17A     -0.690583    18A     -0.681298
      19A     -0.672590    20A     -0.625659    21A     -0.605677
      22A     -0.589617    23A     -0.565448    24A     -0.559856
      25A     -0.539434    26A     -0.525869    27A     -0.517653
      28A     -0.476165    29A     -0.467900    30A     -0.463756
      31A     -0.443147    32A     -0.432774

  @DF-RHF Final Energy:  -384.07286997921170

   => Energetics <=

    Nuclear Repulsion Energy =            394.4219549584224183
    One-Electron Energy =               -1305.2756010323980718
    Two-Electron Energy =                 526.7807760947640645
    DFT Exchange-Correlation Energy =       0.0000000000000000
    Empirical Dispersion Energy =           0.0000000000000000
    PCM Polarization Energy =               0.0000000000000000
    EFP Energy =                            0.0000000000000000
    Total Energy =                       -384.0728699792115322
    Molecular point group: c1
  Basis Set: CC-PVTZ
  Basis Set:

  -Total Gradient:
     Atom            X                  Y                   Z
    ------   -----------------  -----------------  -----------------
       1       -0.000007903317     0.000008939550    -0.000151659946
       2        0.000343481660     0.000010838454     0.001167765352
       3        0.000022976147    -0.000005116821     0.000024568368
       4       -0.000706234097    -0.000220898637    -0.001562308363
       5       -0.000003829505    -0.000000173494    -0.000008129406
       6       -0.000005069214    -0.000000526304    -0.000000276584
       7       -0.000000086030     0.000005866604    -0.000006707010
       8        0.000598719153     0.001186517878    -0.000015482292
       9       -0.000047753469    -0.000007704747    -0.000008759822
      10       -0.000243013258    -0.000994280313     0.000494338766
      11       -0.000003479867     0.000009949739    -0.000000355653
      12        0.000053201830     0.000022242273    -0.000073266804
      13        0.000001527780    -0.000001672065    -0.000001895232
      14        0.000006346736    -0.000002278482     0.000008997145
      15       -0.000005094948    -0.000019482878     0.000004894920
      16       -0.000025379379     0.000003246789    -0.000001362835
      17        0.000021885734     0.000005529541     0.000127035999
      18       -0.000001329170    -0.000003618365     0.000004326831
      19        0.000000131693     0.000003871221    -0.000000681202
      20        0.000000901517    -0.000001249935    -0.000001042230

  **** Optimization is complete! (in 20 steps) ****
    Final optimized geometry and variables:
    Molecular point group: c1

    Geometry (in Angstrom), charge = 0, multiplicity = 1:

    O           -0.751071188819     1.220746966783     0.339036513091
    C           -1.414521972032     0.283501768985     0.624909286422
    C           -2.799844510853     0.384932434040     1.205875636926
    O           -1.068513783279    -0.979331633790     0.485095129735
    H           -2.825020041830    -0.101024910235     2.172626380820
    H           -3.074287085755     1.422642321226     1.304278618962
    H           -3.502802177534    -0.127917681786     0.562401373350
    C            0.179518254864    -1.507129055642     0.020202612307
    C            1.416974144697    -0.616676281878    -0.037783310974
    H           -0.022228089641    -1.939043839666    -0.951714000020
    H            0.363740657018    -2.323651326519     0.702530418448
    C            1.611292269658     0.155452433352    -1.340733521339
    H            2.258832348780    -1.294580146743     0.082760445994
    H            1.438551684296     0.052993996074     0.810351085197
    C            2.873521632054     1.010526495306    -1.322676411651
    H            1.670220592494    -0.554730807926    -2.162340400773
    H            0.753578132251     0.785613384741    -1.523903369598
    H            3.009191569244     1.525336813435    -2.266708498680
    H            3.758749230837     0.407688298621    -1.144864329087
    H            2.820274546983     1.760980790697    -0.541731239123

  Mulliken Charges: (a.u.)
   Center  Symbol    Alpha    Beta     Spin     Total
       1     O     4.20034  4.20034  0.00000 -0.40068
       2     C     2.80742  2.80742  0.00000  0.38516
       3     C     3.13300  3.13300  0.00000 -0.26600
       4     O     4.15677  4.15677  0.00000 -0.31354
       5     H     0.44672  0.44672  0.00000  0.10655
       6     H     0.43912  0.43912  0.00000  0.12176
       7     H     0.44604  0.44604  0.00000  0.10791
       8     C     2.97970  2.97970  0.00000  0.04059
       9     C     3.11231  3.11231  0.00000 -0.22463
      10     H     0.45696  0.45696  0.00000  0.08609
      11     H     0.44697  0.44697  0.00000  0.10605
      12     C     3.07882  3.07882  0.00000 -0.15763
      13     H     0.44626  0.44626  0.00000  0.10748
      14     H     0.43891  0.43891  0.00000  0.12217
      15     C     3.15254  3.15254  0.00000 -0.30508
      16     H     0.45826  0.45826  0.00000  0.08348
      17     H     0.44213  0.44213  0.00000  0.11574
      18     H     0.44884  0.44884  0.00000  0.10231
      19     H     0.45853  0.45853  0.00000  0.08295
      20     H     0.45034  0.45034  0.00000  0.09932

   Total alpha = 32.00000, Total beta = 32.00000, Total charge =  0.00000

*** Psi4 exiting successfully. Buy a developer a beer!
