  ==> Input File <==

--------------------------------------------------------------------------
set {
	reference rhf
	basis cc-pvtz
}

set_num_threads( 4 )
memory 2 gb

molecule MOL {
0 1

H	 1.827839	 2.015796	 -1.016389
O	 0.921156	 1.900082	 -0.801490
C	 0.700177	 0.619554	 -0.266242
C	 -0.713111	 0.588314	 0.266177
H	 1.396638	 0.416670	 0.541660
H	 0.819815	 -0.145858	 -1.028612
O	 -1.421673	 -0.521378	 -0.196983
H	 -1.244794	 1.469161	 -0.069059
H	 -0.685100	 0.604721	 1.352683
H	 -0.933408	 -1.297830	 0.014544

	symmetry c1
}
set optking {
	frozen_dihedral = ("
		5 3 4 7
	")
}

ee = optimize('scf')
oeprop('DIPOLE', 'QUADRUPOLE', 'MULLIKEN_CHARGES')
f=open( 'psi4out.xyz', 'w' )
f.write( "10  " )
f.write( str(ee) + "\n" )
f.write( MOL.save_string_xyz() )
f.close()
--------------------------------------------------------------------------

    Molecular point group: c1
  Charge       = 0
  Multiplicity = 1
  Basis Set: CC-PVTZ
  Basis Set:
  @DF-RHF Final Energy:  -229.01788605819340
    Total Energy =                       -229.0178860581934259
    Molecular point group: c1
  Basis Set: CC-PVTZ
  Basis Set:
  Basis Set: CC-PVTZ
  Basis Set:
  @DF-RHF Final Energy:  -229.01897065652088
    Total Energy =                       -229.0189706565210486
  Basis Set: CC-PVTZ
  Basis Set:
  Basis Set: CC-PVTZ
  Basis Set:
  @DF-RHF Final Energy:  -229.01935760281776
    Total Energy =                       -229.0193576028178200
  Basis Set: CC-PVTZ
  Basis Set:
  Basis Set: CC-PVTZ
  Basis Set:
  @DF-RHF Final Energy:  -229.01943944008511
    Total Energy =                       -229.0194394400852502
  Basis Set: CC-PVTZ
  Basis Set:
  Basis Set: CC-PVTZ
  Basis Set:
  @DF-RHF Final Energy:  -229.01944635437374
    Total Energy =                       -229.0194463543736560
  Basis Set: CC-PVTZ
  Basis Set:
  Charge       = 0
  Multiplicity = 1
  Basis Set: CC-PVTZ
  Basis Set:

    Orbital Energies (a.u.)
    -----------------------

    Doubly Occupied:

       1A    -20.552234     2A    -20.550905     3A    -11.270471
       4A    -11.267313     5A     -1.375769     6A     -1.362470
       7A     -0.996562     8A     -0.847753     9A     -0.712694
      10A     -0.704137    11A     -0.637545    12A     -0.598453
      13A     -0.585996    14A     -0.530749    15A     -0.490333
      16A     -0.444733    17A     -0.441446

  @DF-RHF Final Energy:  -229.01944658699230

   => Energetics <=

    Nuclear Repulsion Energy =            131.2707219156190206
    One-Electron Energy =                -573.8412111007769454
    Two-Electron Energy =                 213.5510425981656795
    DFT Exchange-Correlation Energy =       0.0000000000000000
    Empirical Dispersion Energy =           0.0000000000000000
    PCM Polarization Energy =               0.0000000000000000
    EFP Energy =                            0.0000000000000000
    Total Energy =                       -229.0194465869922738
    Molecular point group: c1
  Basis Set: CC-PVTZ
  Basis Set:

  -Total Gradient:
     Atom            X                  Y                   Z
    ------   -----------------  -----------------  -----------------
       1       -0.000008403622    -0.000011082700     0.000003429264
       2        0.000004008144     0.000026055204     0.000003338201
       3       -0.000370550895    -0.003496936322    -0.001734106104
       4        0.001110358169    -0.001180947248     0.002926757074
       5        0.000075686483     0.003188043890     0.000775274309
       6        0.000010252409    -0.000004131392     0.000005940647
       7       -0.000807575611     0.001488543288    -0.001987412278
       8       -0.000012820037    -0.000021767121    -0.000007702726
       9       -0.000010437160    -0.000001842708     0.000009051866
      10        0.000009482119     0.000014065110     0.000005429747

  **** Optimization is complete! (in 6 steps) ****
    Final optimized geometry and variables:
    Molecular point group: c1

    Geometry (in Angstrom), charge = 0, multiplicity = 1:

    H            1.930960637225     1.410063670593    -0.761479634259
    O            1.039246228755     1.306957517380    -0.484720463932
    C            0.828166730362     0.001285852399    -0.012325956169
    C           -0.605682102858    -0.087185953692     0.515773262364
    H            1.544503830272    -0.212953705841     0.776760821019
    H            0.949667000120    -0.724854481992    -0.808651112922
    O           -1.309242808037    -1.192256528894     0.016999640826
    H           -1.133155794751     0.789283941517     0.171653957334
    H           -0.621435173655    -0.079389077701     1.600792587603
    H           -1.034585198760    -1.979740480300     0.449531434419

  Mulliken Charges: (a.u.)
   Center  Symbol    Alpha    Beta     Spin     Total
       1     H     0.39393  0.39393  0.00000  0.21214
       2     O     4.19766  4.19766  0.00000 -0.39532
       3     C     2.96974  2.96974  0.00000  0.06051
       4     C     2.97524  2.97524  0.00000  0.04952
       5     H     0.47850  0.47850  0.00000  0.04301
       6     H     0.47102  0.47102  0.00000  0.05797
       7     O     4.19907  4.19907  0.00000 -0.39814
       8     H     0.45004  0.45004  0.00000  0.09992
       9     H     0.46908  0.46908  0.00000  0.06183
      10     H     0.39572  0.39572  0.00000  0.20855

   Total alpha = 17.00000, Total beta = 17.00000, Total charge =  0.00000
