                              Psi4 1.0.54 Driver

  ==> Input File <==

--------------------------------------------------------------------------
set {
	reference rhf
	basis cc-pvtz
}

set_num_threads( 4 )
memory 2 gb

molecule MOL {
0 1

H	 -0.890850	 -1.259345	 -0.221379
N	 -1.173824	 -0.310545	 -0.096857
C	 -0.022588	 0.563366	 0.065815
H	 -1.705256	 -0.053007	 -0.902379
C	 1.270420	 -0.230572	 -0.014245
H	 -0.045354	 1.293678	 -0.735129
H	 -0.043155	 1.123061	 1.001180
H	 1.336273	 -0.754933	 -0.959364
H	 2.130728	 0.422015	 0.082222
H	 1.323344	 -0.967006	 0.781773

	symmetry c1
}
set optking {
	frozen_dihedral = ("
		1 2 3 6
	")
}

ee,wfn = optimize('scf', return_wfn=True)
oeprop( wfn, 'DIPOLE', 'QUADRUPOLE', 'MULLIKEN_CHARGES')
f=open( 'psi4out.xyz', 'w' )
f.write( "10  " )
f.write( str(ee) + "\n" )
f.write( MOL.save_string_xyz() )
f.close()
--------------------------------------------------------------------------

    Molecular point group: c1
  Charge       = 0
  Multiplicity = 1
  Basis Set: CC-PVTZ
  Basis Set:
  @DF-RHF Final Energy:  -134.29971372084981
    Total Energy =                       -134.2997137208497236
    Molecular point group: c1
  Basis Set: CC-PVTZ
  Basis Set:
  Basis Set: CC-PVTZ
  Basis Set:
  @DF-RHF Final Energy:  -134.26381945860268
    Total Energy =                       -134.2638194586026827
  Basis Set: CC-PVTZ
  Basis Set:
  Basis Set: CC-PVTZ
  Basis Set:
  @DF-RHF Final Energy:  -134.29976517963428
    Total Energy =                       -134.2997651796343916
  Basis Set: CC-PVTZ
  Basis Set:
  Basis Set: CC-PVTZ
  Basis Set:
  @DF-RHF Final Energy:  -134.30085480353529
    Total Energy =                       -134.3008548035352874
  Basis Set: CC-PVTZ
  Basis Set:
  Basis Set: CC-PVTZ
  Basis Set:
  @DF-RHF Final Energy:  -134.30089247235597
    Total Energy =                       -134.3008924723559403
  Basis Set: CC-PVTZ
  Basis Set:
  Basis Set: CC-PVTZ
  Basis Set:
  @DF-RHF Final Energy:  -134.30089548862287
    Total Energy =                       -134.3008954886229276
  Basis Set: CC-PVTZ
  Basis Set:
  Charge       = 0
  Multiplicity = 1
  Basis Set: CC-PVTZ
  Basis Set:

    Orbital Energies (a.u.)
    -----------------------

    Doubly Occupied:

       1A    -15.523628     2A    -11.240893     3A    -11.211063
       4A     -1.174802     5A     -0.990391     6A     -0.830853
       7A     -0.665183     8A     -0.613740     9A     -0.595627
      10A     -0.531568    11A     -0.506113    12A     -0.491015
      13A     -0.378825

  @DF-RHF Final Energy:  -134.30089570188534

   => Energetics <=

    Nuclear Repulsion Energy =             83.4039654242879465
    One-Electron Energy =                -345.9023152076608767
    Two-Electron Energy =                 128.1974540814875070
    DFT Exchange-Correlation Energy =       0.0000000000000000
    Empirical Dispersion Energy =           0.0000000000000000
    PCM Polarization Energy =               0.0000000000000000
    EFP Energy =                            0.0000000000000000
    Total Energy =                       -134.3008957018854233
    Molecular point group: c1
  Basis Set: CC-PVTZ
  Basis Set:

  -Total Gradient:
     Atom            X                  Y                   Z
    ------   -----------------  -----------------  -----------------
       1        0.000043889529    -0.000174355277     0.000317359415
       2       -0.000117281348     0.000263293998    -0.000313523069
       3        0.000270106217    -0.000190594720    -0.000235421674
       4       -0.000009539884     0.000003996557    -0.000019951068
       5       -0.000002918372    -0.000000141409    -0.000008408305
       6       -0.000185689994     0.000090149292     0.000273006165
       7       -0.000016393356     0.000003561503    -0.000005702087
       8        0.000007784527    -0.000007247191     0.000003797763
       9        0.000009495930     0.000000191406    -0.000003801552
      10        0.000000546751     0.000011145841    -0.000007355586

  **** Optimization is complete! (in 7 steps) ****
    Final optimized geometry and variables:
    Molecular point group: c1

    Geometry (in Angstrom), charge = 0, multiplicity = 1:

    H           -0.911024029184    -1.164226168483    -0.564908351083
    N           -1.190836435385    -0.346139350647    -0.069995860520
    C           -0.049356846469     0.493701256069     0.282487093540
    H           -1.854604250915     0.137694271384    -0.632069919004
    C            1.279752365128    -0.113925201800    -0.138897009867
    H           -0.152574511352     1.476296973592    -0.167046430158
    H           -0.039351986841     0.648564388245     1.356728890755
    H            1.337984657153    -0.215849891700    -1.217583799067
    H            2.108759660495     0.503223527107     0.187571377561
    H            1.406600352324    -1.098250136956     0.300152707411

  Mulliken Charges: (a.u.)
   Center  Symbol    Alpha    Beta     Spin     Total
       1     H     0.42859  0.42859  0.00000  0.14282
       2     N     3.69471  3.69471  0.00000 -0.38941
       3     C     3.01230  3.01230  0.00000 -0.02460
       4     H     0.42696  0.42696  0.00000  0.14608
       5     C     3.14652  3.14652  0.00000 -0.29305
       6     H     0.46397  0.46397  0.00000  0.07206
       7     H     0.46418  0.46418  0.00000  0.07164
       8     H     0.45730  0.45730  0.00000  0.08540
       9     H     0.45240  0.45240  0.00000  0.09519
      10     H     0.45306  0.45306  0.00000  0.09388

   Total alpha = 13.00000, Total beta = 13.00000, Total charge =  0.00000

*** Psi4 exiting successfully. Buy a developer a beer!
