  ==> Input File <==

--------------------------------------------------------------------------
set {
	reference rhf
	basis 6-31G*
}

set_num_threads( 4 )
memory 2 gb

molecule MOL {
0 1

H	 2.185878	 2.473464	 2.912061
N	 1.347157	 1.926784	 2.876937
C	 0.969830	 1.648677	 1.498603
H	 0.633774	 2.461538	 3.335143
C	 -0.250816	 0.735762	 1.449966
H	 1.808678	 1.151415	 1.021190
H	 0.769861	 2.552526	 0.917682
C	 -0.679275	 0.379305	 0.025956
H	 -0.026841	 -0.166553	 2.011658
H	 -1.079302	 1.221691	 1.964574
C	 -1.903357	 -0.536963	 -0.023547
H	 0.149276	 -0.103705	 -0.489847
H	 -0.893089	 1.291280	 -0.529411
C	 -3.225172	 0.228290	 0.028445
H	 -1.867824	 -1.134999	 -0.931459
H	 -1.860449	 -1.239604	 0.805977
H	 -3.313397	 0.915643	 -0.808262
H	 -4.073500	 -0.448134	 -0.008893
H	 -3.306061	 0.809945	 0.942516

	symmetry c1
}
set optking {
	frozen_dihedral = ("
		12 8 11 15
	")
}

ee = optimize('scf')
oeprop('DIPOLE', 'QUADRUPOLE', 'MULLIKEN_CHARGES')
f=open( 'psi4out.xyz', 'w' )
f.write( "19  " )
f.write( str(ee) + "\n" )
f.write( MOL.save_string_xyz() )
f.close()
--------------------------------------------------------------------------

    Molecular point group: c1
  Charge       = 0
  Multiplicity = 1
  Basis Set: 6-31G*
  Basis Set:
  @DF-RHF Final Energy:  -251.34878267648364
    Total Energy =                       -251.3487826764836086
    Molecular point group: c1
  Basis Set: 6-31G*
  Basis Set:
  Basis Set: 6-31G*
  Basis Set:
  @DF-RHF Final Energy:  -251.34895292556948
    Total Energy =                       -251.3489529255696198
  Basis Set: 6-31G*
  Basis Set:
  Basis Set: 6-31G*
  Basis Set:
  @DF-RHF Final Energy:  -251.34900826306975
    Total Energy =                       -251.3490082630697771
  Basis Set: 6-31G*
  Basis Set:
  Charge       = 0
  Multiplicity = 1
  Basis Set: 6-31G*
  Basis Set:

    Orbital Energies (a.u.)
    -----------------------

    Doubly Occupied:

       1A    -15.532542     2A    -11.239744     3A    -11.213957
       4A    -11.212671     5A    -11.209599     6A    -11.207915
       7A     -1.176628     8A     -1.072019     9A     -0.996273
      10A     -0.902380    11A     -0.820019    12A     -0.782465
      13A     -0.663755    14A     -0.635177    15A     -0.611713
      16A     -0.602832    17A     -0.562461    18A     -0.555795
      19A     -0.519297    20A     -0.496924    21A     -0.493021
      22A     -0.462388    23A     -0.453807    24A     -0.450494
      25A     -0.381007

  @DF-RHF Final Energy:  -251.34900915934574

   => Energetics <=

    Nuclear Repulsion Energy =            248.0991901153625179
    One-Electron Energy =                -830.3866311643450899
    Two-Electron Energy =                 330.9384318896367745
    DFT Exchange-Correlation Energy =       0.0000000000000000
    Empirical Dispersion Energy =           0.0000000000000000
    PCM Polarization Energy =               0.0000000000000000
    EFP Energy =                            0.0000000000000000
    Total Energy =                       -251.3490091593458260
    Molecular point group: c1
  Basis Set: 6-31G*
  Basis Set:

  -Total Gradient:
     Atom            X                  Y                   Z
    ------   -----------------  -----------------  -----------------
       1       -0.000008229275     0.000014086393     0.000003797680
       2       -0.000023424588     0.000039746979     0.000009633827
       3       -0.000002893789    -0.000056024130    -0.000048033109
       4        0.000005561262     0.000006822878     0.000018108570
       5       -0.000031694723    -0.000075371936     0.000039454427
       6        0.000004708049    -0.000001284328     0.000005219015
       7        0.000010155649    -0.000002137434    -0.000011982454
       8        0.001250116391    -0.002046925665     0.003435000872
       9        0.000057748635    -0.000003322194    -0.000015531726
      10       -0.000007189550    -0.000022361579    -0.000010962223
      11       -0.001982952245     0.002945359025    -0.002336148848
      12       -0.000816458968     0.001243799650    -0.002452533891
      13       -0.000012843206     0.000013200308    -0.000058794100
      14        0.000026568179     0.000067550989     0.000011488119
      15        0.001454645469    -0.002075029104     0.001410051055
      16        0.000035659259    -0.000005971807     0.000010379360
      17        0.000006603808    -0.000000969802    -0.000007485415
      18        0.000031867464    -0.000032731217     0.000004458262
      19        0.000002052183    -0.000008437024    -0.000006119420

  **** Optimization is complete! (in 4 steps) ****
    Final optimized geometry and variables:
    Molecular point group: c1

    Geometry (in Angstrom), charge = 0, multiplicity = 1:

    H            2.784923923461     1.738615123165     1.904354279927
    N            1.955531428256     1.177628791705     1.873560612399
    C            1.574657351760     0.895011337428     0.497018839206
    H            1.235977646690     1.699600057068     2.336895026590
    C            0.370210080884    -0.039398829986     0.454034864391
    H            2.419210520597     0.413633686369     0.013202903820
    H            1.354911571745     1.796133835433    -0.080822687816
    C           -0.053607555460    -0.404754903115    -0.969452958513
    H            0.613638127879    -0.938727187294     1.012121423579
    H           -0.461372912394     0.432044031461     0.975896753592
    C           -1.304760100882    -1.294572526707    -1.039065238209
    H            0.769961072430    -0.899280766910    -1.479500398159
    H           -0.237273771110     0.506413393475    -1.537884869404
    C           -2.620860335930    -0.520309896865    -0.969819753541
    H           -1.276668164216    -1.886222939005    -1.950142635618
    H           -1.271086272462    -2.017526848825    -0.226345119199
    H           -2.715025548584     0.163531396479    -1.808697337277
    H           -3.472034564941    -1.193860373344    -0.994755422647
    H           -2.693217589658     0.064469516966    -0.057703096814

  Mulliken Charges: (a.u.)
   Center  Symbol    Alpha    Beta     Spin     Total
       1     H     0.33248  0.33248  0.00000  0.33504
       2     N     3.92187  3.92187  0.00000 -0.84375
       3     C     3.06037  3.06037  0.00000 -0.12073
       4     H     0.33540  0.33540  0.00000  0.32920
       5     C     3.15222  3.15222  0.00000 -0.30444
       6     H     0.42085  0.42085  0.00000  0.15831
       7     H     0.43462  0.43462  0.00000  0.13076
       8     C     3.15824  3.15824  0.00000 -0.31649
       9     H     0.41276  0.41276  0.00000  0.17449
      10     H     0.42695  0.42695  0.00000  0.14611
      11     C     3.15377  3.15377  0.00000 -0.30755
      12     H     0.42092  0.42092  0.00000  0.15815
      13     H     0.42478  0.42478  0.00000  0.15044
      14     C     3.23978  3.23978  0.00000 -0.47956
      15     H     0.42049  0.42049  0.00000  0.15902
      16     H     0.42166  0.42166  0.00000  0.15668
      17     H     0.42201  0.42201  0.00000  0.15597
      18     H     0.41941  0.41941  0.00000  0.16118
      19     H     0.42142  0.42142  0.00000  0.15715

   Total alpha = 25.00000, Total beta = 25.00000, Total charge =  0.00000
