  ==> Input File <==

--------------------------------------------------------------------------
set {
	reference rhf
	basis 6-31G*
}

set_num_threads( 1 )
memory 2 gb

molecule MOL {
0 1

H	 -3.420663	 1.227371	 -1.044276
O	 -3.452007	 0.283848	 -0.965577
C	 -3.181085	 -0.079926	 0.364119
C	 -1.765924	 0.277073	 0.805136
H	 -3.327791	 -1.152017	 0.410903
H	 -3.905698	 0.375695	 1.036898
C	 -0.677594	 -0.417312	 -0.014550
H	 -1.637766	 1.358238	 0.744969
H	 -1.659588	 0.017670	 1.857098
C	 0.738335	 -0.034840	 0.421385
H	 -0.814977	 -0.178223	 -1.064632
H	 -0.802730	 -1.495410	 0.071702
C	 1.822265	 -0.738362	 -0.399735
H	 0.853533	 1.043532	 0.342250
H	 0.871597	 -0.279636	 1.474438
C	 3.235529	 -0.641106	 0.186251
H	 1.825283	 -0.335524	 -1.411371
H	 1.559660	 -1.790026	 -0.493852
C	 3.818173	 0.773239	 0.209925
H	 3.894725	 -1.279302	 -0.397235
H	 3.235230	 -1.048464	 1.195341
H	 3.819504	 1.211154	 -0.784744
H	 4.843770	 0.761745	 0.566095
H	 3.255719	 1.433763	 0.861475

	symmetry c1
}
set optking {
	frozen_dihedral = ("
		20 16 13 17,
		13 10 7 11,
		11 7 4 3,
		1 2 3 5,
		7 4 3 2
	")
}

ee = energy('scf')
oeprop('DIPOLE', 'QUADRUPOLE', 'MULLIKEN_CHARGES')
f=open( 'psi4out.xyz', 'w' )
f.write( "24  " )
f.write( str(ee) + "\n" )
f.write( MOL.save_string_xyz() )
f.close()
--------------------------------------------------------------------------

    Molecular point group: c1

    Geometry (in Angstrom), charge = 0, multiplicity = 1:

       Center              X                  Y                   Z               Mass
    ------------   -----------------  -----------------  -----------------  -----------------
           H         -3.432020672962     1.278396873454    -1.102986250271     1.007825032070
           O         -3.463364672962     0.334873873454    -1.024287250271    15.994914619560
           C         -3.192442672962    -0.028900126546     0.305408749729    12.000000000000
           C         -1.777281672962     0.328098873454     0.746425749729    12.000000000000
           H         -3.339148672962    -1.100991126546     0.352192749729     1.007825032070
           H         -3.917055672962     0.426720873454     0.978187749729     1.007825032070
           C         -0.688951672962    -0.366286126546    -0.073260250271    12.000000000000
           H         -1.649123672962     1.409263873454     0.686258749729     1.007825032070
           H         -1.670945672962     0.068695873454     1.798387749729     1.007825032070
           C          0.726977327038     0.016185873454     0.362674749729    12.000000000000
           H         -0.826334672962    -0.127197126546    -1.123342250271     1.007825032070
           H         -0.814087672962    -1.444384126546     0.012991749729     1.007825032070
           C          1.810907327038    -0.687336126546    -0.458445250271    12.000000000000
           H          0.842175327038     1.094557873454     0.283539749729     1.007825032070
           H          0.860239327038    -0.228610126546     1.415727749729     1.007825032070
           C          3.224171327038    -0.590080126546     0.127540749729    12.000000000000
           H          1.813925327038    -0.284498126546    -1.470081250271     1.007825032070
           H          1.548302327038    -1.739000126546    -0.552562250271     1.007825032070
           C          3.806815327038     0.824264873454     0.151214749729    12.000000000000
           H          3.883367327038    -1.228276126546    -0.455945250271     1.007825032070
           H          3.223872327038    -0.997438126546     1.136630749729     1.007825032070
           H          3.808146327038     1.262179873454    -0.843454250271     1.007825032070
           H          4.832412327038     0.812770873454     0.507384749729     1.007825032070
           H          3.244361327038     1.484788873454     0.802764749729     1.007825032070

  Charge       = 0
  Multiplicity = 1
  Basis Set: 6-31G*
  Basis Set:

    Orbital Energies (a.u.)
    -----------------------

    Doubly Occupied:

       1A    -20.553569     2A    -11.267729     3A    -11.217463
       4A    -11.214050     5A    -11.212437     6A    -11.211475
       7A    -11.211208     8A    -11.207359     9A     -1.360163
      10A     -1.088576    11A     -1.048297    12A     -0.985679
      13A     -0.914874    14A     -0.850432    15A     -0.801044
      16A     -0.776180    17A     -0.679218    18A     -0.653271
      19A     -0.625831    20A     -0.619349    21A     -0.595369
      22A     -0.586805    23A     -0.555619    24A     -0.542186
      25A     -0.515487    26A     -0.507541    27A     -0.500152
      28A     -0.473004    29A     -0.467750    30A     -0.459642
      31A     -0.454194    32A     -0.451249    33A     -0.419064

  @DF-RHF Final Energy:  -349.24730396703166

   => Energetics <=

    Nuclear Repulsion Energy =            384.2368826532495518
    One-Electron Energy =               -1234.9160809652089483
    Two-Electron Energy =                 501.4318943449288213
    DFT Exchange-Correlation Energy =       0.0000000000000000
    Empirical Dispersion Energy =           0.0000000000000000
    PCM Polarization Energy =               0.0000000000000000
    EFP Energy =                            0.0000000000000000
    Total Energy =                       -349.2473039670306321

  Mulliken Charges: (a.u.)
   Center  Symbol    Alpha    Beta     Spin     Total
       1     H     0.28339  0.28339  0.00000  0.43322
       2     O     4.36830  4.36830  0.00000 -0.73660
       3     C     2.99617  2.99617  0.00000  0.00766
       4     C     3.16906  3.16906  0.00000 -0.33812
       5     H     0.41634  0.41634  0.00000  0.16733
       6     H     0.42816  0.42816  0.00000  0.14367
       7     C     3.15213  3.15213  0.00000 -0.30426
       8     H     0.42832  0.42832  0.00000  0.14336
       9     H     0.42234  0.42234  0.00000  0.15532
      10     C     3.15346  3.15346  0.00000 -0.30692
      11     H     0.41203  0.41203  0.00000  0.17595
      12     H     0.42350  0.42350  0.00000  0.15300
      13     C     3.15245  3.15245  0.00000 -0.30491
      14     H     0.42286  0.42286  0.00000  0.15428
      15     H     0.42549  0.42549  0.00000  0.14902
      16     C     3.15245  3.15245  0.00000 -0.30491
      17     H     0.42337  0.42337  0.00000  0.15327
      18     H     0.42185  0.42185  0.00000  0.15630
      19     C     3.24096  3.24096  0.00000 -0.48192
      20     H     0.42125  0.42125  0.00000  0.15749
      21     H     0.42370  0.42370  0.00000  0.15259
      22     H     0.42237  0.42237  0.00000  0.15525
      23     H     0.41965  0.41965  0.00000  0.16071
      24     H     0.42039  0.42039  0.00000  0.15923

   Total alpha = 33.00000, Total beta = 33.00000, Total charge =  0.00000
