  ==> Input File <==

--------------------------------------------------------------------------
set {
	reference rhf
	basis 6-31G*
}

set_num_threads( 4 )
memory 2 gb

molecule MOL {
0 1

H	 2.090573	 1.245955	 0.983670
O	 1.213530	 0.878465	 1.034009
C	 1.050492	 0.053836	 0.000068
C	 -0.318135	 -0.576402	 0.000164
O	 1.907238	 -0.132515	 -0.801341
C	 -1.454360	 0.441875	 -0.000474
H	 -0.374042	 -1.230163	 -0.866135
H	 -0.374274	 -1.229227	 0.867154
C	 -2.826123	 -0.230780	 0.000056
H	 -1.357605	 1.085198	 -0.868380
H	 -1.357504	 1.086451	 0.866496
H	 -2.959731	 -0.858053	 -0.876869
H	 -3.619374	 0.509403	 -0.000080
H	 -2.959371	 -0.857318	 0.877556

	symmetry c1
}
set optking {
	frozen_dihedral = ("
		2 3 4 7
	")
}

ee = optimize('scf')
oeprop('DIPOLE', 'QUADRUPOLE', 'MULLIKEN_CHARGES')
f=open( 'psi4out.xyz', 'w' )
f.write( "14  " )
f.write( str(ee) + "\n" )
f.write( MOL.save_string_xyz() )
f.close()
--------------------------------------------------------------------------

    Molecular point group: c1
  Charge       = 0
  Multiplicity = 1
  Basis Set: 6-31G*
  Basis Set:
  @DF-RHF Final Energy:  -305.87909515241802
    Total Energy =                       -305.8790951524181310
    Molecular point group: c1
  Basis Set: 6-31G*
  Basis Set:
  Basis Set: 6-31G*
  Basis Set:
  @DF-RHF Final Energy:  -305.87927374567585
    Total Energy =                       -305.8792737456758459
  Basis Set: 6-31G*
  Basis Set:
  Basis Set: 6-31G*
  Basis Set:
  @DF-RHF Final Energy:  -305.87881624320931
    Total Energy =                       -305.8788162432094282
  Basis Set: 6-31G*
  Basis Set:
  Basis Set: 6-31G*
  Basis Set:
  @DF-RHF Final Energy:  -305.87940435396752
    Total Energy =                       -305.8794043539678000
  Basis Set: 6-31G*
  Basis Set:
  Basis Set: 6-31G*
  Basis Set:
  @DF-RHF Final Energy:  -305.87940625549709
    Total Energy =                       -305.8794062554972015
  Basis Set: 6-31G*
  Basis Set:
  Charge       = 0
  Multiplicity = 1
  Basis Set: 6-31G*
  Basis Set:

    Orbital Energies (a.u.)
    -----------------------

    Doubly Occupied:

       1A    -20.613475     2A    -20.550360     3A    -11.380497
       4A    -11.240158     5A    -11.234098     6A    -11.220746
       7A     -1.474548     8A     -1.364772     9A     -1.086221
      10A     -0.979367    11A     -0.848435    12A     -0.813650
      13A     -0.701070    14A     -0.684861    15A     -0.649376
      16A     -0.628129    17A     -0.592771    18A     -0.564946
      19A     -0.552827    20A     -0.519870    21A     -0.499380
      22A     -0.487974    23A     -0.473519    24A     -0.437758

  @DF-RHF Final Energy:  -305.87940667142323

   => Energetics <=

    Nuclear Repulsion Energy =            240.4317155249864015
    One-Electron Energy =                -893.4246287595731246
    Two-Electron Energy =                 347.1135065631634689
    DFT Exchange-Correlation Energy =       0.0000000000000000
    Empirical Dispersion Energy =           0.0000000000000000
    PCM Polarization Energy =               0.0000000000000000
    EFP Energy =                            0.0000000000000000
    Total Energy =                       -305.8794066714232258
    Molecular point group: c1
  Basis Set: 6-31G*
  Basis Set:

  -Total Gradient:
     Atom            X                  Y                   Z
    ------   -----------------  -----------------  -----------------
       1        0.000002089445    -0.000003752330    -0.000000210668
       2       -0.000146573802     0.000295317283    -0.000202479676
       3        0.000179881492    -0.000351597011     0.000204115888
       4        0.000122188414    -0.000244623848     0.000240748883
       5       -0.000006568813     0.000015151301     0.000006620005
       6        0.000019669284    -0.000013670910    -0.000006171012
       7       -0.000156857583     0.000320916990    -0.000226610731
       8        0.000002630167    -0.000009529216    -0.000024426902
       9       -0.000015360714    -0.000002777474    -0.000000710952
      10        0.000001991474    -0.000009136170     0.000016827694
      11        0.000002618957     0.000006836346    -0.000002167141
      12       -0.000003795765    -0.000002024705    -0.000002469006
      13       -0.000004358871    -0.000000696979     0.000000182462
      14        0.000002446303    -0.000000413276    -0.000003248844

  **** Optimization is complete! (in 6 steps) ****
    Final optimized geometry and variables:
    Molecular point group: c1

    Geometry (in Angstrom), charge = 0, multiplicity = 1:

    H            2.159777174196     1.151547242248     0.906126919497
    O            1.282030322765     0.789235329035     0.977822397420
    C            1.090655453540    -0.034708040180    -0.052582820897
    C           -0.275736348052    -0.668816669564    -0.036378004642
    O            1.930614197739    -0.224434840326    -0.871062044651
    C           -1.419567527895     0.354501565012    -0.037032026234
    H           -0.335671978606    -1.314057088254    -0.902978397191
    H           -0.341405466866    -1.289414137221     0.853194656476
    C           -2.787964919358    -0.323963713975    -0.064967068509
    H           -1.319152640192     1.003883125460    -0.902689149008
    H           -1.338624117871     0.986237216479     0.840046453547
    H           -2.904478427396    -0.940383457533    -0.951335702007
    H           -3.584557850534     0.412682641963    -0.066530035484
    H           -2.927620741403    -0.961149931562     0.803528037894

  Mulliken Charges: (a.u.)
   Center  Symbol    Alpha    Beta     Spin     Total
       1     H     0.26742  0.26742  0.00000  0.46517
       2     O     4.34739  4.34739  0.00000 -0.69478
       3     C     2.63011  2.63011  0.00000  0.73977
       4     C     3.20115  3.20115  0.00000 -0.40230
       5     O     4.27903  4.27903  0.00000 -0.55806
       6     C     3.16334  3.16334  0.00000 -0.32668
       7     H     0.39690  0.39690  0.00000  0.20619
       8     H     0.40209  0.40209  0.00000  0.19583
       9     C     3.24166  3.24166  0.00000 -0.48332
      10     H     0.41374  0.41374  0.00000  0.17252
      11     H     0.40535  0.40535  0.00000  0.18930
      12     H     0.41819  0.41819  0.00000  0.16362
      13     H     0.41448  0.41448  0.00000  0.17103
      14     H     0.41915  0.41915  0.00000  0.16171

   Total alpha = 24.00000, Total beta = 24.00000, Total charge =  0.00000
