                              Psi4 1.0.54 Driver

  ==> Input File <==

--------------------------------------------------------------------------
set {
	reference rhf
	basis cc-pvtz
}

set_num_threads( 4 )
memory 2 gb

molecule MOL {
0 1

H	 -3.258660	 -0.290394	 1.471450
C	 -3.307964	 -0.275695	 0.374072
C	 -2.653809	 0.914422	 -0.273689
O	 -3.855140	 -1.148880	 -0.205112
C	 -2.777264	 2.188999	 0.566483
H	 -1.619548	 0.669988	 -0.478363
H	 -3.156729	 1.064456	 -1.226509
C	 -1.987266	 2.140914	 1.872536
H	 -2.435805	 3.027604	 -0.030582
H	 -3.826241	 2.378549	 0.780752
C	 -2.111162	 3.421754	 2.693438
H	 -0.940370	 1.955585	 1.647218
H	 -2.318849	 1.297363	 2.472453
C	 -1.310324	 3.375349	 3.993343
H	 -1.786736	 4.261176	 2.086425
H	 -3.159002	 3.599087	 2.925565
C	 -1.468569	 4.605007	 4.889333
H	 -0.257106	 3.235638	 3.760972
H	 -1.614180	 2.497578	 4.556809
C	 -0.902906	 5.897508	 4.305764
H	 -0.973775	 4.405126	 5.834647
H	 -2.520717	 4.745219	 5.123064
H	 0.147313	 5.784976	 4.056019
H	 -1.425934	 6.200531	 3.406707
H	 -0.986301	 6.709553	 5.018921

	symmetry c1
}
set optking {
	frozen_dihedral = ("
		6 3 2 4
	")
}

ee,wfn = optimize('scf', return_wfn=True)
oeprop( wfn, 'DIPOLE', 'QUADRUPOLE', 'MULLIKEN_CHARGES')
f=open( 'psi4out.xyz', 'w' )
f.write( "25  " )
f.write( str(ee) + "\n" )
f.write( MOL.save_string_xyz() )
f.close()
--------------------------------------------------------------------------

    Molecular point group: c1
  Charge       = 0
  Multiplicity = 1
  Basis Set: CC-PVTZ
  Basis Set:
  @DF-RHF Final Energy:  -387.25706396520565
    Total Energy =                       -387.2570639652054751
    Molecular point group: c1
  Basis Set: CC-PVTZ
  Basis Set:
  Basis Set: CC-PVTZ
  Basis Set:
  @DF-RHF Final Energy:  -387.25797884135068
    Total Energy =                       -387.2579788413511324
  Basis Set: CC-PVTZ
  Basis Set:
  Basis Set: CC-PVTZ
  Basis Set:
  @DF-RHF Final Energy:  -387.25826313423551
    Total Energy =                       -387.2582631342356763
  Basis Set: CC-PVTZ
  Basis Set:
  Basis Set: CC-PVTZ
  Basis Set:
  @DF-RHF Final Energy:  -387.25824332787329
    Total Energy =                       -387.2582433278735152
  Basis Set: CC-PVTZ
  Basis Set:
  Basis Set: CC-PVTZ
  Basis Set:
  @DF-RHF Final Energy:  -387.25834246928997
    Total Energy =                       -387.2583424692900280
  Basis Set: CC-PVTZ
  Basis Set:
  Basis Set: CC-PVTZ
  Basis Set:
  @DF-RHF Final Energy:  -387.25834693470040
    Total Energy =                       -387.2583469347003984
  Basis Set: CC-PVTZ
  Basis Set:
  Charge       = 0
  Multiplicity = 1
  Basis Set: CC-PVTZ
  Basis Set:

    Orbital Energies (a.u.)
    -----------------------

    Doubly Occupied:

       1A    -20.550303     2A    -11.320649     3A    -11.233547
       4A    -11.232297     5A    -11.225666     6A    -11.220170
       7A    -11.218519     8A    -11.217850     9A    -11.210571
      10A     -1.405597    11A     -1.106775    12A     -1.071882
      13A     -1.015659    14A     -0.944595    15A     -0.877237
      16A     -0.825729    17A     -0.787839    18A     -0.784804
      19A     -0.670313    20A     -0.665068    21A     -0.636057
      22A     -0.620751    23A     -0.610316    24A     -0.598789
      25A     -0.565630    26A     -0.562524    27A     -0.544565
      28A     -0.522633    29A     -0.509117    30A     -0.504900
      31A     -0.487855    32A     -0.481253    33A     -0.467843
      34A     -0.462058    35A     -0.446609    36A     -0.410029

  @DF-RHF Final Energy:  -387.25834786788477

   => Energetics <=

    Nuclear Repulsion Energy =            436.0346803386567558
    One-Electron Energy =               -1388.5540601565344332
    Two-Electron Energy =                 565.2610319499933667
    DFT Exchange-Correlation Energy =       0.0000000000000000
    Empirical Dispersion Energy =           0.0000000000000000
    PCM Polarization Energy =               0.0000000000000000
    EFP Energy =                            0.0000000000000000
    Total Energy =                       -387.2583478678843676
    Molecular point group: c1
  Basis Set: CC-PVTZ
  Basis Set:

  -Total Gradient:
     Atom            X                  Y                   Z
    ------   -----------------  -----------------  -----------------
       1       -0.000023714603     0.000033604038    -0.000057398941
       2       -0.000371157772     0.000071928480     0.000037489630
       3        0.000068092951     0.000027867476     0.000228790482
       4        0.000341335964    -0.000007460085     0.000024028303
       5        0.000007324474    -0.000012210063     0.000055521755
       6       -0.000076233250    -0.000087236394    -0.000303051931
       7        0.000039592674    -0.000028217345    -0.000004593406
       8       -0.000022253223     0.000014783602     0.000051272379
       9        0.000007279948    -0.000042724299     0.000034895759
      10        0.000012864211     0.000013424754    -0.000026290088
      11        0.000032684323     0.000022259022     0.000006046133
      12       -0.000021841645     0.000006686832    -0.000009440291
      13        0.000015510518     0.000003062673    -0.000010675422
      14       -0.000006568326    -0.000005901942    -0.000010582759
      15        0.000002088467    -0.000006566717    -0.000001694428
      16        0.000020532497     0.000003529340    -0.000002753237
      17       -0.000027344788     0.000002589896    -0.000005617281
      18       -0.000013906481     0.000009150122    -0.000004471669
      19        0.000007702933    -0.000000883853    -0.000000413386
      20        0.000005091837    -0.000009418945    -0.000002216636
      21       -0.000001937616    -0.000004337538    -0.000006943216
      22        0.000008602246     0.000004514542    -0.000002766828
      23       -0.000010903894     0.000001068074     0.000004625547
      24        0.000004100307     0.000001198105     0.000007257019
      25        0.000003058247    -0.000010709780    -0.000001017483

  **** Optimization is complete! (in 7 steps) ****
    Final optimized geometry and variables:
    Molecular point group: c1

    Geometry (in Angstrom), charge = 0, multiplicity = 1:

    H           -1.160130397418    -2.743987431813    -0.620647607110
    C           -1.111711042321    -2.658005623785    -1.712171650623
    C           -0.403634821814    -1.443442668994    -2.257769265221
    O           -1.594192810909    -3.499242224952    -2.388986925884
    C           -0.538159684228    -0.191178518634    -1.386402066033
    H            0.645572631885    -1.710091248773    -2.365636141378
    H           -0.786448548876    -1.273839489364    -3.255610557916
    C            0.324665268569    -0.201366230790    -0.125142849971
    H           -0.266737235991     0.669828558749    -1.987424976126
    H           -1.581650520169    -0.049563437778    -1.115906947493
    C            0.162557884529     1.060237196861     0.718874207078
    H            1.367390099331    -0.309651794403    -0.413422521847
    H            0.088753581402    -1.068349274444     0.485367106456
    C            1.041018384756     1.058212037215     1.968398087853
    H            0.391244948053     1.925201562413     0.104400683159
    H           -0.879112312573     1.161855893414     1.014468429334
    C            0.848881133803     2.263829271526     2.890018331152
    H            2.085903749111     0.997771075525     1.672587902564
    H            0.834896350334     0.155095561888     2.536385326968
    C            1.284410657360     3.599663048761     2.292721202185
    H            1.412458852103     2.090592836433     3.801472201188
    H           -0.194699331034     2.324859780067     3.187217507253
    H            2.322866137023     3.565805242992     1.978980223822
    H            0.687368889099     3.873699647147     1.431309066819
    H            1.186808591190     4.395880573604     3.021646617253

  Mulliken Charges: (a.u.)
   Center  Symbol    Alpha    Beta     Spin     Total
       1     H     0.46292  0.46292  0.00000  0.07417
       2     C     2.90410  2.90410  0.00000  0.19180
       3     C     3.09129  3.09129  0.00000 -0.18258
       4     O     4.16662  4.16662  0.00000 -0.33324
       5     C     3.11237  3.11237  0.00000 -0.22474
       6     H     0.44677  0.44677  0.00000  0.10646
       7     H     0.43412  0.43412  0.00000  0.13177
       8     C     3.09407  3.09407  0.00000 -0.18814
       9     H     0.44325  0.44325  0.00000  0.11351
      10     H     0.44707  0.44707  0.00000  0.10586
      11     C     3.09258  3.09258  0.00000 -0.18516
      12     H     0.45153  0.45153  0.00000  0.09693
      13     H     0.45228  0.45228  0.00000  0.09544
      14     C     3.09541  3.09541  0.00000 -0.19081
      15     H     0.45083  0.45083  0.00000  0.09834
      16     H     0.45301  0.45301  0.00000  0.09398
      17     C     3.09067  3.09067  0.00000 -0.18134
      18     H     0.45336  0.45336  0.00000  0.09328
      19     H     0.44898  0.44898  0.00000  0.10204
      20     C     3.15267  3.15267  0.00000 -0.30535
      21     H     0.44767  0.44767  0.00000  0.10467
      22     H     0.45424  0.45424  0.00000  0.09153
      23     H     0.45465  0.45465  0.00000  0.09070
      24     H     0.45397  0.45397  0.00000  0.09206
      25     H     0.44557  0.44557  0.00000  0.10885

   Total alpha = 36.00000, Total beta = 36.00000, Total charge =  0.00000

*** Psi4 exiting successfully. Buy a developer a beer!
