  ==> Input File <==

--------------------------------------------------------------------------
set {
	reference rhf
	basis 6-31G*
}

set_num_threads( 4 )
memory 2 gb

molecule MOL {
0 1

H	 -1.523071	 -0.237770	 -0.001739
N	 -0.626943	 -0.667432	 -0.000092
C	 -0.561099	 -2.111171	 0.000144
C	 0.469286	 0.129090	 0.000148
H	 -1.045956	 -2.521975	 0.879439
H	 0.476998	 -2.401094	 0.005321
H	 -1.037115	 -2.522330	 -0.883817
C	 1.788933	 -0.616240	 -0.000037
O	 0.411098	 1.327768	 -0.000049
H	 1.872803	 -1.245775	 -0.880381
H	 2.595421	 0.101576	 0.003713
H	 1.870096	 -1.252171	 0.875943

	symmetry c1
}
set optking {
	frozen_dihedral = ("
		3 2 4 9
	")
}

ee = optimize('scf')
oeprop('DIPOLE', 'QUADRUPOLE', 'MULLIKEN_CHARGES')
f=open( 'psi4out.xyz', 'w' )
f.write( "12  " )
f.write( str(ee) + "\n" )
f.write( MOL.save_string_xyz() )
f.close()
--------------------------------------------------------------------------

    Molecular point group: c1
  Charge       = 0
  Multiplicity = 1
  Basis Set: 6-31G*
  Basis Set:
  @DF-RHF Final Energy:  -246.99592036530868
    Total Energy =                       -246.9959203653086774
    Molecular point group: c1
  Basis Set: 6-31G*
  Basis Set:
  Basis Set: 6-31G*
  Basis Set:
  @DF-RHF Final Energy:  -246.99759398251805
    Total Energy =                       -246.9975939825178557
  Basis Set: 6-31G*
  Basis Set:
  Basis Set: 6-31G*
  Basis Set:
  @DF-RHF Final Energy:  -247.00057003237481
    Total Energy =                       -247.0005700323748101
  Basis Set: 6-31G*
  Basis Set:
  Basis Set: 6-31G*
  Basis Set:
  @DF-RHF Final Energy:  -247.00090413738627
    Total Energy =                       -247.0009041373861010
  Basis Set: 6-31G*
  Basis Set:
  Basis Set: 6-31G*
  Basis Set:
  @DF-RHF Final Energy:  -247.00094104416416
    Total Energy =                       -247.0009410441641649
  Basis Set: 6-31G*
  Basis Set:
  Basis Set: 6-31G*
  Basis Set:
  @DF-RHF Final Energy:  -247.00094503997539
    Total Energy =                       -247.0009450399753064
  Basis Set: 6-31G*
  Basis Set:
  Charge       = 0
  Multiplicity = 1
  Basis Set: 6-31G*
  Basis Set:

    Orbital Energies (a.u.)
    -----------------------

    Doubly Occupied:

       1A    -20.512698     2A    -15.580261     3A    -11.343805
       4A    -11.271584     5A    -11.229771     6A     -1.382787
       7A     -1.228088     8A     -1.005333     9A     -0.958688
      10A     -0.782560    11A     -0.673475    12A     -0.667959
      13A     -0.638108    14A     -0.589093    15A     -0.578104
      16A     -0.558512    17A     -0.557343    18A     -0.512789
      19A     -0.411154    20A     -0.380968

  @DF-RHF Final Energy:  -247.00094491799317

   => Energetics <=

    Nuclear Repulsion Energy =            181.0251445668376107
    One-Electron Energy =                -694.3260169485516826
    Two-Electron Energy =                 266.2999274637210192
    DFT Exchange-Correlation Energy =       0.0000000000000000
    Empirical Dispersion Energy =           0.0000000000000000
    PCM Polarization Energy =               0.0000000000000000
    EFP Energy =                            0.0000000000000000
    Total Energy =                       -247.0009449179930243
    Molecular point group: c1
  Basis Set: 6-31G*
  Basis Set:

  -Total Gradient:
     Atom            X                  Y                   Z
    ------   -----------------  -----------------  -----------------
       1        0.000004823686     0.000000799696    -0.000016393689
       2       -0.000001775649     0.000000798256    -0.000102203544
       3        0.000001636462    -0.000004752576     0.000011307576
       4       -0.000008671728    -0.000004814665     0.000340293919
       5        0.000002921210     0.000000248495     0.000002272596
       6        0.000001304118    -0.000002201643    -0.000006359214
       7       -0.000001495351    -0.000004065491     0.000004147638
       8       -0.000006720793     0.000001535303    -0.000121666847
       9        0.000011616494     0.000012188832    -0.000102498746
      10        0.000029718073    -0.000009995473    -0.000002021586
      11       -0.000000597382     0.000000426912    -0.000006695536
      12       -0.000032759140     0.000009832348    -0.000000182565

  **** Optimization is complete! (in 7 steps) ****
    Final optimized geometry and variables:
    Molecular point group: c1

    Geometry (in Angstrom), charge = 0, multiplicity = 1:

    H           -1.743911229061     0.204127635804    -0.000932839349
    N           -0.881665018890    -0.295746543145    -0.000317459207
    C           -0.946487870234    -1.737703950298    -0.001174663055
    C            0.204210976887     0.518031925136     0.000969840786
    H           -1.471507662814    -2.103050972384     0.875277752845
    H            0.045600684706    -2.161625400619     0.006110790314
    H           -1.459068653371    -2.103514617574    -0.884839888135
    C            1.573718692052    -0.129311605120    -0.000811098249
    O            0.077903938676     1.712339659291     0.001532066216
    H            1.715234856853    -0.750523912510    -0.878851731446
    H            2.310258976212     0.659785181284    -0.001871738053
    H            1.717328521330    -0.749947877236     0.877299932173

  Mulliken Charges: (a.u.)
   Center  Symbol    Alpha    Beta     Spin     Total
       1     H     0.30597  0.30597  0.00000  0.38806
       2     N     3.88954  3.88954  0.00000 -0.77908
       3     C     3.13835  3.13835  0.00000 -0.27671
       4     C     2.62895  2.62895  0.00000  0.74210
       5     H     0.41126  0.41126  0.00000  0.17749
       6     H     0.40761  0.40761  0.00000  0.18478
       7     H     0.41134  0.41134  0.00000  0.17731
       8     C     3.30031  3.30031  0.00000 -0.60063
       9     O     4.30210  4.30210  0.00000 -0.60420
      10     H     0.40727  0.40727  0.00000  0.18545
      11     H     0.38998  0.38998  0.00000  0.22004
      12     H     0.40731  0.40731  0.00000  0.18538

   Total alpha = 20.00000, Total beta = 20.00000, Total charge = -0.00000
