  ==> Input File <==

--------------------------------------------------------------------------
set {
	reference rhf
	basis 6-31G*
}

set_num_threads( 1 )
memory 2 gb

molecule MOL {
0 1

O	 3.225979	 0.970355	 -0.599647
C	 2.701189	 0.057885	 -0.047330
C	 1.245376	 -0.013843	 0.345420
O	 3.347903	 -1.046386	 0.304773
C	 0.455112	 1.231400	 -0.050772
H	 0.838542	 -0.913825	 -0.103701
H	 1.208210	 -0.175333	 1.419774
C	 -0.998893	 1.219485	 0.433193
H	 0.482531	 1.345121	 -1.130325
H	 0.957290	 2.103070	 0.354729
C	 -1.883438	 0.145884	 -0.207175
H	 -1.431207	 2.195402	 0.224832
H	 -1.019646	 1.105716	 1.516076
C	 -3.347647	 0.245583	 0.225435
H	 -1.822183	 0.231698	 -1.291012
H	 -1.510341	 -0.844814	 0.042401
C	 -3.608975	 -0.331820	 1.617715
H	 -3.973188	 -0.271404	 -0.500277
H	 -3.658635	 1.288946	 0.205987
C	 -5.074197	 -0.231831	 2.040593
H	 -3.297839	 -1.374113	 1.639200
H	 -2.987800	 0.186631	 2.345129
H	 -5.227525	 -0.649015	 3.031075
H	 -5.718694	 -0.770415	 1.351574
H	 -5.406333	 0.802329	 2.062313
C	 4.728119	 -1.109107	 -0.004993
H	 4.882018	 -1.033965	 -1.071845
H	 5.068212	 -2.067527	 0.355250
H	 5.265056	 -0.311663	 0.488280

	symmetry c1
}
set optking {
	frozen_dihedral = ("
		21 17 14 11,
		15 11 8 5,
		6 3 5 9,
		11 8 5 9,
		2 4 26 27,
		1 2 4 26,
		6 3 2 1
	")
}

ee = energy('scf')
oeprop('DIPOLE', 'QUADRUPOLE', 'MULLIKEN_CHARGES')
f=open( 'psi4out.xyz', 'w' )
f.write( "29  " )
f.write( str(ee) + "\n" )
f.write( MOL.save_string_xyz() )
f.close()
--------------------------------------------------------------------------

    Molecular point group: c1

    Geometry (in Angstrom), charge = 0, multiplicity = 1:

       Center              X                  Y                   Z               Mass
    ------------   -----------------  -----------------  -----------------  -----------------
           O          3.110497772474     0.880549604833    -0.969806726372    15.994914619560
           C          2.585707772474    -0.031920395167    -0.417489726372    12.000000000000
           C          1.129894772474    -0.103648395167    -0.024739726372    12.000000000000
           O          3.232421772474    -1.136191395167    -0.065386726372    15.994914619560
           C          0.339630772474     1.141594604833    -0.420931726372    12.000000000000
           H          0.723060772474    -1.003630395167    -0.473860726372     1.007825032070
           H          1.092728772474    -0.265138395167     1.049614273628     1.007825032070
           C         -1.114374227526     1.129679604833     0.063033273628    12.000000000000
           H          0.367049772474     1.255315604833    -1.500484726372     1.007825032070
           H          0.841808772474     2.013264604833    -0.015430726372     1.007825032070
           C         -1.998919227526     0.056078604833    -0.577334726372    12.000000000000
           H         -1.546688227526     2.105596604833    -0.145327726372     1.007825032070
           H         -1.135127227526     1.015910604833     1.145916273628     1.007825032070
           C         -3.463128227526     0.155777604833    -0.144724726372    12.000000000000
           H         -1.937664227526     0.141892604833    -1.661171726372     1.007825032070
           H         -1.625822227526    -0.934619395167    -0.327758726372     1.007825032070
           C         -3.724456227526    -0.421625395167     1.247555273628    12.000000000000
           H         -4.088669227526    -0.361209395167    -0.870436726372     1.007825032070
           H         -3.774116227526     1.199140604833    -0.164172726372     1.007825032070
           C         -5.189678227526    -0.321636395167     1.670433273628    12.000000000000
           H         -3.413320227526    -1.463918395167     1.269040273628     1.007825032070
           H         -3.103281227526     0.096825604833     1.974969273628     1.007825032070
           H         -5.343006227526    -0.738820395167     2.660915273628     1.007825032070
           H         -5.834175227526    -0.860220395167     0.981414273628     1.007825032070
           H         -5.521814227526     0.712523604833     1.692153273628     1.007825032070
           C          4.612637772474    -1.198912395167    -0.375152726372    12.000000000000
           H          4.766536772474    -1.123770395167    -1.442004726372     1.007825032070
           H          4.952730772474    -2.157332395167    -0.014909726372     1.007825032070
           H          5.149574772474    -0.401468395167     0.118120273628     1.007825032070

  Charge       = 0
  Multiplicity = 1
  Basis Set: 6-31G*
  Basis Set:

    Orbital Energies (a.u.)
    -----------------------

    Doubly Occupied:

       1A    -20.603368     2A    -20.545152     3A    -11.371966
       4A    -11.280653     5A    -11.234711     6A    -11.219000
       7A    -11.217299     8A    -11.215894     9A    -11.215567
      10A    -11.214044    11A    -11.209172    12A     -1.469045
      13A     -1.362480    14A     -1.098982    15A     -1.066548
      16A     -1.018120    17A     -0.977237    18A     -0.928697
      19A     -0.861458    20A     -0.811649    21A     -0.781507
      22A     -0.762582    23A     -0.700596    24A     -0.682300
      25A     -0.671807    26A     -0.639060    27A     -0.629544
      28A     -0.612921    29A     -0.597096    30A     -0.580565
      31A     -0.562057    32A     -0.556976    33A     -0.542064
      34A     -0.524731    35A     -0.513561    36A     -0.510781
      37A     -0.494906    38A     -0.483159    39A     -0.472295
      40A     -0.459642    41A     -0.456646    42A     -0.446414
      43A     -0.445183    44A     -0.436343

  @DF-RHF Final Energy:  -501.04179021588584

   => Energetics <=

    Nuclear Repulsion Energy =            616.1172114487324052
    One-Electron Energy =               -1903.3502003319827054
    Two-Electron Energy =                 786.1911986673644606
    DFT Exchange-Correlation Energy =       0.0000000000000000
    Empirical Dispersion Energy =           0.0000000000000000
    PCM Polarization Energy =               0.0000000000000000
    EFP Energy =                            0.0000000000000000
    Total Energy =                       -501.0417902158858396

  Mulliken Charges: (a.u.)
   Center  Symbol    Alpha    Beta     Spin     Total
       1     O     4.28598  4.28598  0.00000 -0.57196
       2     C     2.60486  2.60486  0.00000  0.79027
       3     C     3.20968  3.20968  0.00000 -0.41935
       4     O     4.30746  4.30746  0.00000 -0.61492
       5     C     3.15327  3.15327  0.00000 -0.30654
       6     H     0.39884  0.39884  0.00000  0.20232
       7     H     0.40129  0.40129  0.00000  0.19741
       8     C     3.15832  3.15832  0.00000 -0.31664
       9     H     0.41312  0.41312  0.00000  0.17376
      10     H     0.40888  0.40888  0.00000  0.18224
      11     C     3.15741  3.15741  0.00000 -0.31482
      12     H     0.41819  0.41819  0.00000  0.16362
      13     H     0.42261  0.42261  0.00000  0.15478
      14     C     3.15262  3.15262  0.00000 -0.30524
      15     H     0.42041  0.42041  0.00000  0.15919
      16     H     0.42329  0.42329  0.00000  0.15343
      17     C     3.15333  3.15333  0.00000 -0.30666
      18     H     0.42116  0.42116  0.00000  0.15768
      19     H     0.42322  0.42322  0.00000  0.15357
      20     C     3.23899  3.23899  0.00000 -0.47799
      21     H     0.42330  0.42330  0.00000  0.15341
      22     H     0.42201  0.42201  0.00000  0.15598
      23     H     0.41945  0.41945  0.00000  0.16110
      24     H     0.42165  0.42165  0.00000  0.15670
      25     H     0.42153  0.42153  0.00000  0.15694
      26     C     3.09241  3.09241  0.00000 -0.18481
      27     H     0.40908  0.40908  0.00000  0.18184
      28     H     0.40852  0.40852  0.00000  0.18296
      29     H     0.40913  0.40913  0.00000  0.18174

   Total alpha = 44.00000, Total beta = 44.00000, Total charge =  0.00000
