                              Psi4 1.0.54 Driver

  ==> Input File <==

--------------------------------------------------------------------------
set {
	reference rhf
	basis cc-pvtz
}

set_num_threads( 4 )
memory 2 gb

molecule MOL {
0 1

H	 -2.816458	 -0.841657	 -0.064679
N	 -1.878861	 -0.711874	 0.250184
C	 -1.341419	 0.551458	 -0.220231
H	 -1.333674	 -1.468530	 -0.105118
C	 0.082190	 0.731516	 0.254705
H	 -1.357065	 0.652078	 -1.304747
H	 -1.939897	 1.357530	 0.189797
O	 0.899627	 0.966022	 -0.851871
H	 0.137832	 1.571626	 0.945568
H	 0.408363	 -0.163571	 0.779450
C	 2.251649	 1.081297	 -0.555279
H	 2.780498	 1.262893	 -1.479794
H	 2.440601	 1.910214	 0.123609
H	 2.638726	 0.171302	 -0.102902

	symmetry c1
}
set optking {
	frozen_dihedral = ("
		8 5 3 6
	")
}

ee,wfn = optimize('scf', return_wfn=True)
oeprop( wfn, 'DIPOLE', 'QUADRUPOLE', 'MULLIKEN_CHARGES')
f=open( 'psi4out.xyz', 'w' )
f.write( "14  " )
f.write( str(ee) + "\n" )
f.write( MOL.save_string_xyz() )
f.close()
--------------------------------------------------------------------------

    Molecular point group: c1
  Charge       = 0
  Multiplicity = 1
  Basis Set: CC-PVTZ
  Basis Set:
  @DF-RHF Final Energy:  -248.21841448871928
    Total Energy =                       -248.2184144887194179
    Molecular point group: c1
  Basis Set: CC-PVTZ
  Basis Set:
  Basis Set: CC-PVTZ
  Basis Set:
  @DF-RHF Final Energy:  -248.21903234607379
    Total Energy =                       -248.2190323460739592
  Basis Set: CC-PVTZ
  Basis Set:
  Basis Set: CC-PVTZ
  Basis Set:
  @DF-RHF Final Energy:  -248.21921930117756
    Total Energy =                       -248.2192193011775885
  Basis Set: CC-PVTZ
  Basis Set:
  Basis Set: CC-PVTZ
  Basis Set:
  @DF-RHF Final Energy:  -248.21923328302057
    Total Energy =                       -248.2192332830206851
  Basis Set: CC-PVTZ
  Basis Set:
  Charge       = 0
  Multiplicity = 1
  Basis Set: CC-PVTZ
  Basis Set:

    Orbital Energies (a.u.)
    -----------------------

    Doubly Occupied:

       1A    -20.548804     2A    -15.530515     3A    -11.263084
       4A    -11.262242     5A    -11.240060     6A     -1.382413
       7A     -1.179846     8A     -0.997727     9A     -0.901526
      10A     -0.823790    11A     -0.686667    12A     -0.666500
      13A     -0.653696    14A     -0.619669    15A     -0.591316
      16A     -0.560641    17A     -0.518679    18A     -0.498867
      19A     -0.471924    20A     -0.418202    21A     -0.386573

  @DF-RHF Final Energy:  -248.21923430847494

   => Energetics <=

    Nuclear Repulsion Energy =            191.2663222446036002
    One-Electron Energy =                -716.5656296724193908
    Two-Electron Energy =                 277.0800731193408524
    DFT Exchange-Correlation Energy =       0.0000000000000000
    Empirical Dispersion Energy =           0.0000000000000000
    PCM Polarization Energy =               0.0000000000000000
    EFP Energy =                            0.0000000000000000
    Total Energy =                       -248.2192343084749950
    Molecular point group: c1
  Basis Set: CC-PVTZ
  Basis Set:

  -Total Gradient:
     Atom            X                  Y                   Z
    ------   -----------------  -----------------  -----------------
       1       -0.000039525932    -0.000003728430    -0.000023236853
       2        0.000047661690    -0.000042321587     0.000037425159
       3        0.000137929735    -0.000816418211    -0.000103186517
       4       -0.000007296436    -0.000033944263    -0.000014353107
       5       -0.000095885960     0.000776416321     0.000040710518
       6       -0.000099371574     0.000608485931     0.000083357739
       7        0.000006570269     0.000017414374    -0.000001913597
       8        0.000068943399    -0.000509966150    -0.000028277068
       9       -0.000008680616     0.000006326078    -0.000018802095
      10        0.000006584897    -0.000013049674     0.000002983978
      11       -0.000000472138     0.000023682737     0.000056091180
      12       -0.000026858583    -0.000011308086    -0.000007869964
      13        0.000015571678     0.000003409801    -0.000006491796
      14       -0.000005170426    -0.000004998837    -0.000016437581

  **** Optimization is complete! (in 5 steps) ****
    Final optimized geometry and variables:
    Molecular point group: c1

    Geometry (in Angstrom), charge = 0, multiplicity = 1:

    H           -2.896231979012    -1.278047573738     0.271029478529
    N           -1.923441900331    -1.221616244858     0.486314722043
    C           -1.360726223392     0.033304966260     0.010572262346
    H           -1.479241929528    -1.998893617630     0.042899014989
    C            0.086638147334     0.204158172498     0.478306300985
    H           -1.366811191123     0.132494208129    -1.070807813777
    H           -1.971359472661     0.835274476991     0.405724651920
    O            0.908770632800     0.428152728718    -0.627725475380
    H            0.173985064523     1.034596561410     1.175404798007
    H            0.403799591365    -0.692537258763     1.004770210191
    C            2.247981332539     0.614642702457    -0.313042231612
    H            2.786784784497     0.772836939742    -1.236126312106
    H            2.390560077088     1.481986050324     0.328163835712
    H            2.664660956596    -0.255118566187     0.190720793091

  Mulliken Charges: (a.u.)
   Center  Symbol    Alpha    Beta     Spin     Total
       1     H     0.42867  0.42867  0.00000  0.14266
       2     N     3.69242  3.69242  0.00000 -0.38484
       3     C     3.03367  3.03367  0.00000 -0.06734
       4     H     0.42796  0.42796  0.00000  0.14408
       5     C     2.96729  2.96729  0.00000  0.06543
       6     H     0.45732  0.45732  0.00000  0.08536
       7     H     0.45669  0.45669  0.00000  0.08663
       8     O     4.17327  4.17327  0.00000 -0.34653
       9     H     0.47326  0.47326  0.00000  0.05348
      10     H     0.46934  0.46934  0.00000  0.06133
      11     C     3.02853  3.02853  0.00000 -0.05705
      12     H     0.44735  0.44735  0.00000  0.10531
      13     H     0.47179  0.47179  0.00000  0.05642
      14     H     0.47247  0.47247  0.00000  0.05507

   Total alpha = 21.00000, Total beta = 21.00000, Total charge = -0.00000

*** Psi4 exiting successfully. Buy a developer a beer!
