  ==> Input File <==

--------------------------------------------------------------------------
set {
	reference rhf
	basis 6-31G*
}

set_num_threads( 4 )
memory 2 gb

molecule MOL {
0 1

O	 -1.276010	 1.052711	 -0.768302
C	 -1.204840	 0.067374	 -0.106123
C	 -2.388195	 -0.672128	 0.458071
O	 -0.067104	 -0.527208	 0.221609
H	 -2.388023	 -1.694060	 0.097175
H	 -3.300579	 -0.174919	 0.164318
H	 -2.315377	 -0.706351	 1.539059
C	 1.170111	 0.034140	 -0.238951
C	 1.181979	 -0.161894	 -1.744613
C	 2.335629	 -0.648510	 0.459763
H	 1.166316	 1.087184	 0.001029
H	 0.328000	 0.325663	 -2.200966
H	 2.086070	 0.261634	 -2.169555
H	 1.147065	 -1.216942	 -1.994229
H	 3.275855	 -0.244068	 0.098628
H	 2.288422	 -0.489463	 1.529554
H	 2.323989	 -1.715603	 0.261813

	symmetry c1
}
set optking {
	frozen_dihedral = ("
		11 8 4 2
	")
}

ee = optimize('scf')
oeprop('DIPOLE', 'QUADRUPOLE', 'MULLIKEN_CHARGES')
f=open( 'psi4out.xyz', 'w' )
f.write( "17  " )
f.write( str(ee) + "\n" )
f.write( MOL.save_string_xyz() )
f.close()
--------------------------------------------------------------------------

    Molecular point group: c1
  Charge       = 0
  Multiplicity = 1
  Basis Set: 6-31G*
  Basis Set:
  @DF-RHF Final Energy:  -344.91049963148498
    Total Energy =                       -344.9104996314846403
    Molecular point group: c1
  Basis Set: 6-31G*
  Basis Set:
  Basis Set: 6-31G*
  Basis Set:
  @DF-RHF Final Energy:  -344.91349404239872
    Total Energy =                       -344.9134940423982698
  Basis Set: 6-31G*
  Basis Set:
  Basis Set: 6-31G*
  Basis Set:
  @DF-RHF Final Energy:  -344.91340289846363
    Total Energy =                       -344.9134028984640281
  Basis Set: 6-31G*
  Basis Set:
  Basis Set: 6-31G*
  Basis Set:
  @DF-RHF Final Energy:  -344.91364282563023
    Total Energy =                       -344.9136428256301201
  Basis Set: 6-31G*
  Basis Set:
  Basis Set: 6-31G*
  Basis Set:
  @DF-RHF Final Energy:  -344.91404657577021
    Total Energy =                       -344.9140465757700440
  Basis Set: 6-31G*
  Basis Set:
  Basis Set: 6-31G*
  Basis Set:
  @DF-RHF Final Energy:  -344.91405034598262
    Total Energy =                       -344.9140503459824458
  Basis Set: 6-31G*
  Basis Set:
  Charge       = 0
  Multiplicity = 1
  Basis Set: 6-31G*
  Basis Set:

    Orbital Energies (a.u.)
    -----------------------

    Doubly Occupied:

       1A    -20.599024     2A    -20.543043     3A    -11.374592
       4A    -11.291368     5A    -11.232317     6A    -11.219152
       7A    -11.214352     8A     -1.465321     9A     -1.361659
      10A     -1.078538    11A     -1.004920    12A     -0.947294
      13A     -0.849597    14A     -0.762224    15A     -0.691706
      16A     -0.672634    17A     -0.658375    18A     -0.614241
      19A     -0.585465    20A     -0.578338    21A     -0.559024
      22A     -0.549873    23A     -0.538545    24A     -0.519371
      25A     -0.501480    26A     -0.482882    27A     -0.447853
      28A     -0.434607

  @DF-RHF Final Energy:  -344.91405117389343

   => Energetics <=

    Nuclear Repulsion Energy =            323.6018695755017234
    One-Electron Energy =               -1111.4762543631495646
    Two-Electron Energy =                 442.9603336137546989
    DFT Exchange-Correlation Energy =       0.0000000000000000
    Empirical Dispersion Energy =           0.0000000000000000
    PCM Polarization Energy =               0.0000000000000000
    EFP Energy =                            0.0000000000000000
    Total Energy =                       -344.9140511738931423
    Molecular point group: c1
  Basis Set: 6-31G*
  Basis Set:

  -Total Gradient:
     Atom            X                  Y                   Z
    ------   -----------------  -----------------  -----------------
       1       -0.000009209369     0.000007108202     0.000034357264
       2       -0.000198953543    -0.001442707080    -0.002099296665
       3       -0.000006583863    -0.000028042453    -0.000060737101
       4        0.000609753805     0.001942985100     0.003556302109
       5        0.000014170081     0.000010265623     0.000027497685
       6       -0.000005150433     0.000006485763     0.000011054478
       7       -0.000004491609     0.000025702305     0.000018065874
       8       -0.001676923771     0.000032528745    -0.003949779890
       9        0.000017102441     0.000003149294    -0.000005679353
      10        0.000000521033     0.000000870238     0.000007543693
      11        0.001291314971    -0.000564058690     0.002457079884
      12       -0.000015386001     0.000000699864    -0.000000276216
      13       -0.000010101760     0.000000800882     0.000000307615
      14       -0.000003078947    -0.000002794025     0.000006562368
      15        0.000000636044     0.000001410951     0.000000458671
      16        0.000000652023    -0.000001732021    -0.000001180021
      17       -0.000004271107     0.000007327302    -0.000002280396

  **** Optimization is complete! (in 7 steps) ****
    Final optimized geometry and variables:
    Molecular point group: c1

    Geometry (in Angstrom), charge = 0, multiplicity = 1:

    O           -1.278327492925     1.210555485854    -0.434895753751
    C           -1.175551544222     0.196074964731     0.176924657163
    C           -2.331719195229    -0.576576344757     0.753579616438
    O           -0.020977881437    -0.392356133980     0.452326359137
    H           -2.343994622929    -1.578939204870     0.341347191797
    H           -3.257161703462    -0.069908788350     0.523785703165
    H           -2.213098544783    -0.665041820122     1.827325295032
    C            1.195422136157     0.164692311523    -0.065385200243
    C            1.300070562983    -0.051950699848    -1.567053502394
    C            2.309795480038    -0.527660308418     0.701939471630
    H            1.201461716760     1.220122021224     0.170514173881
    H            0.506689719629     0.458633199471    -2.094466322363
    H            2.249691567173     0.331197852778    -1.926736946864
    H            1.253351809540    -1.112034770309    -1.796742413782
    H            3.273742882017    -0.131968602959     0.399660789413
    H            2.193845682889    -0.371248451779     1.768258542980
    H            2.301119383696    -1.595298316301     0.510357588872

  Mulliken Charges: (a.u.)
   Center  Symbol    Alpha    Beta     Spin     Total
       1     O     4.28545  4.28545  0.00000 -0.57091
       2     C     2.61687  2.61687  0.00000  0.76626
       3     C     3.28124  3.28124  0.00000 -0.56247
       4     O     4.31488  4.31488  0.00000 -0.62977
       5     H     0.40118  0.40118  0.00000  0.19763
       6     H     0.39739  0.39739  0.00000  0.20522
       7     H     0.40056  0.40056  0.00000  0.19888
       8     C     2.92294  2.92294  0.00000  0.15411
       9     C     3.25609  3.25609  0.00000 -0.51217
      10     C     3.24236  3.24236  0.00000 -0.48472
      11     H     0.40576  0.40576  0.00000  0.18848
      12     H     0.39607  0.39607  0.00000  0.20786
      13     H     0.41790  0.41790  0.00000  0.16421
      14     H     0.41772  0.41772  0.00000  0.16455
      15     H     0.41772  0.41772  0.00000  0.16455
      16     H     0.41159  0.41159  0.00000  0.17682
      17     H     0.41426  0.41426  0.00000  0.17148

   Total alpha = 28.00000, Total beta = 28.00000, Total charge =  0.00000
