  ==> Input File <==

--------------------------------------------------------------------------
set {
	reference rhf
	basis 6-31G*
}

set_num_threads( 4 )
memory 2 gb

molecule MOL {
0 1

H	 2.591676	 2.013956	 0.335017
O	 3.341076	 1.666752	 -0.126416
C	 3.569581	 0.339145	 0.272707
C	 2.826294	 -0.681805	 -0.581643
H	 4.636978	 0.184041	 0.181700
H	 3.312316	 0.207359	 1.323053
C	 1.301928	 -0.580011	 -0.487767
H	 3.137349	 -0.557930	 -1.615696
H	 3.142030	 -1.676806	 -0.272371
C	 0.585705	 -1.652221	 -1.313726
H	 0.988570	 0.405059	 -0.822145
H	 0.996607	 -0.669207	 0.554905
C	 -0.942141	 -1.648748	 -1.187168
H	 0.860276	 -1.540101	 -2.361050
H	 0.954279	 -2.628867	 -1.007106
C	 -1.633709	 -0.410049	 -1.763220
H	 -1.329109	 -2.529576	 -1.695316
H	 -1.216216	 -1.760334	 -0.139185
C	 -3.160261	 -0.500262	 -1.709018
H	 -1.319492	 -0.271493	 -2.796748
H	 -1.315382	 0.480132	 -1.226054
C	 -3.853020	 0.737688	 -2.277548
H	 -3.488444	 -1.380748	 -2.257223
H	 -3.475549	 -0.648455	 -0.678233
H	 -3.583330	 0.894710	 -3.318142
H	 -4.933304	 0.642531	 -2.226879
H	 -3.573885	 1.631473	 -1.726552

	symmetry c1
}
set optking {
	frozen_dihedral = ("
		4 3 2 1
	")
}

ee = optimize('scf')
oeprop('DIPOLE', 'QUADRUPOLE', 'MULLIKEN_CHARGES')
f=open( 'psi4out.xyz', 'w' )
f.write( "27  " )
f.write( str(ee) + "\n" )
f.write( MOL.save_string_xyz() )
f.close()
--------------------------------------------------------------------------

    Molecular point group: c1
  Charge       = 0
  Multiplicity = 1
  Basis Set: 6-31G*
  Basis Set:
  @DF-RHF Final Energy:  -388.28134984212818
    Total Energy =                       -388.2813498421279519
    Molecular point group: c1
  Basis Set: 6-31G*
  Basis Set:
  Basis Set: 6-31G*
  Basis Set:
  @DF-RHF Final Energy:  -388.28136808878583
    Total Energy =                       -388.2813680887859391
  Basis Set: 6-31G*
  Basis Set:
  Basis Set: 6-31G*
  Basis Set:
  @DF-RHF Final Energy:  -388.28141539383631
    Total Energy =                       -388.2814153938363688
  Basis Set: 6-31G*
  Basis Set:
  Charge       = 0
  Multiplicity = 1
  Basis Set: 6-31G*
  Basis Set:

    Orbital Energies (a.u.)
    -----------------------

    Doubly Occupied:

       1A    -20.552488     2A    -11.267562     3A    -11.216040
       4A    -11.214988     5A    -11.214968     6A    -11.214009
       7A    -11.213035     8A    -11.212709     9A    -11.208465
      10A     -1.358802    11A     -1.093266    12A     -1.059999
      13A     -1.010554    14A     -0.947189    15A     -0.886115
      16A     -0.817686    17A     -0.799620    18A     -0.776054
      19A     -0.698913    20A     -0.649698    21A     -0.634485
      22A     -0.616723    23A     -0.595073    24A     -0.582396
      25A     -0.579408    26A     -0.548919    27A     -0.541115
      28A     -0.529643    29A     -0.505548    30A     -0.489681
      31A     -0.483484    32A     -0.472147    33A     -0.468333
      34A     -0.459732    35A     -0.452678    36A     -0.441706
      37A     -0.420335

  @DF-RHF Final Energy:  -388.28141592751876

   => Energetics <=

    Nuclear Repulsion Energy =            459.9304484020201471
    One-Electron Energy =               -1437.9565957842901298
    Two-Electron Energy =                 589.7447314547516726
    DFT Exchange-Correlation Energy =       0.0000000000000000
    Empirical Dispersion Energy =           0.0000000000000000
    PCM Polarization Energy =               0.0000000000000000
    EFP Energy =                            0.0000000000000000
    Total Energy =                       -388.2814159275183101
    Molecular point group: c1
  Basis Set: 6-31G*
  Basis Set:

  -Total Gradient:
     Atom            X                  Y                   Z
    ------   -----------------  -----------------  -----------------
       1        0.000714439692     0.000446081677     0.000786176641
       2       -0.000821321458    -0.000549386779    -0.001135387041
       3       -0.000504615192     0.000197723601     0.000739707910
       4        0.000512911061    -0.000012707423    -0.000401689956
       5        0.000039441632    -0.000113537852     0.000015658106
       6       -0.000008581598    -0.000013020666    -0.000038102343
       7       -0.000016918745     0.000003896127     0.000027815104
       8        0.000042254541     0.000055593585     0.000048217316
       9        0.000000059247    -0.000031422912    -0.000006721627
      10       -0.000004456201    -0.000027513775    -0.000005322457
      11       -0.000064127018     0.000045910901    -0.000024304276
      12        0.000053900528     0.000036004398    -0.000013674193
      13        0.000000921678    -0.000022392299    -0.000051321386
      14        0.000010016358    -0.000039802030     0.000005406233
      15       -0.000003145416     0.000003784315     0.000032138640
      16        0.000021974473     0.000001132886     0.000017788179
      17       -0.000017661333     0.000014348525    -0.000019766515
      18        0.000006138305    -0.000020552365    -0.000009169156
      19       -0.000003272913     0.000007643211     0.000005889132
      20       -0.000003172689    -0.000009364472     0.000009973065
      21        0.000047252736     0.000027285748     0.000018516188
      22       -0.000002800561    -0.000001009722    -0.000000128010
      23        0.000002353642    -0.000000662871    -0.000000963129
      24       -0.000000697660     0.000000687052    -0.000000486542
      25       -0.000000272231    -0.000000321255    -0.000000233547
      26       -0.000000901866     0.000001247112    -0.000000572920
      27        0.000000280980     0.000000355282     0.000000556582

  **** Optimization is complete! (in 4 steps) ****
    Final optimized geometry and variables:
    Molecular point group: c1

    Geometry (in Angstrom), charge = 0, multiplicity = 1:

    H            2.289919873212     2.268523972852     1.297777580952
    O            3.043938366092     1.922572931149     0.844476107094
    C            3.298827703240     0.606738651095     1.272657978277
    C            2.566046821612    -0.431527584005     0.432172349098
    H            4.368163434079     0.457699815920     1.184248405123
    H            3.043909161031     0.490481227449     2.324526439700
    C            1.042111938181    -0.334300809837     0.523978857479
    H            2.877492572114    -0.314537477877    -0.602468794121
    H            2.890323594747    -1.421004169400     0.751121076519
    C            0.328796285226    -1.403489440802    -0.308180389035
    H            0.733405594754     0.653717436535     0.196590727734
    H            0.735933107906    -0.430178015349     1.566094396616
    C           -1.199521476645    -1.398983381055    -0.187707980269
    H            0.607192867045    -1.287779411621    -1.354167391936
    H            0.694980749192    -2.381996216519    -0.004150373289
    C           -1.886063435882    -0.152790739867    -0.753356751683
    H           -1.586549733356    -2.273724507471    -0.706335379998
    H           -1.477881664445    -1.520683524016     0.858068653768
    C           -3.413019879229    -0.238944665962    -0.704013941259
    H           -1.568643901501    -0.005130084288    -1.784627002358
    H           -1.566085603007     0.731011224454    -0.206841220188
    C           -4.100653747651     1.005971960497    -1.263514218487
    H           -3.742425599995    -1.113607710939    -1.260789705984
    H           -3.731638318302    -0.395219116998     0.324591775896
    H           -3.827742265226     1.171201980111    -2.301982798484
    H           -5.181383184996     0.913716706860    -1.216483731120
    H           -3.820151457824     1.894088941274    -0.704102064352

  Mulliken Charges: (a.u.)
   Center  Symbol    Alpha    Beta     Spin     Total
       1     H     0.27990  0.27990  0.00000  0.44021
       2     O     4.37071  4.37071  0.00000 -0.74142
       3     C     3.00027  3.00027  0.00000 -0.00055
       4     C     3.15743  3.15743  0.00000 -0.31486
       5     H     0.41551  0.41551  0.00000  0.16898
       6     H     0.43177  0.43177  0.00000  0.13646
       7     C     3.16198  3.16198  0.00000 -0.32396
       8     H     0.41518  0.41518  0.00000  0.16965
       9     H     0.42556  0.42556  0.00000  0.14888
      10     C     3.15222  3.15222  0.00000 -0.30443
      11     H     0.41834  0.41834  0.00000  0.16333
      12     H     0.42779  0.42779  0.00000  0.14442
      13     C     3.15332  3.15332  0.00000 -0.30663
      14     H     0.42192  0.42192  0.00000  0.15617
      15     H     0.42225  0.42225  0.00000  0.15551
      16     C     3.15226  3.15226  0.00000 -0.30452
      17     H     0.42166  0.42166  0.00000  0.15668
      18     H     0.42473  0.42473  0.00000  0.15055
      19     C     3.15118  3.15118  0.00000 -0.30235
      20     H     0.42358  0.42358  0.00000  0.15283
      21     H     0.42352  0.42352  0.00000  0.15295
      22     C     3.23908  3.23908  0.00000 -0.47815
      23     H     0.42302  0.42302  0.00000  0.15396
      24     H     0.42357  0.42357  0.00000  0.15286
      25     H     0.42144  0.42144  0.00000  0.15712
      26     H     0.41947  0.41947  0.00000  0.16106
      27     H     0.42236  0.42236  0.00000  0.15527

   Total alpha = 37.00000, Total beta = 37.00000, Total charge = -0.00000
