                              Psi4 1.0.54 Driver

  ==> Input File <==

--------------------------------------------------------------------------
set {
	reference rhf
	basis cc-pvtz
}

set_num_threads( 4 )
memory 2 gb

molecule MOL {
0 1

H	 -3.258660	 -0.290394	 1.471450
C	 -3.307964	 -0.275695	 0.374072
C	 -2.653809	 0.914422	 -0.273689
O	 -3.855140	 -1.148880	 -0.205112
C	 -1.459348	 0.529468	 -1.151611
H	 -3.403635	 1.456343	 -0.835307
H	 -2.311121	 1.557754	 0.533772
C	 -1.845703	 -0.261952	 -2.399236
H	 -0.943569	 1.437047	 -1.445913
H	 -0.748556	 -0.043455	 -0.561079
C	 -0.646539	 -0.628772	 -3.269425
H	 -2.552319	 0.320780	 -2.984235
H	 -2.370658	 -1.169242	 -2.111706
C	 -1.037304	 -1.409820	 -4.522627
H	 -0.121778	 0.280272	 -3.546208
H	 0.054024	 -1.220123	 -2.683923
C	 0.139102	 -1.870753	 -5.384898
H	 -1.708399	 -0.804627	 -5.127737
H	 -1.607500	 -2.284516	 -4.222481
C	 0.929387	 -0.742254	 -6.042946
H	 -0.242479	 -2.526175	 -6.161564
H	 0.810140	 -2.476498	 -4.781502
H	 0.282320	 -0.115331	 -6.648146
H	 1.415986	 -0.107231	 -5.312432
H	 1.701044	 -1.141228	 -6.691274

	symmetry c1
}
set optking {
	frozen_dihedral = ("
		6 3 2 4
	")
}

ee,wfn = optimize('scf', return_wfn=True)
oeprop( wfn, 'DIPOLE', 'QUADRUPOLE', 'MULLIKEN_CHARGES')
f=open( 'psi4out.xyz', 'w' )
f.write( "25  " )
f.write( str(ee) + "\n" )
f.write( MOL.save_string_xyz() )
f.close()
--------------------------------------------------------------------------

    Molecular point group: c1
  Charge       = 0
  Multiplicity = 1
  Basis Set: CC-PVTZ
  Basis Set:
  @DF-RHF Final Energy:  -387.25615158055410
    Total Energy =                       -387.2561515805540466
    Molecular point group: c1
  Basis Set: CC-PVTZ
  Basis Set:
  Basis Set: CC-PVTZ
  Basis Set:
  @DF-RHF Final Energy:  -387.25635389118770
    Total Energy =                       -387.2563538911881551
  Basis Set: CC-PVTZ
  Basis Set:
  Basis Set: CC-PVTZ
  Basis Set:
  @DF-RHF Final Energy:  -387.25635408636418
    Total Energy =                       -387.2563540863643539
  Basis Set: CC-PVTZ
  Basis Set:
  Basis Set: CC-PVTZ
  Basis Set:
  @DF-RHF Final Energy:  -387.25696863380642
    Total Energy =                       -387.2569686338057409
  Basis Set: CC-PVTZ
  Basis Set:
  Basis Set: CC-PVTZ
  Basis Set:
  @DF-RHF Final Energy:  -387.25705057312052
    Total Energy =                       -387.2570505731210915
  Basis Set: CC-PVTZ
  Basis Set:
  Basis Set: CC-PVTZ
  Basis Set:
  @DF-RHF Final Energy:  -387.25705376263079
    Total Energy =                       -387.2570537626310170
  Basis Set: CC-PVTZ
  Basis Set:
  Charge       = 0
  Multiplicity = 1
  Basis Set: CC-PVTZ
  Basis Set:

    Orbital Energies (a.u.)
    -----------------------

    Doubly Occupied:

       1A    -20.552908     2A    -11.322969     3A    -11.234655
       4A    -11.229122     5A    -11.211620     6A    -11.210603
       7A    -11.209874     8A    -11.209085     9A    -11.205124
      10A     -1.408275    11A     -1.097205    12A     -1.065015
      13A     -1.010109    14A     -0.941332    15A     -0.874374
      16A     -0.813863    17A     -0.781847    18A     -0.773561
      19A     -0.682979    20A     -0.659983    21A     -0.631048
      22A     -0.614551    23A     -0.595390    24A     -0.592331
      25A     -0.569280    26A     -0.553951    27A     -0.538099
      28A     -0.515658    29A     -0.507101    30A     -0.497134
      31A     -0.483867    32A     -0.473613    33A     -0.459024
      34A     -0.453897    35A     -0.438357    36A     -0.408235

  @DF-RHF Final Energy:  -387.25705389468231

   => Energetics <=

    Nuclear Repulsion Energy =            443.3168908646147770
    One-Electron Energy =               -1403.4958150838203892
    Two-Electron Energy =                 572.9218703245231836
    DFT Exchange-Correlation Energy =       0.0000000000000000
    Empirical Dispersion Energy =           0.0000000000000000
    PCM Polarization Energy =               0.0000000000000000
    EFP Energy =                            0.0000000000000000
    Total Energy =                       -387.2570538946823717
    Molecular point group: c1
  Basis Set: CC-PVTZ
  Basis Set:

  -Total Gradient:
     Atom            X                  Y                   Z
    ------   -----------------  -----------------  -----------------
       1       -0.000008205031     0.000000919322    -0.000001059588
       2       -0.000958480772     0.000585439622     0.000062611449
       3        0.000503491453    -0.000709805911    -0.000555742280
       4        0.000645057671    -0.000342158862     0.000019147060
       5        0.000001241335    -0.000023884041    -0.000005051910
       6       -0.000182053388     0.000457240410     0.000475306038
       7        0.000010154953     0.000014392058     0.000000799295
       8       -0.000012448708     0.000024787783    -0.000005164724
       9       -0.000012823796    -0.000001541985    -0.000002906767
      10        0.000005640790     0.000003410063     0.000005148204
      11        0.000005457221    -0.000005983971     0.000003126557
      12       -0.000006374464    -0.000000259694    -0.000006034633
      13        0.000005755707     0.000009211661     0.000003250026
      14        0.000003346478    -0.000012800351     0.000014046097
      15        0.000004880557     0.000005577487     0.000000555468
      16        0.000005577326    -0.000004566102    -0.000010129704
      17       -0.000009529522    -0.000003032263    -0.000016337615
      18        0.000000284337    -0.000004711630     0.000000759552
      19        0.000000527338     0.000000570996     0.000004571304
      20       -0.000001561166     0.000001458514     0.000009352005
      21        0.000001092159     0.000003046043    -0.000005512403
      22       -0.000002061447    -0.000002746964    -0.000003169678
      23        0.000000394326    -0.000005137505     0.000000055034
      24       -0.000001996608     0.000010198545     0.000007946022
      25        0.000002633246     0.000000376775     0.000004435192

  **** Optimization is complete! (in 7 steps) ****
    Final optimized geometry and variables:
    Molecular point group: c1

    Geometry (in Angstrom), charge = 0, multiplicity = 1:

    H           -1.870294984413     0.603327033937     4.013158287207
    C           -1.885700951310     0.458111730622     2.926118843908
    C           -1.273885201970     1.569587069182     2.103651772766
    O           -2.358347580113    -0.528424254550     2.475832758257
    C           -0.047413692692     1.133613078365     1.286557703531
    H           -2.045101274096     1.954367033245     1.443564285715
    H           -0.994923240883     2.374060617177     2.774501418888
    C           -0.362939221825     0.276522560032     0.063045997243
    H            0.468064156081     2.033233893845     0.965772196825
    H            0.645579449799     0.604620631676     1.935659603163
    C            0.889295664657    -0.112817159978    -0.718702046846
    H           -1.036178088241     0.828830291103    -0.588505936956
    H           -0.896335413613    -0.614578428850     0.367609754078
    C            0.577352735917    -0.950624918872    -1.957324147004
    H            1.425671685120     0.787160885879    -1.004259847192
    H            1.557337842088    -0.673924058386    -0.068762202314
    C            1.804436818562    -1.443714663385    -2.726033211521
    H           -0.057220522354    -0.376231279088    -2.628540689468
    H           -0.008131346696    -1.813363291228    -1.652826498975
    C            2.632864769268    -0.341531278166    -3.381867761325
    H            1.471954008096    -2.132885271118    -3.496218817853
    H            2.437843746443    -2.020921381564    -2.057508039194
    H            2.023526937003     0.257116750918    -4.051563223667
    H            3.072916532784     0.325533458286    -2.650382360764
    H            3.443309842421    -0.764735964460    -3.964361633699

  Mulliken Charges: (a.u.)
   Center  Symbol    Alpha    Beta     Spin     Total
       1     H     0.45137  0.45137  0.00000  0.09726
       2     C     2.91745  2.91745  0.00000  0.16511
       3     C     3.09686  3.09686  0.00000 -0.19372
       4     O     4.16787  4.16787  0.00000 -0.33575
       5     C     3.09879  3.09879  0.00000 -0.19759
       6     H     0.44328  0.44328  0.00000  0.11344
       7     H     0.44143  0.44143  0.00000  0.11713
       8     C     3.09095  3.09095  0.00000 -0.18190
       9     H     0.44653  0.44653  0.00000  0.10694
      10     H     0.45177  0.45177  0.00000  0.09645
      11     C     3.09282  3.09282  0.00000 -0.18564
      12     H     0.45705  0.45705  0.00000  0.08590
      13     H     0.43594  0.43594  0.00000  0.12812
      14     C     3.09507  3.09507  0.00000 -0.19014
      15     H     0.45419  0.45419  0.00000  0.09161
      16     H     0.45474  0.45474  0.00000  0.09052
      17     C     3.09049  3.09049  0.00000 -0.18098
      18     H     0.45437  0.45437  0.00000  0.09126
      19     H     0.44717  0.44717  0.00000  0.10566
      20     C     3.15270  3.15270  0.00000 -0.30539
      21     H     0.44835  0.44835  0.00000  0.10330
      22     H     0.45481  0.45481  0.00000  0.09038
      23     H     0.45513  0.45513  0.00000  0.08974
      24     H     0.45439  0.45439  0.00000  0.09123
      25     H     0.44647  0.44647  0.00000  0.10705

   Total alpha = 36.00000, Total beta = 36.00000, Total charge =  0.00000

*** Psi4 exiting successfully. Buy a developer a beer!
