  ==> Input File <==

--------------------------------------------------------------------------
set {
	reference rhf
	basis cc-pvtz
}

set_num_threads( 4 )
memory 2 gb

molecule MOL {
0 1

H	 -2.676449	 1.694028	 -1.472301
O	 -2.589558	 2.095469	 -0.626283
C	 -1.268760	 1.996021	 -0.191279
C	 -0.793473	 0.591216	 0.050087
H	 -1.207458	 2.557100	 0.733781
H	 -0.591928	 2.480357	 -0.892717
C	 -1.534243	 -0.493009	 -0.013340
H	 0.252322	 0.507155	 0.296043
H	 -1.101195	 -1.466332	 -0.144046
H	 -2.604242	 -0.437780	 0.050785

	symmetry c1
}
set optking {
	frozen_dihedral = ("
		3 4 7 9
	")
}

ee = optimize('scf')
oeprop('DIPOLE', 'QUADRUPOLE', 'MULLIKEN_CHARGES')
f=open( 'psi4out.xyz', 'w' )
f.write( "10  " )
f.write( str(ee) + "\n" )
f.write( MOL.save_string_xyz() )
f.close()
--------------------------------------------------------------------------

    Molecular point group: c1
  Charge       = 0
  Multiplicity = 1
  Basis Set: CC-PVTZ
  Basis Set:
  @DF-RHF Final Energy:  -191.99031290676402
    Total Energy =                       -191.9903129067639611
    Molecular point group: c1
  Basis Set: CC-PVTZ
  Basis Set:
  Basis Set: CC-PVTZ
  Basis Set:
  @DF-RHF Final Energy:  -191.99489007020745
    Total Energy =                       -191.9948900702075321
  Basis Set: CC-PVTZ
  Basis Set:
  Basis Set: CC-PVTZ
  Basis Set:
  @DF-RHF Final Energy:  -191.99500972373744
    Total Energy =                       -191.9950097237373541
  Basis Set: CC-PVTZ
  Basis Set:
  Basis Set: CC-PVTZ
  Basis Set:
  @DF-RHF Final Energy:  -191.99502935448811
    Total Energy =                       -191.9950293544881674
  Basis Set: CC-PVTZ
  Basis Set:
  Charge       = 0
  Multiplicity = 1
  Basis Set: CC-PVTZ
  Basis Set:

    Orbital Energies (a.u.)
    -----------------------

    Doubly Occupied:

       1A    -20.554762     2A    -11.279326     3A    -11.232341
       4A    -11.217815     5A     -1.375562     6A     -1.063078
       7A     -0.933472     8A     -0.772592     9A     -0.693586
      10A     -0.665164    11A     -0.621537    12A     -0.575485
      13A     -0.538882    14A     -0.500030    15A     -0.452209
      16A     -0.368040

  @DF-RHF Final Energy:  -191.99502970292366

   => Energetics <=

    Nuclear Repulsion Energy =            119.5295883897961744
    One-Electron Energy =                -497.3614707930992722
    Two-Electron Energy =                 185.8368527003795236
    DFT Exchange-Correlation Energy =       0.0000000000000000
    Empirical Dispersion Energy =           0.0000000000000000
    PCM Polarization Energy =               0.0000000000000000
    EFP Energy =                            0.0000000000000000
    Total Energy =                       -191.9950297029235742
    Molecular point group: c1
  Basis Set: CC-PVTZ
  Basis Set:

  -Total Gradient:
     Atom            X                  Y                   Z
    ------   -----------------  -----------------  -----------------
       1        0.000002545909    -0.000009054295     0.000001825821
       2       -0.000016259436     0.000002202210    -0.000000238244
       3        0.002936922308    -0.000931287153    -0.009062332554
       4       -0.004757506010     0.002121373948     0.009846016658
       5       -0.000009329404    -0.000017837138    -0.000001482851
       6        0.000002953415    -0.000009637961     0.000006012191
       7        0.001584803691    -0.002352565252     0.011816799847
       8        0.000008425827    -0.000002923407    -0.000019034835
       9        0.000266515754     0.001204736573    -0.012585541253
      10       -0.000019072057    -0.000005007524    -0.000002024781

  **** Optimization is complete! (in 5 steps) ****
    Final optimized geometry and variables:
    Molecular point group: c1

    Geometry (in Angstrom), charge = 0, multiplicity = 1:

    H           -1.128463351236     0.538167538388    -1.179251025127
    O           -0.995810363412     1.004928591969    -0.373631256631
    C            0.335204884633     0.891162261037     0.021839114828
    C            0.787603136034    -0.511952141093     0.314946962434
    H            0.448139535113     1.520121494120     0.897089651630
    H            1.003946876917     1.293081807364    -0.736943882830
    C            0.062167094187    -1.603012468444     0.195566851215
    H            1.847735620815    -0.603778329084     0.488447339312
    H            0.518011154788    -2.571361585934     0.113242834854
    H           -0.994432414280    -1.553572031812     0.008579143777

  Mulliken Charges: (a.u.)
   Center  Symbol    Alpha    Beta     Spin     Total
       1     H     0.39116  0.39116  0.00000  0.21769
       2     O     4.19921  4.19921  0.00000 -0.39843
       3     C     2.94897  2.94897  0.00000  0.10206
       4     C     3.08141  3.08141  0.00000 -0.16281
       5     H     0.45331  0.45331  0.00000  0.09339
       6     H     0.46920  0.46920  0.00000  0.06161
       7     C     3.17761  3.17761  0.00000 -0.35523
       8     H     0.42460  0.42460  0.00000  0.15079
       9     H     0.42756  0.42756  0.00000  0.14488
      10     H     0.42697  0.42697  0.00000  0.14605

   Total alpha = 16.00000, Total beta = 16.00000, Total charge = -0.00000
