                              Psi4 1.0.54 Driver

  ==> Input File <==

--------------------------------------------------------------------------
set {
	reference rhf
	basis cc-pvtz
}

set_num_threads( 4 )
memory 2 gb

molecule MOL {
0 1

O	 1.216069	 1.304886	 0.000821
C	 1.121787	 0.124983	 0.000110
C	 -0.170912	 -0.649867	 -0.000147
O	 2.167739	 -0.685178	 -0.000678
C	 -1.413045	 0.229353	 0.001137
H	 -0.152877	 -1.303435	 -0.866175
H	 -0.152278	 -1.305116	 0.864586
C	 -1.439133	 1.196805	 1.180825
H	 -2.296472	 -0.398876	 0.021789
H	 -1.460530	 0.783595	 -0.929511
C	 -2.681020	 2.081370	 1.193132
H	 -1.387959	 0.635827	 2.110301
H	 -0.551499	 1.823438	 1.154882
H	 -3.584889	 1.484757	 1.253622
H	 -2.672717	 2.757086	 2.040490
H	 -2.742316	 2.681072	 0.291366
C	 3.449556	 -0.089977	 -0.000570
H	 3.585694	 0.522473	 -0.879546
H	 4.155805	 -0.904274	 -0.001389
H	 3.586173	 0.521118	 0.879272

	symmetry c1
}
set optking {
	frozen_dihedral = ("
		9 5 3 6
	")
}

ee,wfn = optimize('scf', return_wfn=True)
oeprop( wfn, 'DIPOLE', 'QUADRUPOLE', 'MULLIKEN_CHARGES')
f=open( 'psi4out.xyz', 'w' )
f.write( "20  " )
f.write( str(ee) + "\n" )
f.write( MOL.save_string_xyz() )
f.close()
--------------------------------------------------------------------------

    Molecular point group: c1
  Charge       = 0
  Multiplicity = 1
  Basis Set: CC-PVTZ
  Basis Set:
  @DF-RHF Final Energy:  -384.07845691260746
    Total Energy =                       -384.0784569126079759
    Molecular point group: c1
  Basis Set: CC-PVTZ
  Basis Set:
  Basis Set: CC-PVTZ
  Basis Set:
  @DF-RHF Final Energy:  -384.08115216277105
    Total Energy =                       -384.0811521627716729
  Basis Set: CC-PVTZ
  Basis Set:
  Basis Set: CC-PVTZ
  Basis Set:
  @DF-RHF Final Energy:  -384.08009668385353
    Total Energy =                       -384.0800966838540944
  Basis Set: CC-PVTZ
  Basis Set:
  Basis Set: CC-PVTZ
  Basis Set:
  @DF-RHF Final Energy:  -384.08174415190109
    Total Energy =                       -384.0817441519009208
  Basis Set: CC-PVTZ
  Basis Set:
  @DF-RHF Final Energy:  -384.08193794042654
    Total Energy =                       -384.0819379404264282
  Basis Set: CC-PVTZ
  Basis Set:
  @DF-RHF Final Energy:  -384.08205802195221
    Total Energy =                       -384.0820580219524345
  Basis Set: CC-PVTZ
  Basis Set:
  Basis Set: CC-PVTZ
  Basis Set:
  @DF-RHF Final Energy:  -384.08211468081430
    Total Energy =                       -384.0821146808136746
  Basis Set: CC-PVTZ
  Basis Set:
  Basis Set: CC-PVTZ
  Basis Set:
  @DF-RHF Final Energy:  -384.08211672394594
    Total Energy =                       -384.0821167239457736
  Basis Set: CC-PVTZ
  Basis Set:
  Charge       = 0
  Multiplicity = 1
  Basis Set: CC-PVTZ
  Basis Set:

    Orbital Energies (a.u.)
    -----------------------

    Doubly Occupied:

       1A    -20.597833     2A    -20.533485     3A    -11.365223
       4A    -11.279048     5A    -11.234390     6A    -11.219498
       7A    -11.212257     8A    -11.205719     9A     -1.473145
      10A     -1.366031    11A     -1.088198    12A     -1.023002
      13A     -0.970018    14A     -0.885257    15A     -0.806814
      16A     -0.768025    17A     -0.701787    18A     -0.683960
      19A     -0.675460    20A     -0.635800    21A     -0.606070
      22A     -0.588844    23A     -0.582191    24A     -0.539697
      25A     -0.536963    26A     -0.518773    27A     -0.513606
      28A     -0.478088    29A     -0.472852    30A     -0.464314
      31A     -0.459049    32A     -0.437231

  @DF-RHF Final Energy:  -384.08211705127928

   => Energetics <=

    Nuclear Repulsion Energy =            390.1924373722349628
    One-Electron Energy =               -1296.7038578915617109
    Two-Electron Energy =                 522.4293034680475785
    DFT Exchange-Correlation Energy =       0.0000000000000000
    Empirical Dispersion Energy =           0.0000000000000000
    PCM Polarization Energy =               0.0000000000000000
    EFP Energy =                            0.0000000000000000
    Total Energy =                       -384.0821170512791696
    Molecular point group: c1
  Basis Set: CC-PVTZ
  Basis Set:

  -Total Gradient:
     Atom            X                  Y                   Z
    ------   -----------------  -----------------  -----------------
       1        0.000009237753    -0.000062565517     0.000036159170
       2        0.000011417877     0.000048774012    -0.000027701620
       3       -0.001807755979    -0.002417380802     0.002332810778
       4       -0.000000997614     0.000032246976    -0.000014390657
       5        0.000392996455     0.000464552463    -0.003666484898
       6        0.001440679195     0.001922714249    -0.001392229979
       7        0.000004074088    -0.000003393892    -0.000006455036
       8        0.000003209687    -0.000006004184    -0.000009322678
       9       -0.000020709962     0.000018350003     0.002744217259
      10       -0.000011217832     0.000006101885    -0.000011096143
      11        0.000009118459     0.000007171488     0.000004932673
      12       -0.000003843698    -0.000000787096     0.000006026235
      13       -0.000014059511    -0.000008335746     0.000001275886
      14       -0.000001119917    -0.000001503390     0.000002284463
      15       -0.000000139943     0.000005230650     0.000000862468
      16       -0.000002774808     0.000000658986    -0.000004267123
      17       -0.000046418017    -0.000028249891     0.000015209156
      18        0.000010428488     0.000006913376    -0.000032973247
      19        0.000024340484    -0.000013896147     0.000006851687
      20        0.000003534798     0.000029402584     0.000014291607

  **** Optimization is complete! (in 9 steps) ****
    Final optimized geometry and variables:
    Molecular point group: c1

    Geometry (in Angstrom), charge = 0, multiplicity = 1:

    O            0.988695650753     0.748138440342    -0.827676570113
    C            0.838152630452    -0.336314280372    -0.376130228810
    C           -0.475557298401    -1.077219876966    -0.311654370307
    O            1.833956023535    -1.067886974580     0.093897230442
    C           -1.705622865075    -0.175236918844    -0.331478021716
    H           -0.469193287393    -1.714351769243    -1.192055141727
    H           -0.467361326793    -1.729092040398     0.551643135847
    C           -1.811744811228     0.761000876742     0.871861326456
    H           -2.581890627834    -0.816700351724    -0.336685344967
    H           -1.717395244558     0.402369313456    -1.247565486945
    C           -3.084504621889     1.600764820840     0.847279688611
    H           -1.788281971501     0.171562687472     1.785488633941
    H           -0.950926607249     1.417613211531     0.899986685814
    H           -3.970474232073     0.974096360476     0.848687119243
    H           -3.139526646058     2.252660399769     1.711360973443
    H           -3.121876613824     2.224069079225    -0.039629412898
    C            3.133467001118    -0.515970081456     0.024537960544
    H            3.407533422165    -0.313760545452    -1.000329364943
    H            3.793726208944    -1.255528936784     0.447620568957
    H            3.188483685011     0.401356701217     0.591586813358

  Mulliken Charges: (a.u.)
   Center  Symbol    Alpha    Beta     Spin     Total
       1     O     4.20193  4.20193  0.00000 -0.40386
       2     C     2.80344  2.80344  0.00000  0.39312
       3     C     3.10824  3.10824  0.00000 -0.21649
       4     O     4.14578  4.14578  0.00000 -0.29157
       5     C     3.08689  3.08689  0.00000 -0.17379
       6     H     0.43609  0.43609  0.00000  0.12782
       7     H     0.43638  0.43638  0.00000  0.12723
       8     C     3.08900  3.08900  0.00000 -0.17800
       9     H     0.44807  0.44807  0.00000  0.10386
      10     H     0.44578  0.44578  0.00000  0.10843
      11     C     3.15104  3.15104  0.00000 -0.30208
      12     H     0.45664  0.45664  0.00000  0.08672
      13     H     0.44342  0.44342  0.00000  0.11316
      14     H     0.45670  0.45670  0.00000  0.08660
      15     H     0.44816  0.44816  0.00000  0.10367
      16     H     0.45262  0.45262  0.00000  0.09475
      17     C     3.03602  3.03602  0.00000 -0.07205
      18     H     0.45443  0.45443  0.00000  0.09113
      19     H     0.44523  0.44523  0.00000  0.10954
      20     H     0.45411  0.45411  0.00000  0.09179

   Total alpha = 32.00000, Total beta = 32.00000, Total charge =  0.00000

*** Psi4 exiting successfully. Buy a developer a beer!
