  ==> Input File <==

--------------------------------------------------------------------------
set {
	reference rhf
	basis 6-31G*
}

set_num_threads( 1 )
memory 2 gb

molecule MOL {
0 1

O	 2.862325	 1.357334	 0.000267
C	 2.843464	 0.164689	 -0.000222
C	 1.546494	 -0.624492	 -0.000609
C	 4.124123	 -0.644674	 -0.000428
C	 0.291004	 0.242674	 0.000989
H	 1.557904	 -1.283758	 -0.867573
H	 1.558622	 -1.285963	 0.864672
C	 -0.519076	 0.103839	 -1.289072
H	 0.575173	 1.279759	 0.148744
H	 -0.324660	 -0.024269	 0.854129
C	 -1.779775	 0.970017	 -1.299286
H	 0.105354	 0.369708	 -2.140805
H	 -0.799371	 -0.938798	 -1.431929
C	 -2.595422	 0.836755	 -2.586521
H	 -1.500713	 2.012597	 -1.157262
H	 -2.405165	 0.704510	 -0.448763
C	 -3.853032	 1.705142	 -2.589284
H	 -1.971680	 1.103048	 -3.437319
H	 -2.876250	 -0.204760	 -2.728793
H	 -3.603263	 2.757000	 -2.482698
H	 -4.409387	 1.589558	 -3.514384
H	 -4.514798	 1.439163	 -1.769854
H	 4.165367	 -1.288615	 -0.874074
H	 4.976217	 0.020734	 -0.001915
H	 4.166763	 -1.286207	 0.874930

	symmetry c1
}
set optking {
	frozen_dihedral = ("
		9 5 8 12,
		15 11 8 12,
		15 11 14 18,
		1 2 3 6
	")
}

ee = energy('scf')
oeprop('DIPOLE', 'QUADRUPOLE', 'MULLIKEN_CHARGES')
f=open( 'psi4out.xyz', 'w' )
f.write( "25  " )
f.write( str(ee) + "\n" )
f.write( MOL.save_string_xyz() )
f.close()
--------------------------------------------------------------------------

    Molecular point group: c1

    Geometry (in Angstrom), charge = 0, multiplicity = 1:

       Center              X                  Y                   Z               Mass
    ------------   -----------------  -----------------  -----------------  -----------------
           O          2.541261869826     0.890893663564     0.869947402791    15.994914619560
           C          2.522400869826    -0.301751336436     0.869458402791    12.000000000000
           C          1.225430869826    -1.090932336436     0.869071402791    12.000000000000
           C          3.803059869826    -1.111114336436     0.869252402791    12.000000000000
           C         -0.030059130174    -0.223766336436     0.870669402791    12.000000000000
           H          1.236840869826    -1.750198336436     0.002107402791     1.007825032070
           H          1.237558869826    -1.752403336436     1.734352402791     1.007825032070
           C         -0.840139130174    -0.362601336436    -0.419391597209    12.000000000000
           H          0.254109869826     0.813318663564     1.018424402791     1.007825032070
           H         -0.645723130174    -0.490709336436     1.723809402791     1.007825032070
           C         -2.100838130174     0.503576663564    -0.429605597209    12.000000000000
           H         -0.215709130174    -0.096732336436    -1.271124597209     1.007825032070
           H         -1.120434130174    -1.405238336436    -0.562248597209     1.007825032070
           C         -2.916485130174     0.370314663564    -1.716840597209    12.000000000000
           H         -1.821776130174     1.546156663564    -0.287581597209     1.007825032070
           H         -2.726228130174     0.238069663564     0.420917402791     1.007825032070
           C         -4.174095130174     1.238701663564    -1.719603597209    12.000000000000
           H         -2.292743130174     0.636607663564    -2.567638597209     1.007825032070
           H         -3.197313130174    -0.671200336436    -1.859112597209     1.007825032070
           H         -3.924326130174     2.290559663564    -1.613017597209     1.007825032070
           H         -4.730450130174     1.123117663564    -2.644703597209     1.007825032070
           H         -4.835861130174     0.972722663564    -0.900173597209     1.007825032070
           H          3.844303869826    -1.755055336436    -0.004393597209     1.007825032070
           H          4.655153869826    -0.445706336436     0.867765402791     1.007825032070
           H          3.845699869826    -1.752647336436     1.744610402791     1.007825032070

  Charge       = 0
  Multiplicity = 1
  Basis Set: 6-31G*
  Basis Set:

    Orbital Energies (a.u.)
    -----------------------

    Doubly Occupied:

       1A    -20.551441     2A    -11.327251     3A    -11.230381
       4A    -11.229098     5A    -11.214629     6A    -11.213447
       7A    -11.212170     8A    -11.211035     9A    -11.206796
      10A     -1.397259    11A     -1.091711    12A     -1.055117
      13A     -1.014107    14A     -0.968072    15A     -0.888988
      16A     -0.814323    17A     -0.789367    18A     -0.729652
      19A     -0.668358    20A     -0.641514    21A     -0.632705
      22A     -0.622854    23A     -0.592751    24A     -0.582732
      25A     -0.574688    26A     -0.557936    27A     -0.533477
      28A     -0.525056    29A     -0.514008    30A     -0.495391
      31A     -0.483362    32A     -0.470568    33A     -0.462794
      34A     -0.458655    35A     -0.442425    36A     -0.402509

  @DF-RHF Final Energy:  -387.13180353796082

   => Energetics <=

    Nuclear Repulsion Energy =            442.5372895826455419
    One-Electron Energy =               -1401.7248389814892562
    Two-Electron Energy =                 572.0557458608809611
    DFT Exchange-Correlation Energy =       0.0000000000000000
    Empirical Dispersion Energy =           0.0000000000000000
    PCM Polarization Energy =               0.0000000000000000
    EFP Energy =                            0.0000000000000000
    Total Energy =                       -387.1318035379626963

  Mulliken Charges: (a.u.)
   Center  Symbol    Alpha    Beta     Spin     Total
       1     O     4.26021  4.26021  0.00000 -0.52043
       2     C     2.73854  2.73854  0.00000  0.52292
       3     C     3.21493  3.21493  0.00000 -0.42987
       4     C     3.28698  3.28698  0.00000 -0.57395
       5     C     3.15802  3.15802  0.00000 -0.31604
       6     H     0.40703  0.40703  0.00000  0.18594
       7     H     0.40668  0.40668  0.00000  0.18665
       8     C     3.15592  3.15592  0.00000 -0.31184
       9     H     0.39279  0.39279  0.00000  0.21442
      10     H     0.42106  0.42106  0.00000  0.15789
      11     C     3.15166  3.15166  0.00000 -0.30331
      12     H     0.42145  0.42145  0.00000  0.15710
      13     H     0.42574  0.42574  0.00000  0.14851
      14     C     3.15151  3.15151  0.00000 -0.30302
      15     H     0.42053  0.42053  0.00000  0.15894
      16     H     0.42449  0.42449  0.00000  0.15102
      17     C     3.23927  3.23927  0.00000 -0.47854
      18     H     0.42278  0.42278  0.00000  0.15444
      19     H     0.42423  0.42423  0.00000  0.15153
      20     H     0.42102  0.42102  0.00000  0.15797
      21     H     0.41979  0.41979  0.00000  0.16043
      22     H     0.42215  0.42215  0.00000  0.15570
      23     H     0.40840  0.40840  0.00000  0.18319
      24     H     0.39638  0.39638  0.00000  0.20724
      25     H     0.40844  0.40844  0.00000  0.18312

   Total alpha = 36.00000, Total beta = 36.00000, Total charge = -0.00000
