  ==> Input File <==

--------------------------------------------------------------------------
set {
	reference rhf
	basis 6-31G*
}

set_num_threads( 4 )
memory 2 gb

molecule MOL {
0 1

H	 -2.698709	 -0.000305	 0.034435
C	 -1.693833	 0.000034	 0.434417
O	 -0.828952	 -0.000968	 -0.659236
H	 -1.574200	 0.882896	 1.055746
H	 -1.574147	 -0.881698	 1.057355
C	 -0.410721	 1.235459	 -1.189175
C	 -1.568385	 2.044723	 -1.770400
C	 0.423649	 2.044915	 -0.198434
H	 0.236114	 0.945953	 -2.008822
H	 -2.167269	 1.424963	 -2.429023
H	 -1.184336	 2.881147	 -2.345844
H	 -2.215112	 2.449706	 -0.998456
H	 1.203053	 1.425132	 0.231514
H	 0.894668	 2.880923	 -0.706072
H	 -0.176828	 2.450584	 0.609465

	symmetry c1
}
set optking {
	frozen_dihedral = ("
		6 3 2 1
	")
}

ee = optimize('scf')
oeprop('DIPOLE', 'QUADRUPOLE', 'MULLIKEN_CHARGES')
f=open( 'psi4out.xyz', 'w' )
f.write( "15  " )
f.write( str(ee) + "\n" )
f.write( MOL.save_string_xyz() )
f.close()
--------------------------------------------------------------------------

    Molecular point group: c1
  Charge       = 0
  Multiplicity = 1
  Basis Set: 6-31G*
  Basis Set:
  @DF-RHF Final Energy:  -232.13468978363838
    Total Energy =                       -232.1346897836383505
    Molecular point group: c1
  Basis Set: 6-31G*
  Basis Set:
  Basis Set: 6-31G*
  Basis Set:
  @DF-RHF Final Energy:  -232.13633552378906
    Total Energy =                       -232.1363355237889436
  Basis Set: 6-31G*
  Basis Set:
  Basis Set: 6-31G*
  Basis Set:
  @DF-RHF Final Energy:  -232.13680576846753
    Total Energy =                       -232.1368057684676387
  Basis Set: 6-31G*
  Basis Set:
  Basis Set: 6-31G*
  Basis Set:
  @DF-RHF Final Energy:  -232.13681019170210
    Total Energy =                       -232.1368101917020113
  Basis Set: 6-31G*
  Basis Set:
  Basis Set: 6-31G*
  Basis Set:
  @DF-RHF Final Energy:  -232.13682412087292
    Total Energy =                       -232.1368241208728591
  Basis Set: 6-31G*
  Basis Set:
  Basis Set: 6-31G*
  Basis Set:
  @DF-RHF Final Energy:  -232.13682526692762
    Total Energy =                       -232.1368252669275876
  Basis Set: 6-31G*
  Basis Set:
  Charge       = 0
  Multiplicity = 1
  Basis Set: 6-31G*
  Basis Set:

    Orbital Energies (a.u.)
    -----------------------

    Doubly Occupied:

       1A    -20.547267     2A    -11.274560     3A    -11.261383
       4A    -11.211290     5A    -11.209762     6A     -1.369431
       7A     -1.050124     8A     -0.940136     9A     -0.930935
      10A     -0.781379    11A     -0.675389    12A     -0.639518
      13A     -0.632400    14A     -0.570809    15A     -0.563683
      16A     -0.552871    17A     -0.536398    18A     -0.500077
      19A     -0.497039    20A     -0.442740    21A     -0.404585

  @DF-RHF Final Energy:  -232.13682553041576

   => Energetics <=

    Nuclear Repulsion Energy =            198.7783409716462302
    One-Electron Energy =                -708.6467800030707167
    Two-Electron Energy =                 277.7316135010084963
    DFT Exchange-Correlation Energy =       0.0000000000000000
    Empirical Dispersion Energy =           0.0000000000000000
    PCM Polarization Energy =               0.0000000000000000
    EFP Energy =                            0.0000000000000000
    Total Energy =                       -232.1368255304159902
    Molecular point group: c1
  Basis Set: 6-31G*
  Basis Set:

  -Total Gradient:
     Atom            X                  Y                   Z
    ------   -----------------  -----------------  -----------------
       1        0.000092261347    -0.001987886692     0.000124683475
       2        0.000452709731     0.002630738487     0.000384001435
       3       -0.001728899833    -0.000769614427    -0.001633121044
       4       -0.000016671468    -0.000003098599     0.000017446127
       5        0.000005910231     0.000004890456    -0.000007558986
       6        0.001187320251     0.000089558944     0.001119862556
       7        0.000000960668     0.000006250259     0.000001709351
       8       -0.000003820587     0.000010678269    -0.000007182165
       9        0.000004672360     0.000011963469     0.000002228403
      10        0.000008424312    -0.000000396461     0.000000976691
      11        0.000000712918     0.000005655695    -0.000006532159
      12       -0.000005859385     0.000001311146     0.000006790775
      13        0.000002303299    -0.000001090224    -0.000001621078
      14       -0.000000629075    -0.000000486419     0.000002445624
      15        0.000000605231     0.000001526100    -0.000004129004

  **** Optimization is complete! (in 7 steps) ****
    Final optimized geometry and variables:
    Molecular point group: c1

    Geometry (in Angstrom), charge = 0, multiplicity = 1:

    H           -1.932012126392    -1.115626896198     0.654293822379
    C           -0.924955136401    -1.042612035482     1.055855677090
    O            0.030303899912    -1.055202935497     0.037493059014
    H           -0.861335342482    -0.163374922785     1.687408371407
    H           -0.747619449647    -1.914567446524     1.672710573951
    C            0.431232949954     0.171576920135    -0.526672998408
    C           -0.743080232806     0.965294889302    -1.094686942569
    C            1.285731868150     0.993822243455     0.435999188880
    H            1.062882229815    -0.128326587671    -1.354364145249
    H           -1.331534248965     0.343110865843    -1.760460046282
    H           -0.381225193866     1.819321247660    -1.658606356650
    H           -1.395794753030     1.341037622366    -0.312612846933
    H            2.088451822110     0.383642376177     0.834854655816
    H            1.725141466858     1.839676692563    -0.083909047970
    H            0.709506147389     1.386337201696     1.267637706716

  Mulliken Charges: (a.u.)
   Center  Symbol    Alpha    Beta     Spin     Total
       1     H     0.42622  0.42622  0.00000  0.14756
       2     C     3.08062  3.08062  0.00000 -0.16125
       3     O     4.31324  4.31324  0.00000 -0.62647
       4     H     0.43019  0.43019  0.00000  0.13962
       5     H     0.41451  0.41451  0.00000  0.17097
       6     C     2.91015  2.91015  0.00000  0.17971
       7     C     3.25370  3.25370  0.00000 -0.50740
       8     C     3.24985  3.24985  0.00000 -0.49971
       9     H     0.41551  0.41551  0.00000  0.16899
      10     H     0.41178  0.41178  0.00000  0.17643
      11     H     0.41882  0.41882  0.00000  0.16235
      12     H     0.42138  0.42138  0.00000  0.15724
      13     H     0.41133  0.41133  0.00000  0.17734
      14     H     0.42065  0.42065  0.00000  0.15871
      15     H     0.42205  0.42205  0.00000  0.15590

   Total alpha = 21.00000, Total beta = 21.00000, Total charge =  0.00000
