  ==> Input File <==

--------------------------------------------------------------------------
set {
	reference rhf
	basis 6-31G*
}

set_num_threads( 4 )
memory 2 gb

molecule MOL {
0 1

H	 -0.132624	 -0.688078	 -0.861997
N	 -0.626943	 -0.667432	 -0.000092
C	 -1.979713	 -0.158776	 0.000050
C	 0.000291	 -1.118513	 1.113133
H	 -2.520245	 -0.492427	 -0.879443
H	 -1.934741	 0.918111	 -0.004428
H	 -2.517790	 -0.485056	 0.883818
C	 1.416594	 -1.606724	 0.883519
O	 -0.514318	 -1.133988	 2.197177
H	 2.037428	 -0.808338	 0.489186
H	 1.825673	 -1.946078	 1.823301
H	 1.429113	 -2.424769	 0.170090

	symmetry c1
}
set optking {
	frozen_dihedral = ("
		4 2 3 5
	")
}

ee = optimize('scf')
oeprop('DIPOLE', 'QUADRUPOLE', 'MULLIKEN_CHARGES')
f=open( 'psi4out.xyz', 'w' )
f.write( "12  " )
f.write( str(ee) + "\n" )
f.write( MOL.save_string_xyz() )
f.close()
--------------------------------------------------------------------------

    Molecular point group: c1
  Charge       = 0
  Multiplicity = 1
  Basis Set: 6-31G*
  Basis Set:
  @DF-RHF Final Energy:  -247.00471695582888
    Total Energy =                       -247.0047169558289397
    Molecular point group: c1
  Basis Set: 6-31G*
  Basis Set:
  Basis Set: 6-31G*
  Basis Set:
  @DF-RHF Final Energy:  -247.00538640466044
    Total Energy =                       -247.0053864046603280
  Basis Set: 6-31G*
  Basis Set:
  Basis Set: 6-31G*
  Basis Set:
  @DF-RHF Final Energy:  -247.00547459593651
    Total Energy =                       -247.0054745959366187
  Basis Set: 6-31G*
  Basis Set:
  Basis Set: 6-31G*
  Basis Set:
  @DF-RHF Final Energy:  -247.00546173919292
    Total Energy =                       -247.0054617391928105
  Basis Set: 6-31G*
  Basis Set:
  @DF-RHF Final Energy:  -247.00553240527924
    Total Energy =                       -247.0055324052792685
  @DF-RHF Final Energy:  -247.00554155683656
    Total Energy =                       -247.0055415568366470
  @DF-RHF Final Energy:  -247.00554895307442
    Total Energy =                       -247.0055489530741966
  @DF-RHF Final Energy:  -247.00555050273817
    Total Energy =                       -247.0055505027383447
  @DF-RHF Final Energy:  -247.00555270504057
    Total Energy =                       -247.0055527050405431
  @DF-RHF Final Energy:  -247.00562232188997
    Total Energy =                       -247.0056223218899731
  @DF-RHF Final Energy:  -247.00564562480062
    Total Energy =                       -247.0056456248007066
  @DF-RHF Final Energy:  -247.00556192281798
    Total Energy =                       -247.0055619228178330
  Basis Set: 6-31G*
  Basis Set:
  @DF-RHF Final Energy:  -247.00565040661917
    Total Energy =                       -247.0056504066193384
  Basis Set: 6-31G*
  Basis Set:
  Basis Set: 6-31G*
  Basis Set:
  @DF-RHF Final Energy:  -247.00567044608187
    Total Energy =                       -247.0056704460819219
  Basis Set: 6-31G*
  Basis Set:
  Basis Set: 6-31G*
  Basis Set:
  @DF-RHF Final Energy:  -247.00567162843771
    Total Energy =                       -247.0056716284378808
  Basis Set: 6-31G*
  Basis Set:
  Charge       = 0
  Multiplicity = 1
  Basis Set: 6-31G*
  Basis Set:

    Orbital Energies (a.u.)
    -----------------------

    Doubly Occupied:

       1A    -20.513605     2A    -15.583125     3A    -11.342944
       4A    -11.254183     5A    -11.230060     6A     -1.383191
       7A     -1.228882     8A     -1.015268     9A     -0.932665
      10A     -0.787626    11A     -0.689353    12A     -0.648672
      13A     -0.632159    14A     -0.585968    15A     -0.579702
      16A     -0.553711    17A     -0.545598    18A     -0.504909
      19A     -0.412268    20A     -0.384859

  @DF-RHF Final Energy:  -247.00567171048698

   => Energetics <=

    Nuclear Repulsion Energy =            181.3415691472956723
    One-Electron Energy =                -695.0769829994466136
    Two-Electron Energy =                 266.7297421416639054
    DFT Exchange-Correlation Energy =       0.0000000000000000
    Empirical Dispersion Energy =           0.0000000000000000
    PCM Polarization Energy =               0.0000000000000000
    EFP Energy =                            0.0000000000000000
    Total Energy =                       -247.0056717104870359
    Molecular point group: c1
  Basis Set: 6-31G*
  Basis Set:

  -Total Gradient:
     Atom            X                  Y                   Z
    ------   -----------------  -----------------  -----------------
       1       -0.000006401383     0.000000901107     0.000003300423
       2        0.000104223991     0.000234060866     0.000023958875
       3        0.000042462559     0.000084167841    -0.000178044221
       4       -0.000086041999    -0.000177147022     0.000007974099
       5       -0.000067859262    -0.000141717186     0.000140858378
       6        0.000002829171     0.000001136296     0.000000102277
       7        0.000005585993    -0.000002147225    -0.000001727780
       8       -0.000011244082    -0.000001323408     0.000001021661
       9        0.000011248334    -0.000001388765    -0.000003260366
      10        0.000000684904     0.000001011586     0.000002749708
      11        0.000003753779     0.000003077956     0.000000791027
      12        0.000000757992    -0.000000632045     0.000002275917

  **** Optimization is complete! (in 16 steps) ****
    Final optimized geometry and variables:
    Molecular point group: c1

    Geometry (in Angstrom), charge = 0, multiplicity = 1:

    H            0.108722429176    -0.008172354631    -1.729107323826
    N           -0.339690622044     0.110374606646    -0.850907338773
    C           -1.653822045128     0.712366218240    -0.830152621884
    C            0.359052967704    -0.164684019215     0.274717333186
    H           -2.283228762223     0.249900810668    -1.581177559767
    H           -1.610994064131     1.780785067520    -1.018277532741
    H           -2.089208565239     0.549969267990     0.142699337583
    C            1.756192916748    -0.707833921927     0.056695046969
    O           -0.077209590354     0.018484839957     1.378418690462
    H            2.467216464336     0.103367801868     0.175137619721
    H            1.963254294293    -1.446359184304     0.818699504575
    H            1.895296312466    -1.149543550814    -0.923259730218

  Mulliken Charges: (a.u.)
   Center  Symbol    Alpha    Beta     Spin     Total
       1     H     0.31040  0.31040  0.00000  0.37920
       2     N     3.89361  3.89361  0.00000 -0.78722
       3     C     3.14170  3.14170  0.00000 -0.28341
       4     C     2.62845  2.62845  0.00000  0.74309
       5     H     0.41643  0.41643  0.00000  0.16714
       6     H     0.41588  0.41588  0.00000  0.16824
       7     H     0.38767  0.38767  0.00000  0.22466
       8     C     3.29059  3.29059  0.00000 -0.58118
       9     O     4.30416  4.30416  0.00000 -0.60831
      10     H     0.39950  0.39950  0.00000  0.20099
      11     H     0.39422  0.39422  0.00000  0.21156
      12     H     0.41738  0.41738  0.00000  0.16524

   Total alpha = 20.00000, Total beta = 20.00000, Total charge =  0.00000
