                              Psi4 1.0.54 Driver

  ==> Input File <==

--------------------------------------------------------------------------
set {
	reference rhf
	basis cc-pvtz
}

set_num_threads( 4 )
memory 2 gb

molecule MOL {
0 1

H	 3.721907	 -0.933076	 -0.066039
O	 2.824271	 -1.154299	 0.131461
C	 2.076458	 -0.067370	 -0.038225
C	 0.626018	 -0.337582	 0.258241
O	 2.538288	 0.965419	 -0.381593
C	 -0.267326	 0.883135	 0.076490
H	 0.325620	 -1.161483	 -0.378003
H	 0.574537	 -0.713685	 1.275261
C	 -1.726822	 0.642622	 0.463839
H	 -0.210803	 1.217591	 -0.953497
H	 0.129920	 1.693110	 0.675679
C	 -1.934220	 -0.056904	 1.806110
H	 -2.186127	 0.039886	 -0.313979
H	 -2.262166	 1.589643	 0.465771
C	 -3.401130	 -0.363775	 2.089801
H	 -1.364161	 -0.982071	 1.817620
H	 -1.541149	 0.554527	 2.612089
H	 -3.520459	 -0.861079	 3.045381
H	 -3.820419	 -1.009538	 1.325677
H	 -3.993133	 0.545128	 2.113962

	symmetry c1
}
set optking {
	frozen_dihedral = ("
		12 9 6 10
	")
}

ee,wfn = optimize('scf', return_wfn=True)
oeprop( wfn, 'DIPOLE', 'QUADRUPOLE', 'MULLIKEN_CHARGES')
f=open( 'psi4out.xyz', 'w' )
f.write( "20  " )
f.write( str(ee) + "\n" )
f.write( MOL.save_string_xyz() )
f.close()
--------------------------------------------------------------------------

    Molecular point group: c1
  Charge       = 0
  Multiplicity = 1
  Basis Set: CC-PVTZ
  Basis Set:
  @DF-RHF Final Energy:  -384.09215719613059
    Total Energy =                       -384.0921571961309269
    Molecular point group: c1
  Basis Set: CC-PVTZ
  Basis Set:
  Basis Set: CC-PVTZ
  Basis Set:
  @DF-RHF Final Energy:  -382.95822975090158
    Total Energy =                       -382.9582297509014097
  Basis Set: CC-PVTZ
  Basis Set:
  Basis Set: CC-PVTZ
  Basis Set:
  @DF-RHF Final Energy:  -383.18532677441010
    Total Energy =                       -383.1853267744097593
  Basis Set: CC-PVTZ
  Basis Set:
  Basis Set: CC-PVTZ
  Basis Set:
  @DF-RHF Final Energy:  -383.58881565061176
    Total Energy =                       -383.5888156506118776
  Basis Set: CC-PVTZ
  Basis Set:
  @DF-RHF Final Energy:  -383.86859485178223
    Total Energy =                       -383.8685948517822908
  @DF-RHF Final Energy:  -384.03284680310668
    Total Energy =                       -384.0328468031062243
  @DF-RHF Final Energy:  -384.08642794451794
    Total Energy =                       -384.0864279445179932
  @DF-RHF Final Energy:  -384.09346722956855
    Total Energy =                       -384.0934672295680912
  @DF-RHF Final Energy:  -384.09384731524977
    Total Energy =                       -384.0938473152498887
  @DF-RHF Final Energy:  -384.09372020912014
    Total Energy =                       -384.0937202091201357
  @DF-RHF Final Energy:  -384.09388691235108
    Total Energy =                       -384.0938869123512518
  Basis Set: CC-PVTZ
  Basis Set:
  @DF-RHF Final Energy:  -384.09389183370359
    Total Energy =                       -384.0938918337031964
  Basis Set: CC-PVTZ
  Basis Set:
  Basis Set: CC-PVTZ
  Basis Set:
  @DF-RHF Final Energy:  -384.09389454282700
    Total Energy =                       -384.0938945428267743
  Basis Set: CC-PVTZ
  Basis Set:
  Basis Set: CC-PVTZ
  Basis Set:
  @DF-RHF Final Energy:  -384.09389587263348
    Total Energy =                       -384.0938958726334249
  Basis Set: CC-PVTZ
  Basis Set:
  Charge       = 0
  Multiplicity = 1
  Basis Set: CC-PVTZ
  Basis Set:

    Orbital Energies (a.u.)
    -----------------------

    Doubly Occupied:

       1A    -20.603735     2A    -20.540419     3A    -11.373276
       4A    -11.238460     5A    -11.221182     6A    -11.219101
       7A    -11.218388     8A    -11.210766     9A     -1.477302
      10A     -1.368815    11A     -1.097527    12A     -1.041773
      13A     -0.962535    14A     -0.870729    15A     -0.820599
      16A     -0.773699    17A     -0.703597    18A     -0.692459
      19A     -0.668631    20A     -0.638529    21A     -0.602163
      22A     -0.597062    23A     -0.579067    24A     -0.555433
      25A     -0.539943    26A     -0.516371    27A     -0.496981
      28A     -0.484365    29A     -0.471172    30A     -0.466125
      31A     -0.458396    32A     -0.446640

  @DF-RHF Final Energy:  -384.09389661650488

   => Energetics <=

    Nuclear Repulsion Energy =            377.3805367507659980
    One-Electron Energy =               -1271.0383881127936547
    Two-Electron Energy =                 509.5639547455224374
    DFT Exchange-Correlation Energy =       0.0000000000000000
    Empirical Dispersion Energy =           0.0000000000000000
    PCM Polarization Energy =               0.0000000000000000
    EFP Energy =                            0.0000000000000000
    Total Energy =                       -384.0938966165052761
    Molecular point group: c1
  Basis Set: CC-PVTZ
  Basis Set:

  -Total Gradient:
     Atom            X                  Y                   Z
    ------   -----------------  -----------------  -----------------
       1       -0.000002822406     0.000010395260    -0.000006233297
       2        0.000029222145    -0.000062582856     0.000026043799
       3        0.000022518641    -0.000052900260     0.000047571952
       4       -0.000010686318    -0.000006892894    -0.000012203264
       5       -0.000045747760     0.000113594967    -0.000076685120
       6       -0.000543168735     0.003346898481     0.000412422440
       7       -0.000001930083     0.000000360776     0.000006803030
       8       -0.000004413825     0.000002333629     0.000004111665
       9        0.000213924360     0.003077432141     0.000825081733
      10        0.000440293132    -0.003702840236    -0.000566489413
      11       -0.000013334853    -0.000000560570     0.000000117368
      12       -0.000061378054    -0.002742194624    -0.000647514031
      13        0.000001879162    -0.000002365424     0.000003810471
      14        0.000001174057     0.000005570043     0.000003617300
      15       -0.000018482434     0.000012917324    -0.000018853958
      16       -0.000019487436     0.000019481207    -0.000000872965
      17       -0.000015447764    -0.000007689744    -0.000005454485
      18        0.000000181685    -0.000002231268     0.000002325481
      19        0.000016285819     0.000012370239     0.000005727887
      20        0.000011420671    -0.000021096192    -0.000003326593

  **** Optimization is complete! (in 15 steps) ****
    Final optimized geometry and variables:
    Molecular point group: c1

    Geometry (in Angstrom), charge = 0, multiplicity = 1:

    H            2.343845000962    -0.925790695333    -2.856867616343
    O            1.946930953522    -1.105359152291    -2.017853608396
    C            1.037909101372    -0.165319578324    -1.773193332522
    C            0.357903466600    -0.381360214305    -0.447865144695
    O            0.824371512838     0.714964781033    -2.533234129438
    C           -0.688790836049     0.680352551533    -0.127645059651
    H           -0.081959016001    -1.373663717926    -0.475551754589
    H            1.140231755329    -0.424732878875     0.300020437781
    C           -1.498571981842     0.395154036757     1.140479313079
    H           -1.367764934653     0.729374213687    -0.969685818977
    H           -0.204464811735     1.647150340888    -0.055674815484
    C           -0.685038045366     0.057161729917     2.388922818014
    H           -2.182389998455    -0.427943214854     0.944208378744
    H           -2.122504754555     1.259782917633     1.344531399017
    C           -1.554620772596    -0.075081976636     3.635158080517
    H           -0.143595655467    -0.870555051749     2.238674993971
    H            0.064838736403     0.826993734626     2.555148557484
    H           -0.959071140927    -0.329449621818     4.504256347365
    H           -2.302730052782    -0.850693779024     3.508648448465
    H           -2.074929278195     0.852092975196     3.849776093616

  Mulliken Charges: (a.u.)
   Center  Symbol    Alpha    Beta     Spin     Total
       1     H     0.38233  0.38233  0.00000  0.23535
       2     O     4.16003  4.16003  0.00000 -0.32006
       3     C     2.80608  2.80608  0.00000  0.38784
       4     C     3.11443  3.11443  0.00000 -0.22886
       5     O     4.19085  4.19085  0.00000 -0.38170
       6     C     3.09164  3.09164  0.00000 -0.18328
       7     H     0.43706  0.43706  0.00000  0.12588
       8     H     0.43525  0.43525  0.00000  0.12949
       9     C     3.09735  3.09735  0.00000 -0.19471
      10     H     0.44014  0.44014  0.00000  0.11971
      11     H     0.44464  0.44464  0.00000  0.11073
      12     C     3.09044  3.09044  0.00000 -0.18087
      13     H     0.45312  0.45312  0.00000  0.09377
      14     H     0.44624  0.44624  0.00000  0.10753
      15     C     3.15018  3.15018  0.00000 -0.30036
      16     H     0.45193  0.45193  0.00000  0.09614
      17     H     0.45244  0.45244  0.00000  0.09512
      18     H     0.44771  0.44771  0.00000  0.10459
      19     H     0.45480  0.45480  0.00000  0.09040
      20     H     0.45335  0.45335  0.00000  0.09329

   Total alpha = 32.00000, Total beta = 32.00000, Total charge = -0.00000

*** Psi4 exiting successfully. Buy a developer a beer!
