  ==> Input File <==

--------------------------------------------------------------------------
set {
	reference rhf
	basis 6-31G*
}

set_num_threads( 1 )
memory 2 gb

molecule MOL {
0 1

H	 -2.644614	 0.537847	 -1.391032
O	 -3.452007	 0.283848	 -0.965577
C	 -3.181085	 -0.079926	 0.364119
C	 -1.765924	 0.277073	 0.805136
H	 -3.327791	 -1.152017	 0.410903
H	 -3.905698	 0.375695	 1.036898
C	 -0.677594	 -0.417312	 -0.014550
H	 -1.637766	 1.358238	 0.744969
H	 -1.659588	 0.017670	 1.857098
C	 0.738335	 -0.034840	 0.421385
H	 -0.814977	 -0.178223	 -1.064632
H	 -0.802730	 -1.495410	 0.071702
C	 1.822265	 -0.738362	 -0.399735
H	 0.853533	 1.043532	 0.342250
H	 0.871597	 -0.279636	 1.474438
C	 3.258060	 -0.455774	 0.057203
H	 1.718003	 -0.459167	 -1.447053
H	 1.651028	 -1.811884	 -0.354513
C	 3.709143	 0.994797	 -0.123830
H	 3.930637	 -1.101717	 -0.501982
H	 3.365259	 -0.739518	 1.102287
H	 3.601178	 1.310569	 -1.158127
H	 4.753787	 1.110486	 0.148516
H	 3.135362	 1.678896	 0.492569

	symmetry c1
}
set optking {
	frozen_dihedral = ("
		20 16 13 17,
		17 13 10 7,
		13 10 7 11,
		11 7 4 3,
		7 4 3 2
	")
}

ee = energy('scf')
oeprop('DIPOLE', 'QUADRUPOLE', 'MULLIKEN_CHARGES')
f=open( 'psi4out.xyz', 'w' )
f.write( "24  " )
f.write( str(ee) + "\n" )
f.write( MOL.save_string_xyz() )
f.close()
--------------------------------------------------------------------------

    Molecular point group: c1

    Geometry (in Angstrom), charge = 0, multiplicity = 1:

       Center              X                  Y                   Z               Mass
    ------------   -----------------  -----------------  -----------------  -----------------
           H         -2.651349874796     0.543831813807    -1.388022279939     1.007825032070
           O         -3.458742874796     0.289832813807    -0.962567279939    15.994914619560
           C         -3.187820874796    -0.073941186193     0.367128720061    12.000000000000
           C         -1.772659874796     0.283057813807     0.808145720061    12.000000000000
           H         -3.334526874796    -1.146032186193     0.413912720061     1.007825032070
           H         -3.912433874796     0.381679813807     1.039907720061     1.007825032070
           C         -0.684329874796    -0.411327186193    -0.011540279939    12.000000000000
           H         -1.644501874796     1.364222813807     0.747978720061     1.007825032070
           H         -1.666323874796     0.023654813807     1.860107720061     1.007825032070
           C          0.731599125204    -0.028855186193     0.424394720061    12.000000000000
           H         -0.821712874796    -0.172238186193    -1.061622279939     1.007825032070
           H         -0.809465874796    -1.489425186193     0.074711720061     1.007825032070
           C          1.815529125204    -0.732377186193    -0.396725279939    12.000000000000
           H          0.846797125204     1.049516813807     0.345259720061     1.007825032070
           H          0.864861125204    -0.273651186193     1.477447720061     1.007825032070
           C          3.251324125204    -0.449789186193     0.060212720061    12.000000000000
           H          1.711267125204    -0.453182186193    -1.444043279939     1.007825032070
           H          1.644292125204    -1.805899186193    -0.351503279939     1.007825032070
           C          3.702407125204     1.000781813807    -0.120820279939    12.000000000000
           H          3.923901125204    -1.095732186193    -0.498972279939     1.007825032070
           H          3.358523125204    -0.733533186193     1.105296720061     1.007825032070
           H          3.594442125204     1.316553813807    -1.155117279939     1.007825032070
           H          4.747051125204     1.116470813807     0.151525720061     1.007825032070
           H          3.128626125204     1.684880813807     0.495578720061     1.007825032070

  Charge       = 0
  Multiplicity = 1
  Basis Set: 6-31G*
  Basis Set:

    Orbital Energies (a.u.)
    -----------------------

    Doubly Occupied:

       1A    -20.547834     2A    -11.265678     3A    -11.226152
       4A    -11.224382     5A    -11.221167     6A    -11.219139
       7A    -11.218325     8A    -11.211433     9A     -1.356882
      10A     -1.096955    11A     -1.054221    12A     -0.990048
      13A     -0.921439    14A     -0.857666    15A     -0.805256
      16A     -0.783453    17A     -0.666273    18A     -0.662624
      19A     -0.633238    20A     -0.625173    21A     -0.607006
      22A     -0.590976    23A     -0.563179    24A     -0.539959
      25A     -0.527603    26A     -0.515939    27A     -0.496838
      28A     -0.482540    29A     -0.479851    30A     -0.466041
      31A     -0.459454    32A     -0.440243    33A     -0.427005

  @DF-RHF Final Energy:  -349.24294751526764

   => Energetics <=

    Nuclear Repulsion Energy =            385.4562698992604624
    One-Electron Energy =               -1237.0305056185029571
    Two-Electron Energy =                 502.3312882039746796
    DFT Exchange-Correlation Energy =       0.0000000000000000
    Empirical Dispersion Energy =           0.0000000000000000
    PCM Polarization Energy =               0.0000000000000000
    EFP Energy =                            0.0000000000000000
    Total Energy =                       -349.2429475152678719

  Mulliken Charges: (a.u.)
   Center  Symbol    Alpha    Beta     Spin     Total
       1     H     0.27678  0.27678  0.00000  0.44643
       2     O     4.37947  4.37947  0.00000 -0.75894
       3     C     2.97654  2.97654  0.00000  0.04692
       4     C     3.18729  3.18729  0.00000 -0.37458
       5     H     0.42760  0.42760  0.00000  0.14480
       6     H     0.42104  0.42104  0.00000  0.15791
       7     C     3.15664  3.15664  0.00000 -0.31327
       8     H     0.41830  0.41830  0.00000  0.16341
       9     H     0.41709  0.41709  0.00000  0.16582
      10     C     3.15292  3.15292  0.00000 -0.30583
      11     H     0.42997  0.42997  0.00000  0.14007
      12     H     0.41753  0.41753  0.00000  0.16494
      13     C     3.15291  3.15291  0.00000 -0.30583
      14     H     0.42065  0.42065  0.00000  0.15870
      15     H     0.42211  0.42211  0.00000  0.15579
      16     C     3.15278  3.15278  0.00000 -0.30556
      17     H     0.42391  0.42391  0.00000  0.15217
      18     H     0.42127  0.42127  0.00000  0.15746
      19     C     3.24148  3.24148  0.00000 -0.48296
      20     H     0.42005  0.42005  0.00000  0.15990
      21     H     0.42295  0.42295  0.00000  0.15411
      22     H     0.42207  0.42207  0.00000  0.15585
      23     H     0.41843  0.41843  0.00000  0.16315
      24     H     0.42023  0.42023  0.00000  0.15954

   Total alpha = 33.00000, Total beta = 33.00000, Total charge = -0.00000
