                              Psi4 1.0.54 Driver

  ==> Input File <==

--------------------------------------------------------------------------
set {
	reference rhf
	basis cc-pvtz
}

set_num_threads( 4 )
memory 2 gb

molecule MOL {
0 1

O	 -2.817697	 1.304178	 0.001046
C	 -2.664672	 0.129869	 0.003507
C	 -3.797908	 -0.860100	 -0.001145
O	 -1.481217	 -0.452708	 0.001092
H	 -4.408836	 -0.679689	 -0.875387
H	 -3.443486	 -1.878443	 -0.002770
H	 -4.412123	 -0.683688	 0.871605
C	 -0.332055	 0.384012	 -0.000250
C	 0.892252	 -0.506059	 -0.000295
H	 -0.360822	 1.020205	 -0.874146
H	 -0.359817	 1.021310	 0.872861
C	 1.050976	 -1.264862	 1.314005
H	 1.770687	 0.103913	 -0.184564
H	 0.818212	 -1.206316	 -0.826021
C	 2.279539	 -2.169974	 1.337034
H	 1.113947	 -0.556485	 2.136328
H	 0.162455	 -1.864314	 1.496112
C	 2.437863	 -2.929323	 2.649791
H	 3.168257	 -1.571815	 1.156917
H	 2.217655	 -2.878398	 0.515819
H	 2.536838	 -2.246901	 3.487257
H	 3.317854	 -3.561658	 2.633213
H	 1.578707	 -3.563366	 2.841348

	symmetry c1
}
set optking {
	frozen_dihedral = ("
		13 9 8 10
	")
}

ee,wfn = optimize('scf', return_wfn=True)
oeprop( wfn, 'DIPOLE', 'QUADRUPOLE', 'MULLIKEN_CHARGES')
f=open( 'psi4out.xyz', 'w' )
f.write( "23  " )
f.write( str(ee) + "\n" )
f.write( MOL.save_string_xyz() )
f.close()
--------------------------------------------------------------------------

    Molecular point group: c1
  Charge       = 0
  Multiplicity = 1
  Basis Set: CC-PVTZ
  Basis Set:
  @DF-RHF Final Energy:  -423.13430567130638
    Total Energy =                       -423.1343056713066062
    Molecular point group: c1
  Basis Set: CC-PVTZ
  Basis Set:
  Basis Set: CC-PVTZ
  Basis Set:
  @DF-RHF Final Energy:  -423.13435667002369
    Total Energy =                       -423.1343566700236352
  Basis Set: CC-PVTZ
  Basis Set:
  Basis Set: CC-PVTZ
  Basis Set:
  @DF-RHF Final Energy:  -423.13439503346331
    Total Energy =                       -423.1343950334628516
  Basis Set: CC-PVTZ
  Basis Set:
  Basis Set: CC-PVTZ
  Basis Set:
  @DF-RHF Final Energy:  -423.13453815161517
    Total Energy =                       -423.1345381516154021
  Basis Set: CC-PVTZ
  Basis Set:
  Basis Set: CC-PVTZ
  Basis Set:
  @DF-RHF Final Energy:  -423.13456405832954
    Total Energy =                       -423.1345640583294880
  Basis Set: CC-PVTZ
  Basis Set:
  Charge       = 0
  Multiplicity = 1
  Basis Set: CC-PVTZ
  Basis Set:

    Orbital Energies (a.u.)
    -----------------------

    Doubly Occupied:

       1A    -20.596381     2A    -20.529949     3A    -11.366901
       4A    -11.280040     5A    -11.231244     6A    -11.223332
       7A    -11.217616     8A    -11.216496     9A    -11.209621
      10A     -1.471584    11A     -1.364456    12A     -1.093187
      13A     -1.042617    14A     -1.003785    15A     -0.931908
      16A     -0.843631    17A     -0.802077    18A     -0.778388
      19A     -0.691340    20A     -0.686184    21A     -0.669888
      22A     -0.644660    23A     -0.608887    24A     -0.586378
      25A     -0.579735    26A     -0.573285    27A     -0.560207
      28A     -0.533713    29A     -0.530874    30A     -0.509167
      31A     -0.495653    32A     -0.474979    33A     -0.469405
      34A     -0.462579    35A     -0.449414    36A     -0.441153

  @DF-RHF Final Energy:  -423.13456471405078

   => Energetics <=

    Nuclear Repulsion Energy =            458.5511606065629735
    One-Electron Energy =               -1485.0300226007370838
    Two-Electron Energy =                 603.3442972801235555
    DFT Exchange-Correlation Energy =       0.0000000000000000
    Empirical Dispersion Energy =           0.0000000000000000
    PCM Polarization Energy =               0.0000000000000000
    EFP Energy =                            0.0000000000000000
    Total Energy =                       -423.1345647140506117
    Molecular point group: c1
  Basis Set: CC-PVTZ
  Basis Set:

  -Total Gradient:
     Atom            X                  Y                   Z
    ------   -----------------  -----------------  -----------------
       1       -0.000010997235     0.000075223163     0.000010163874
       2        0.000011354406    -0.000042265950    -0.000022237230
       3        0.000005811926     0.000000986650     0.000029177609
       4        0.000034255903    -0.000022684399    -0.000000045645
       5        0.000000107299    -0.000004033079    -0.000023812233
       6        0.000004044104    -0.000021712765    -0.000001860806
       7       -0.000008889485     0.000013322199     0.000002469287
       8       -0.000532472067    -0.000705153981    -0.000570205474
       9        0.000169702645     0.000259380702     0.001024742484
      10        0.000416649303     0.000593914388     0.000360093016
      11       -0.000012246181    -0.000028006391    -0.000027570568
      12       -0.000005448783    -0.000019207849     0.000008751886
      13       -0.000094204318    -0.000116532991    -0.000785524044
      14        0.000006327357    -0.000000501723    -0.000009522085
      15        0.000013684577     0.000019283863     0.000017327014
      16        0.000000245355     0.000000124216    -0.000001676205
      17       -0.000008174525    -0.000002584043    -0.000006533085
      18        0.000002937038     0.000000743637    -0.000004120038
      19        0.000017548745    -0.000002325094    -0.000004378500
      20       -0.000006456229     0.000002602095     0.000007189590
      21        0.000001381249     0.000001721904    -0.000000908683
      22       -0.000000497036    -0.000001407786    -0.000002251038
      23       -0.000004664056    -0.000000886765     0.000000730873

  **** Optimization is complete! (in 6 steps) ****
    Final optimized geometry and variables:
    Molecular point group: c1

    Geometry (in Angstrom), charge = 0, multiplicity = 1:

    O           -2.285119283579     2.058688266777    -0.573211916027
    C           -2.161984175236     0.880867594137    -0.572793802453
    C           -3.320578867749    -0.079580773957    -0.564552951021
    O           -0.993605411044     0.268725505338    -0.579939129024
    H           -3.936610553100     0.117356361800    -1.431674851248
    H           -2.993202055585    -1.107019638029    -0.570698103069
    H           -3.919852232075     0.112244898714     0.315417829579
    C            0.176684562754     1.076934396647    -0.590503846697
    C            1.387180212406     0.166966909258    -0.578560048606
    H            0.164907465444     1.701687893122    -1.472318325876
    H            0.161132267269     1.728376550725     0.272774076105
    C            1.574447143881    -0.607323733912     0.722819305732
    H            2.260051996249     0.784990039747    -0.769191637826
    H            1.311012742547    -0.523504530179    -1.412948931762
    C            2.802497541550    -1.512930628748     0.706809626730
    H            1.658413017972     0.096301427196     1.547883921437
    H            0.689412136935    -1.204317847430     0.916670146191
    C            2.994119297375    -2.282647423947     2.009142953712
    H            3.688321992669    -0.915569023901     0.508017624763
    H            2.718342390011    -2.215789241765    -0.117486853259
    H            3.116561405536    -1.606755195009     2.848916730996
    H            3.871971658296    -2.916811213991     1.964795972700
    H            2.138550861644    -2.916043365990     2.218355045589

  Mulliken Charges: (a.u.)
   Center  Symbol    Alpha    Beta     Spin     Total
       1     O     4.20261  4.20261  0.00000 -0.40521
       2     C     2.81260  2.81260  0.00000  0.37479
       3     C     3.13990  3.13990  0.00000 -0.27981
       4     O     4.14838  4.14838  0.00000 -0.29676
       5     H     0.44157  0.44157  0.00000  0.11686
       6     H     0.44230  0.44230  0.00000  0.11540
       7     H     0.44197  0.44197  0.00000  0.11607
       8     C     2.99148  2.99148  0.00000  0.01703
       9     C     3.08768  3.08768  0.00000 -0.17536
      10     H     0.44447  0.44447  0.00000  0.11106
      11     H     0.45169  0.45169  0.00000  0.09663
      12     C     3.08922  3.08922  0.00000 -0.17845
      13     H     0.45077  0.45077  0.00000  0.09847
      14     H     0.45139  0.45139  0.00000  0.09722
      15     C     3.08529  3.08529  0.00000 -0.17058
      16     H     0.45515  0.45515  0.00000  0.08970
      17     H     0.44776  0.44776  0.00000  0.10448
      18     C     3.14959  3.14959  0.00000 -0.29917
      19     H     0.45479  0.45479  0.00000  0.09043
      20     H     0.45375  0.45375  0.00000  0.09250
      21     H     0.45479  0.45479  0.00000  0.09043
      22     H     0.44804  0.44804  0.00000  0.10392
      23     H     0.45483  0.45483  0.00000  0.09035

   Total alpha = 36.00000, Total beta = 36.00000, Total charge = -0.00000

*** Psi4 exiting successfully. Buy a developer a beer!
