  ==> Input File <==

--------------------------------------------------------------------------
set {
	reference rhf
	basis cc-pvtz
}

set_num_threads( 4 )
memory 2 gb

molecule MOL {
0 1

H	 2.249768	 -0.563630	 0.094473
C	 1.735629	 -0.709913	 -0.864650
C	 0.446491	 0.048235	 -1.020000
O	 2.201465	 -1.425713	 -1.682122
C	 -0.554654	 -0.292621	 0.086567
H	 0.039115	 -0.164959	 -1.999504
H	 0.685383	 1.108851	 -0.976367
C	 -1.846385	 0.513195	 -0.016346
H	 -0.786401	 -1.353005	 0.043948
H	 -0.097716	 -0.115838	 1.056942
C	 -3.089953	 -0.365049	 -0.098564
H	 -1.798267	 1.154820	 -0.891143
H	 -1.925398	 1.173265	 0.842889
H	 -3.055079	 -1.012299	 -0.968245
H	 -3.988403	 0.236438	 -0.170014
H	 -3.183055	 -0.995885	 0.779079

	symmetry c1
}
set optking {
	frozen_dihedral = ("
		9 5 8 12
	")
}

ee = optimize('scf')
oeprop('DIPOLE', 'QUADRUPOLE', 'MULLIKEN_CHARGES')
f=open( 'psi4out.xyz', 'w' )
f.write( "16  " )
f.write( str(ee) + "\n" )
f.write( MOL.save_string_xyz() )
f.close()
--------------------------------------------------------------------------

    Molecular point group: c1
  Charge       = 0
  Multiplicity = 1
  Basis Set: CC-PVTZ
  Basis Set:
  @DF-RHF Final Energy:  -270.11323246845291
    Total Energy =                       -270.1132324684527930
    Molecular point group: c1
  Basis Set: CC-PVTZ
  Basis Set:
  Basis Set: CC-PVTZ
  Basis Set:
  @DF-RHF Final Energy:  -270.11347895302833
    Total Energy =                       -270.1134789530282205
  Basis Set: CC-PVTZ
  Basis Set:
  Basis Set: CC-PVTZ
  Basis Set:
  @DF-RHF Final Energy:  -270.11343521516875
    Total Energy =                       -270.1134352151688063
  Basis Set: CC-PVTZ
  Basis Set:
  Basis Set: CC-PVTZ
  Basis Set:
  @DF-RHF Final Energy:  -270.11354548394110
    Total Energy =                       -270.1135454839409249
  Basis Set: CC-PVTZ
  Basis Set:
  Basis Set: CC-PVTZ
  Basis Set:
  @DF-RHF Final Energy:  -270.11355102510720
    Total Energy =                       -270.1135510251070286
  Basis Set: CC-PVTZ
  Basis Set:
  Charge       = 0
  Multiplicity = 1
  Basis Set: CC-PVTZ
  Basis Set:

    Orbital Energies (a.u.)
    -----------------------

    Doubly Occupied:

       1A    -20.552174     2A    -11.321119     3A    -11.234804
       4A    -11.234050     5A    -11.227174     6A    -11.216501
       7A     -1.406845     8A     -1.095203     9A     -1.019278
      10A     -0.906587    11A     -0.813213    12A     -0.794690
      13A     -0.678122    14A     -0.651267    15A     -0.626326
      16A     -0.605548    17A     -0.588847    18A     -0.551271
      19A     -0.525326    20A     -0.517280    21A     -0.488554
      22A     -0.479811    23A     -0.474221    24A     -0.411147

  @DF-RHF Final Energy:  -270.11355185482114

   => Energetics <=

    Nuclear Repulsion Energy =            229.8210671544551644
    One-Electron Energy =                -821.0305158250149589
    Two-Electron Energy =                 321.0958968157390245
    DFT Exchange-Correlation Energy =       0.0000000000000000
    Empirical Dispersion Energy =           0.0000000000000000
    PCM Polarization Energy =               0.0000000000000000
    EFP Energy =                            0.0000000000000000
    Total Energy =                       -270.1135518548207983
    Molecular point group: c1
  Basis Set: CC-PVTZ
  Basis Set:

  -Total Gradient:
     Atom            X                  Y                   Z
    ------   -----------------  -----------------  -----------------
       1       -0.000007988898    -0.000011215677     0.000012063433
       2        0.000020165042     0.000023092698     0.000007950135
       3       -0.000017469383    -0.000011625707     0.000007609982
       4       -0.000013299723     0.000025267962    -0.000001959432
       5        0.000285131867     0.000246441777    -0.001332225203
       6        0.000006503814    -0.000018641617    -0.000012272036
       7        0.000006862045     0.000001269632    -0.000032664554
       8       -0.000666820062    -0.001047820452    -0.000532713652
       9       -0.000138174510    -0.000024881489     0.001212623788
      10       -0.000006782234    -0.000023144115     0.000000824025
      11       -0.000002525741    -0.000035261520    -0.000001925141
      12        0.000512212844     0.000886416937     0.000681520880
      13        0.000018789265     0.000000632228    -0.000004547345
      14       -0.000010985634    -0.000013778614    -0.000004778094
      15        0.000020944234     0.000007928820     0.000000720136
      16       -0.000006562923    -0.000004680863    -0.000000226920

  **** Optimization is complete! (in 6 steps) ****
    Final optimized geometry and variables:
    Molecular point group: c1

    Geometry (in Angstrom), charge = 0, multiplicity = 1:

    H            2.450268405581    -0.170118341748     0.702401627218
    C            1.937654084430    -0.323420860016    -0.256470039553
    C            0.647447872295     0.431407740476    -0.418523233100
    O            2.405495639582    -1.043938764172    -1.068752257958
    C           -0.360973878006     0.084747496278     0.680384538985
    H            0.245790642177     0.219935475969    -1.400986463234
    H            0.881964005535     1.492719641734    -0.369933751395
    C           -1.670126668649     0.895650695302     0.583133506287
    H           -0.582740469859    -0.976385156747     0.635299871142
    H            0.100430782744     0.248432922017     1.649081908059
    C           -2.919983229200     0.024449799055     0.512597466583
    H           -1.634919980851     1.542943502118    -0.286708302086
    H           -1.748668063989     1.558916777732     1.437544140463
    H           -2.894852782030    -0.624267632170    -0.356521755389
    H           -3.816003481297     0.630840582953     0.449279690917
    H           -3.006890294236    -0.605286180125     1.391543080508

  Mulliken Charges: (a.u.)
   Center  Symbol    Alpha    Beta     Spin     Total
       1     H     0.46560  0.46560  0.00000  0.06880
       2     C     2.90998  2.90998  0.00000  0.18004
       3     C     3.07925  3.07925  0.00000 -0.15849
       4     O     4.16362  4.16362  0.00000 -0.32725
       5     C     3.10757  3.10757  0.00000 -0.21515
       6     H     0.44216  0.44216  0.00000  0.11569
       7     H     0.44895  0.44895  0.00000  0.10210
       8     C     3.08773  3.08773  0.00000 -0.17545
       9     H     0.44558  0.44558  0.00000  0.10884
      10     H     0.44741  0.44741  0.00000  0.10518
      11     C     3.14644  3.14644  0.00000 -0.29288
      12     H     0.45215  0.45215  0.00000  0.09571
      13     H     0.44897  0.44897  0.00000  0.10205
      14     H     0.45298  0.45298  0.00000  0.09404
      15     H     0.44817  0.44817  0.00000  0.10365
      16     H     0.45344  0.45344  0.00000  0.09312

   Total alpha = 24.00000, Total beta = 24.00000, Total charge = -0.00000
