                              Psi4 1.0.54 Driver

  ==> Input File <==

--------------------------------------------------------------------------
set {
	reference rhf
	basis cc-pvtz
}

set_num_threads( 4 )
memory 2 gb

molecule MOL {
0 1

H	 -3.144994	 -1.202467	 -0.018751
O	 -2.321472	 -0.864941	 -0.318626
C	 -2.021813	 0.336996	 0.342658
C	 -0.669613	 0.837286	 -0.127252
H	 -2.780861	 1.084746	 0.127159
H	 -2.006390	 0.184138	 1.420053
C	 0.490865	 -0.082543	 0.241244
H	 -0.708709	 0.967192	 -1.204587
H	 -0.507562	 1.822272	 0.303070
C	 0.095434	 -1.555830	 0.282048
H	 0.887831	 0.213465	 1.205534
H	 1.295951	 0.052081	 -0.478364
C	 1.256476	 -2.476545	 0.642674
H	 -0.707158	 -1.691014	 1.001960
H	 -0.309494	 -1.848959	 -0.683248
H	 1.660437	 -2.231040	 1.619127
H	 0.943568	 -3.514273	 0.665325
H	 2.063022	 -2.390218	 -0.078073

	symmetry c1
}
set optking {
	frozen_dihedral = ("
		10 7 4 8
	")
}

ee,wfn = optimize('scf', return_wfn=True)
oeprop( wfn, 'DIPOLE', 'QUADRUPOLE', 'MULLIKEN_CHARGES')
f=open( 'psi4out.xyz', 'w' )
f.write( "18  " )
f.write( str(ee) + "\n" )
f.write( MOL.save_string_xyz() )
f.close()
--------------------------------------------------------------------------

    Molecular point group: c1
  Charge       = 0
  Multiplicity = 1
  Basis Set: CC-PVTZ
  Basis Set:
  @DF-RHF Final Energy:  -271.27100432120056
    Total Energy =                       -271.2710043212003370
    Molecular point group: c1
  Basis Set: CC-PVTZ
  Basis Set:
  Basis Set: CC-PVTZ
  Basis Set:
  @DF-RHF Final Energy:  -271.27683906450358
    Total Energy =                       -271.2768390645035765
  Basis Set: CC-PVTZ
  Basis Set:
  Basis Set: CC-PVTZ
  Basis Set:
  @DF-RHF Final Energy:  -271.27970868660685
    Total Energy =                       -271.2797086866066820
  Basis Set: CC-PVTZ
  Basis Set:
  Basis Set: CC-PVTZ
  Basis Set:
  @DF-RHF Final Energy:  -271.28011475178289
    Total Energy =                       -271.2801147517827189
  Basis Set: CC-PVTZ
  Basis Set:
  Basis Set: CC-PVTZ
  Basis Set:
  @DF-RHF Final Energy:  -271.28021244295303
    Total Energy =                       -271.2802124429529727
  Basis Set: CC-PVTZ
  Basis Set:
  Basis Set: CC-PVTZ
  Basis Set:
  @DF-RHF Final Energy:  -271.28023953976862
    Total Energy =                       -271.2802395397683881
  Basis Set: CC-PVTZ
  Basis Set:
  Basis Set: CC-PVTZ
  Basis Set:
  @DF-RHF Final Energy:  -271.28025227636101
    Total Energy =                       -271.2802522763607840
  Basis Set: CC-PVTZ
  Basis Set:
  Charge       = 0
  Multiplicity = 1
  Basis Set: CC-PVTZ
  Basis Set:

    Orbital Energies (a.u.)
    -----------------------

    Doubly Occupied:

       1A    -20.546250     2A    -11.267282     3A    -11.211761
       4A    -11.208663     5A    -11.202456     6A    -11.199808
       7A     -1.364519     8A     -1.072648     9A     -1.007576
      10A     -0.914248    11A     -0.831236    12A     -0.769450
      13A     -0.706172    14A     -0.650507    15A     -0.620373
      16A     -0.580575    17A     -0.569743    18A     -0.552894
      19A     -0.534222    20A     -0.503786    21A     -0.486149
      22A     -0.467759    23A     -0.449877    24A     -0.448499
      25A     -0.428777

  @DF-RHF Final Energy:  -271.28025265251466

   => Energetics <=

    Nuclear Repulsion Energy =            255.0708824621797817
    One-Electron Energy =                -873.5118111461363242
    Two-Electron Energy =                 347.1606760314418239
    DFT Exchange-Correlation Energy =       0.0000000000000000
    Empirical Dispersion Energy =           0.0000000000000000
    PCM Polarization Energy =               0.0000000000000000
    EFP Energy =                            0.0000000000000000
    Total Energy =                       -271.2802526525147755
    Molecular point group: c1
  Basis Set: CC-PVTZ
  Basis Set:

  -Total Gradient:
     Atom            X                  Y                   Z
    ------   -----------------  -----------------  -----------------
       1       -0.000006725505     0.000009561949     0.000002374752
       2        0.000022075099     0.000010011595     0.000017395179
       3       -0.000009004957    -0.000005431362    -0.000016196915
       4       -0.004085828450    -0.005500005198     0.000426396255
       5        0.000007507096     0.000007707523    -0.000000708345
       6        0.000002573159    -0.000009217078     0.000007777553
       7        0.002634965064     0.001090615917    -0.005176554583
       8        0.002789949440     0.004380892325     0.001017762175
       9       -0.000014523139     0.000007765946     0.000010643569
      10       -0.001347359537    -0.000018489324     0.003723901170
      11       -0.000007654443     0.000003028095    -0.000009092439
      12        0.000004750187     0.000002437921    -0.000005353947
      13       -0.000010677552     0.000010217551    -0.000005680031
      14       -0.000003711835     0.000010471611    -0.000008847163
      15        0.000003251515     0.000011851005     0.000013514186
      16        0.000008118075    -0.000004177438    -0.000007795935
      17        0.000001264201    -0.000000385099     0.000002780247
      18        0.000011031574    -0.000006855938     0.000007684272

  **** Optimization is complete! (in 8 steps) ****
    Final optimized geometry and variables:
    Molecular point group: c1

    Geometry (in Angstrom), charge = 0, multiplicity = 1:

    H           -2.789319495256    -0.449585663209    -0.547040806426
    O           -1.934433802535    -0.126300111293    -0.763822888006
    C           -1.575017653932     0.908962495491     0.113635633406
    C           -0.185492425711     1.415582180275    -0.224464630507
    H           -2.278558569702     1.732186003105     0.021251312619
    H           -1.609704268121     0.566538741521     1.146111694753
    C            1.015389421445     0.554731114115     0.206719259593
    H           -0.135472224567     1.630976120531    -1.286609799390
    H           -0.078298523321     2.383038841957     0.259378629692
    C            0.851729602790    -0.963419911106     0.142087672966
    H            1.266306363840     0.812166483731     1.233509769502
    H            1.874298009023     0.848668186867    -0.388655476943
    C            2.119160973726    -1.692633796327     0.577265392930
    H            0.027238785331    -1.271534226773     0.774082018747
    H            0.584799338748    -1.265208077123    -0.864197671508
    H            2.394005186816    -1.432938310989     1.594801124828
    H            1.985839559000    -2.767777307378     0.536172671696
    H            2.957872961719    -1.439923466415    -0.063342588948

  Mulliken Charges: (a.u.)
   Center  Symbol    Alpha    Beta     Spin     Total
       1     H     0.39640  0.39640  0.00000  0.20720
       2     O     4.19821  4.19821  0.00000 -0.39642
       3     C     2.98509  2.98509  0.00000  0.02983
       4     C     3.09330  3.09330  0.00000 -0.18661
       5     H     0.45848  0.45848  0.00000  0.08304
       6     H     0.46912  0.46912  0.00000  0.06175
       7     C     3.09668  3.09668  0.00000 -0.19336
       8     H     0.45017  0.45017  0.00000  0.09966
       9     H     0.45137  0.45137  0.00000  0.09727
      10     C     3.07620  3.07620  0.00000 -0.15241
      11     H     0.45665  0.45665  0.00000  0.08670
      12     H     0.45101  0.45101  0.00000  0.09799
      13     C     3.15156  3.15156  0.00000 -0.30312
      14     H     0.45628  0.45628  0.00000  0.08744
      15     H     0.44658  0.44658  0.00000  0.10685
      16     H     0.45793  0.45793  0.00000  0.08413
      17     H     0.44902  0.44902  0.00000  0.10195
      18     H     0.45594  0.45594  0.00000  0.08811

   Total alpha = 25.00000, Total beta = 25.00000, Total charge =  0.00000

*** Psi4 exiting successfully. Buy a developer a beer!
