  ==> Input File <==

--------------------------------------------------------------------------
set {
	reference rhf
	basis cc-pvtz
}

set_num_threads( 4 )
memory 2 gb

molecule MOL {
0 1

H	 3.072026	 0.191054	 0.692932
O	 2.373631	 0.737453	 0.383502
C	 1.135873	 0.113391	 0.608264
C	 0.027642	 1.012027	 0.090274
H	 0.986083	 -0.057674	 1.671310
H	 1.104553	 -0.854869	 0.116378
C	 -1.138737	 0.285728	 -0.581921
H	 0.464661	 1.708096	 -0.618252
H	 -0.340737	 1.603071	 0.925246
C	 -1.933983	 -0.631436	 0.343653
H	 -0.763151	 -0.285569	 -1.422081
H	 -1.808359	 1.035291	 -0.992333
H	 -2.789188	 -1.049673	 -0.174718
H	 -1.335629	 -1.461368	 0.700418
H	 -2.305435	 -0.092167	 1.209725

	symmetry c1
}
set optking {
	frozen_dihedral = ("
		2 3 4 8
	")
}

ee = optimize('scf')
oeprop('DIPOLE', 'QUADRUPOLE', 'MULLIKEN_CHARGES')
f=open( 'psi4out.xyz', 'w' )
f.write( "15  " )
f.write( str(ee) + "\n" )
f.write( MOL.save_string_xyz() )
f.close()
--------------------------------------------------------------------------

    Molecular point group: c1
  Charge       = 0
  Multiplicity = 1
  Basis Set: CC-PVTZ
  Basis Set:
  @DF-RHF Final Energy:  -232.23354051883138
    Total Energy =                       -232.2335405188313757
    Molecular point group: c1
  Basis Set: CC-PVTZ
  Basis Set:
  Basis Set: CC-PVTZ
  Basis Set:
  @DF-RHF Final Energy:  -232.23406705653508
    Total Energy =                       -232.2340670565351388
  Basis Set: CC-PVTZ
  Basis Set:
  Basis Set: CC-PVTZ
  Basis Set:
  @DF-RHF Final Energy:  -232.23412351011592
    Total Energy =                       -232.2341235101158645
  Basis Set: CC-PVTZ
  Basis Set:
  Basis Set: CC-PVTZ
  Basis Set:
  @DF-RHF Final Energy:  -232.23411955982769
    Total Energy =                       -232.2341195598277181
  Basis Set: CC-PVTZ
  Basis Set:
  Basis Set: CC-PVTZ
  Basis Set:
  @DF-RHF Final Energy:  -232.23412795740040
    Total Energy =                       -232.2341279574001760
  Basis Set: CC-PVTZ
  Basis Set:
  Charge       = 0
  Multiplicity = 1
  Basis Set: CC-PVTZ
  Basis Set:

    Orbital Energies (a.u.)
    -----------------------

    Doubly Occupied:

       1A    -20.545649     2A    -11.265613     3A    -11.215633
       4A    -11.209279     5A    -11.209165     6A     -1.363005
       7A     -1.070239     8A     -0.970263     9A     -0.870862
      10A     -0.784821    11A     -0.703379    12A     -0.648782
      13A     -0.608814    14A     -0.592536    15A     -0.557868
      16A     -0.536883    17A     -0.511220    18A     -0.475714
      19A     -0.473026    20A     -0.456393    21A     -0.433752

  @DF-RHF Final Energy:  -232.23412858284587

   => Energetics <=

    Nuclear Repulsion Energy =            188.4084517086899950
    One-Electron Energy =                -688.2793699815932769
    Two-Electron Energy =                 267.6367896900571282
    DFT Exchange-Correlation Energy =       0.0000000000000000
    Empirical Dispersion Energy =           0.0000000000000000
    PCM Polarization Energy =               0.0000000000000000
    EFP Energy =                            0.0000000000000000
    Total Energy =                       -232.2341285828461537
    Molecular point group: c1
  Basis Set: CC-PVTZ
  Basis Set:

  -Total Gradient:
     Atom            X                  Y                   Z
    ------   -----------------  -----------------  -----------------
       1       -0.000008118487    -0.000000071212    -0.000001545952
       2        0.000206606848    -0.001339229631    -0.002897789130
       3       -0.000129299048     0.002258488159     0.004393669997
       4       -0.000787685218    -0.003521109544    -0.004619947219
       5       -0.000014707775     0.000007599872    -0.000004765190
       6        0.000014224782     0.000008220416     0.000002759336
       7        0.000023369770     0.000010759187    -0.000011913890
       8        0.000710059705     0.002576859621     0.003106907373
       9       -0.000001097386    -0.000007329643     0.000016349098
      10        0.000007349907    -0.000008162294     0.000006241006
      11       -0.000010754404     0.000010129483     0.000009194484
      12       -0.000000829293     0.000003406713    -0.000001572044
      13        0.000002881836    -0.000007588716     0.000003273035
      14       -0.000004605966     0.000004726574     0.000000262922
      15       -0.000007395263     0.000003301014    -0.000001123827

  **** Optimization is complete! (in 6 steps) ****
    Final optimized geometry and variables:
    Molecular point group: c1

    Geometry (in Angstrom), charge = 0, multiplicity = 1:

    H            2.908987142589    -0.077931204498     0.577986461555
    O            2.217941088205     0.435457197231     0.201969507443
    C            0.981729194727    -0.200428969501     0.405228000643
    C           -0.127314603612     0.719841709442    -0.102135885502
    H            0.841666606937    -0.435902177425     1.455999804257
    H            0.961339428101    -1.139491252346    -0.143922055032
    C           -1.295055387928    -0.002045834498    -0.768733419285
    H            0.329282612657     1.425075123430    -0.785580538931
    H           -0.501338042709     1.319113871487     0.723609823345
    C           -2.078607809400    -0.913654002908     0.172933466652
    H           -0.925474170562    -0.581792362565    -1.610018045008
    H           -1.970286931602     0.739602465562    -1.182934583041
    H           -2.908962545463    -1.382988285014    -0.341768103670
    H           -1.456968950074    -1.705381903226     0.576808101539
    H           -2.482318174056    -0.352803419879     1.009638561606

  Mulliken Charges: (a.u.)
   Center  Symbol    Alpha    Beta     Spin     Total
       1     H     0.39571  0.39571  0.00000  0.20858
       2     O     4.19779  4.19779  0.00000 -0.39558
       3     C     2.96468  2.96468  0.00000  0.07064
       4     C     3.09279  3.09279  0.00000 -0.18559
       5     H     0.47146  0.47146  0.00000  0.05708
       6     H     0.47532  0.47532  0.00000  0.04936
       7     C     3.09723  3.09723  0.00000 -0.19446
       8     H     0.44078  0.44078  0.00000  0.11843
       9     H     0.45561  0.45561  0.00000  0.08879
      10     C     3.14917  3.14917  0.00000 -0.29833
      11     H     0.45352  0.45352  0.00000  0.09296
      12     H     0.44850  0.44850  0.00000  0.10300
      13     H     0.44707  0.44707  0.00000  0.10586
      14     H     0.45612  0.45612  0.00000  0.08775
      15     H     0.45424  0.45424  0.00000  0.09151

   Total alpha = 21.00000, Total beta = 21.00000, Total charge = -0.00000
