                              Psi4 1.0.54 Driver

  ==> Input File <==

--------------------------------------------------------------------------
set {
	reference rhf
	basis cc-pvtz
}

set_num_threads( 4 )
memory 2 gb

molecule MOL {
0 1

H	 1.429100	 -2.016798	 0.793475
C	 0.504319	 -1.489036	 0.954968
O	 0.462329	 -0.453336	 -0.000137
H	 0.492918	 -1.091457	 1.961953
H	 -0.323722	 -2.174152	 0.823811
C	 -0.590565	 0.341382	 0.000062
O	 -1.693898	 -0.053880	 0.000252
H	 -0.340426	 1.403822	 0.000200

	symmetry c1
}
set optking {
	frozen_dihedral = ("
		2 3 6 7
	")
}

ee,wfn = optimize('scf', return_wfn=True)
oeprop( wfn, 'DIPOLE', 'QUADRUPOLE', 'MULLIKEN_CHARGES')
f=open( 'psi4out.xyz', 'w' )
f.write( "8  " )
f.write( str(ee) + "\n" )
f.write( MOL.save_string_xyz() )
f.close()
--------------------------------------------------------------------------

    Molecular point group: c1
  Charge       = 0
  Multiplicity = 1
  Basis Set: CC-PVTZ
  Basis Set:
  @DF-RHF Final Energy:  -227.86619136401470
    Total Energy =                       -227.8661913640146111
    Molecular point group: c1
  Basis Set: CC-PVTZ
  Basis Set:
  Basis Set: CC-PVTZ
  Basis Set:
  @DF-RHF Final Energy:  -227.85936916427866
    Total Energy =                       -227.8593691642786609
  Basis Set: CC-PVTZ
  Basis Set:
  Basis Set: CC-PVTZ
  Basis Set:
  @DF-RHF Final Energy:  -227.86580810955149
    Total Energy =                       -227.8658081095514945
  Basis Set: CC-PVTZ
  Basis Set:
  Basis Set: CC-PVTZ
  Basis Set:
  @DF-RHF Final Energy:  -227.86733004318845
    Total Energy =                       -227.8673300431885309
  Basis Set: CC-PVTZ
  Basis Set:
  Basis Set: CC-PVTZ
  Basis Set:
  @DF-RHF Final Energy:  -227.86734262390951
    Total Energy =                       -227.8673426239096784
  Basis Set: CC-PVTZ
  Basis Set:
  Basis Set: CC-PVTZ
  Basis Set:
  @DF-RHF Final Energy:  -227.86737012637036
    Total Energy =                       -227.8673701263703322
  Basis Set: CC-PVTZ
  Basis Set:
  Basis Set: CC-PVTZ
  Basis Set:
  @DF-RHF Final Energy:  -227.86737117193107
    Total Energy =                       -227.8673711719310120
  Basis Set: CC-PVTZ
  Basis Set:
  Charge       = 0
  Multiplicity = 1
  Basis Set: CC-PVTZ
  Basis Set:

    Orbital Energies (a.u.)
    -----------------------

    Doubly Occupied:

       1A    -20.597825     2A    -20.555782     3A    -11.374599
       4A    -11.291143     5A     -1.475401     6A     -1.381806
       7A     -0.993356     8A     -0.824576     9A     -0.743655
      10A     -0.687515    11A     -0.674544    12A     -0.615942
      13A     -0.562722    14A     -0.525073    15A     -0.472605
      16A     -0.458095

  @DF-RHF Final Energy:  -227.86737136815083

   => Energetics <=

    Nuclear Repulsion Energy =            122.9212204796184551
    One-Electron Energy =                -555.1079064436310091
    Two-Electron Energy =                 204.3193145958618402
    DFT Exchange-Correlation Energy =       0.0000000000000000
    Empirical Dispersion Energy =           0.0000000000000000
    PCM Polarization Energy =               0.0000000000000000
    EFP Energy =                            0.0000000000000000
    Total Energy =                       -227.8673713681507138
    Molecular point group: c1
  Basis Set: CC-PVTZ
  Basis Set:

  -Total Gradient:
     Atom            X                  Y                   Z
    ------   -----------------  -----------------  -----------------
       1        0.000000107228     0.000013628115    -0.000011829698
       2        0.003509509558     0.004945265802     0.004929413845
       3       -0.005273037155    -0.007583116975    -0.012602592593
       4        0.000001826176    -0.000006333599     0.000003342215
       5        0.000000418924    -0.000000092772    -0.000003426244
       6        0.001762353625     0.002853813688     0.017917336092
       7       -0.000014483312    -0.000227040096    -0.010227326929
       8        0.000013304955     0.000003875838    -0.000004916689

  **** Optimization is complete! (in 8 steps) ****
    Final optimized geometry and variables:
    Molecular point group: c1

    Geometry (in Angstrom), charge = 0, multiplicity = 1:

    H            1.766774275937    -1.596145969427     0.517997797597
    C            0.868730976750    -1.038795734845     0.726457143064
    O            0.791544991046    -0.022042356392    -0.257870989232
    H            0.937621396320    -0.595048634332     1.710996873706
    H            0.009693434752    -1.690680028420     0.677386000221
    C           -0.287023492311     0.750656583331    -0.265828928828
    O           -1.397833856665     0.369674249934    -0.245909872092
    H           -0.018136197883     1.795527725562    -0.395634051332

  Mulliken Charges: (a.u.)
   Center  Symbol    Alpha    Beta     Spin     Total
       1     H     0.44568  0.44568  0.00000  0.10863
       2     C     3.02588  3.02588  0.00000 -0.05177
       3     O     4.15094  4.15094  0.00000 -0.30189
       4     H     0.46176  0.46176  0.00000  0.07649
       5     H     0.44821  0.44821  0.00000  0.10358
       6     C     2.83161  2.83161  0.00000  0.33679
       7     O     4.17846  4.17846  0.00000 -0.35691
       8     H     0.45746  0.45746  0.00000  0.08509

   Total alpha = 16.00000, Total beta = 16.00000, Total charge = -0.00000

*** Psi4 exiting successfully. Buy a developer a beer!
