  ==> Input File <==

--------------------------------------------------------------------------
set {
	reference rhf
	basis 6-31G*
}

set_num_threads( 4 )
memory 2 gb

molecule MOL {
0 1

H	 -2.698709	 -0.000305	 0.034435
C	 -1.693833	 0.000034	 0.434417
O	 -0.828952	 -0.000968	 -0.659236
H	 -1.574200	 0.882896	 1.055746
H	 -1.574147	 -0.881698	 1.057355
C	 0.332450	 -0.796010	 -0.599600
C	 1.295384	 -0.344107	 0.496511
C	 0.016874	 -2.288125	 -0.516149
H	 0.807366	 -0.610338	 -1.555639
H	 1.456644	 0.726901	 0.437474
H	 2.253495	 -0.839888	 0.376265
H	 0.927922	 -0.581449	 1.489891
H	 -0.707303	 -2.562523	 -1.275578
H	 0.919571	 -2.868117	 -0.681111
H	 -0.379429	 -2.570784	 0.453845

	symmetry c1
}
set optking {
	frozen_dihedral = ("
		6 3 2 1
	")
}

ee = optimize('scf')
oeprop('DIPOLE', 'QUADRUPOLE', 'MULLIKEN_CHARGES')
f=open( 'psi4out.xyz', 'w' )
f.write( "15  " )
f.write( str(ee) + "\n" )
f.write( MOL.save_string_xyz() )
f.close()
--------------------------------------------------------------------------

    Molecular point group: c1
  Charge       = 0
  Multiplicity = 1
  Basis Set: 6-31G*
  Basis Set:
  @DF-RHF Final Energy:  -232.13559458616808
    Total Energy =                       -232.1355945861681676
    Molecular point group: c1
  Basis Set: 6-31G*
  Basis Set:
  Basis Set: 6-31G*
  Basis Set:
  @DF-RHF Final Energy:  -232.13522631613174
    Total Energy =                       -232.1352263161317637
  Basis Set: 6-31G*
  Basis Set:
  Basis Set: 6-31G*
  Basis Set:
  @DF-RHF Final Energy:  -232.13599210469138
    Total Energy =                       -232.1359921046910699
  Basis Set: 6-31G*
  Basis Set:
  Basis Set: 6-31G*
  Basis Set:
  @DF-RHF Final Energy:  -232.13605314383810
    Total Energy =                       -232.1360531438380121
  Basis Set: 6-31G*
  Basis Set:
  Basis Set: 6-31G*
  Basis Set:
  @DF-RHF Final Energy:  -232.13605248591927
    Total Energy =                       -232.1360524859191514
  Basis Set: 6-31G*
  Basis Set:
  Basis Set: 6-31G*
  Basis Set:
  @DF-RHF Final Energy:  -232.13605613427660
    Total Energy =                       -232.1360561342767141
  Basis Set: 6-31G*
  Basis Set:
  Charge       = 0
  Multiplicity = 1
  Basis Set: 6-31G*
  Basis Set:

    Orbital Energies (a.u.)
    -----------------------

    Doubly Occupied:

       1A    -20.546393     2A    -11.274811     3A    -11.261463
       4A    -11.211011     5A    -11.209969     6A     -1.368576
       7A     -1.049978     8A     -0.939960     9A     -0.931248
      10A     -0.781546    11A     -0.675376    12A     -0.639284
      13A     -0.632114    14A     -0.569458    15A     -0.563942
      16A     -0.552288    17A     -0.537700    18A     -0.500274
      19A     -0.497753    20A     -0.441962    21A     -0.403834

  @DF-RHF Final Energy:  -232.13605618578677

   => Energetics <=

    Nuclear Repulsion Energy =            198.7034113770478427
    One-Electron Energy =                -708.5010534169661014
    Two-Electron Energy =                 277.6615858541312605
    DFT Exchange-Correlation Energy =       0.0000000000000000
    Empirical Dispersion Energy =           0.0000000000000000
    PCM Polarization Energy =               0.0000000000000000
    EFP Energy =                            0.0000000000000000
    Total Energy =                       -232.1360561857870266
    Molecular point group: c1
  Basis Set: 6-31G*
  Basis Set:

  -Total Gradient:
     Atom            X                  Y                   Z
    ------   -----------------  -----------------  -----------------
       1        0.000032416044    -0.001883191109     0.000126718757
       2       -0.000427338263     0.001707360427    -0.000409069624
       3        0.001213685716     0.001418293890     0.000806364502
       4        0.000001934111     0.000000627592    -0.000002172602
       5       -0.000012069680     0.000008308948     0.000005057660
       6       -0.000797536238    -0.001248607010    -0.000535674685
       7        0.000003313152     0.000000855586    -0.000001290828
       8       -0.000006258999    -0.000009091913     0.000011478647
       9        0.000000721390     0.000005935437    -0.000002704696
      10       -0.000001159810     0.000002667339     0.000004794918
      11       -0.000003617371     0.000002636628    -0.000002355845
      12        0.000001333405    -0.000001844167    -0.000000971072
      13       -0.000000031674    -0.000001819633    -0.000001591434
      14       -0.000004452234     0.000008349473     0.000000604470
      15       -0.000000939547    -0.000010481489     0.000000811836

  **** Optimization is complete! (in 7 steps) ****
    Final optimized geometry and variables:
    Molecular point group: c1

    Geometry (in Angstrom), charge = 0, multiplicity = 1:

    H           -2.508845945260     0.670649474350     0.272724028774
    C           -1.480902487783     0.711042412831     0.611641280524
    O           -0.651821513488     0.652177783119    -0.511846317479
    H           -1.324693589207     1.635245610422     1.159896861342
    H           -1.327752571189    -0.118428462054     1.292834142192
    C            0.526362075149    -0.116753448554    -0.450331952304
    C            1.465889980868     0.346043425320     0.661005914861
    C            0.234015383003    -1.614705543532    -0.391287439743
    H            1.007251615549     0.088008672201    -1.399398020814
    H            1.638370230977     1.414265370774     0.585721064373
    H            2.422916432611    -0.159924451369     0.580186438926
    H            1.065059680463     0.134065804627     1.647479307572
    H           -0.451776529275    -1.891183415083    -1.184441614399
    H            1.151786141136    -2.180294234130    -0.520288005165
    H           -0.202367812752    -1.913293448798     0.556484081061

  Mulliken Charges: (a.u.)
   Center  Symbol    Alpha    Beta     Spin     Total
       1     H     0.41629  0.41629  0.00000  0.16741
       2     C     3.07945  3.07945  0.00000 -0.15890
       3     O     4.31449  4.31449  0.00000 -0.62897
       4     H     0.42428  0.42428  0.00000  0.15144
       5     H     0.43032  0.43032  0.00000  0.13936
       6     C     2.91012  2.91012  0.00000  0.17976
       7     C     3.25269  3.25269  0.00000 -0.50537
       8     C     3.25005  3.25005  0.00000 -0.50011
       9     H     0.41551  0.41551  0.00000  0.16899
      10     H     0.41177  0.41177  0.00000  0.17647
      11     H     0.41924  0.41924  0.00000  0.16152
      12     H     0.42175  0.42175  0.00000  0.15649
      13     H     0.41145  0.41145  0.00000  0.17710
      14     H     0.42054  0.42054  0.00000  0.15891
      15     H     0.42205  0.42205  0.00000  0.15589

   Total alpha = 21.00000, Total beta = 21.00000, Total charge =  0.00000
