                              Psi4 1.0.54 Driver

  ==> Input File <==

--------------------------------------------------------------------------
set {
	reference rhf
	basis cc-pvtz
}

set_num_threads( 4 )
memory 2 gb

molecule MOL {
0 1

O	 -2.817697	 1.304178	 0.001046
C	 -2.664672	 0.129869	 0.003507
C	 -3.797908	 -0.860100	 -0.001145
O	 -1.481217	 -0.452708	 0.001092
H	 -4.408836	 -0.679689	 -0.875387
H	 -3.443486	 -1.878443	 -0.002770
H	 -4.412123	 -0.683688	 0.871605
C	 -0.332055	 0.384012	 -0.000250
C	 0.892252	 -0.506059	 -0.000295
H	 -0.360822	 1.020205	 -0.874146
H	 -0.359817	 1.021310	 0.872861
C	 2.188199	 0.299473	 -0.001416
H	 0.857046	 -1.152781	 -0.871031
H	 0.857910	 -1.151798	 0.871202
C	 2.102012	 1.571557	 0.837333
H	 3.000304	 -0.319712	 0.371507
H	 2.450610	 0.562607	 -1.023118
C	 3.396458	 2.377419	 0.835519
H	 1.841566	 1.309763	 1.858944
H	 1.290911	 2.191192	 0.465505
H	 4.220448	 1.795404	 1.234449
H	 3.301759	 3.272611	 1.438983
H	 3.665696	 2.683384	 -0.169842

	symmetry c1
}
set optking {
	frozen_dihedral = ("
		16 12 9 13
	")
}

ee,wfn = optimize('scf', return_wfn=True)
oeprop( wfn, 'DIPOLE', 'QUADRUPOLE', 'MULLIKEN_CHARGES')
f=open( 'psi4out.xyz', 'w' )
f.write( "23  " )
f.write( str(ee) + "\n" )
f.write( MOL.save_string_xyz() )
f.close()
--------------------------------------------------------------------------

    Molecular point group: c1
  Charge       = 0
  Multiplicity = 1
  Basis Set: CC-PVTZ
  Basis Set:
  @DF-RHF Final Energy:  -423.12798723512361
    Total Energy =                       -423.1279872351232143
    Molecular point group: c1
  Basis Set: CC-PVTZ
  Basis Set:
  Basis Set: CC-PVTZ
  Basis Set:
  @DF-RHF Final Energy:  -423.12197054802658
    Total Energy =                       -423.1219705480266384
  Basis Set: CC-PVTZ
  Basis Set:
  Basis Set: CC-PVTZ
  Basis Set:
  @DF-RHF Final Energy:  -423.13000404623426
    Total Energy =                       -423.1300040462347170
  Basis Set: CC-PVTZ
  Basis Set:
  Basis Set: CC-PVTZ
  Basis Set:
  @DF-RHF Final Energy:  -423.13027655894979
    Total Energy =                       -423.1302765589500723
  Basis Set: CC-PVTZ
  Basis Set:
  @DF-RHF Final Energy:  -423.12817038290456
    Total Energy =                       -423.1281703829043863
  Basis Set: CC-PVTZ
  Basis Set:
  @DF-RHF Final Energy:  -423.13040378207830
    Total Energy =                       -423.1304037820782469
  Basis Set: CC-PVTZ
  Basis Set:
  Basis Set: CC-PVTZ
  Basis Set:
  @DF-RHF Final Energy:  -423.13042068891809
    Total Energy =                       -423.1304206889180932
  Basis Set: CC-PVTZ
  Basis Set:
  Basis Set: CC-PVTZ
  Basis Set:
  @DF-RHF Final Energy:  -423.13042258252108
    Total Energy =                       -423.1304225825206231
  Basis Set: CC-PVTZ
  Basis Set:
  Charge       = 0
  Multiplicity = 1
  Basis Set: CC-PVTZ
  Basis Set:

    Orbital Energies (a.u.)
    -----------------------

    Doubly Occupied:

       1A    -20.595498     2A    -20.529319     3A    -11.366181
       4A    -11.278555     5A    -11.230505     6A    -11.222680
       7A    -11.221578     8A    -11.219291     9A    -11.210705
      10A     -1.470761    11A     -1.363698    12A     -1.094278
      13A     -1.040814    14A     -1.002756    15A     -0.931889
      16A     -0.852656    17A     -0.789323    18A     -0.780218
      19A     -0.693477    20A     -0.687908    21A     -0.670824
      22A     -0.643209    23A     -0.609541    24A     -0.588581
      25A     -0.578865    26A     -0.571843    27A     -0.565725
      28A     -0.529395    29A     -0.527656    30A     -0.512569
      31A     -0.497804    32A     -0.475641    33A     -0.467848
      34A     -0.459785    35A     -0.452944    36A     -0.439208

  @DF-RHF Final Energy:  -423.13042305097332

   => Energetics <=

    Nuclear Repulsion Energy =            458.0669482107816179
    One-Electron Energy =               -1484.0476891619900925
    Two-Electron Energy =                 602.8503179002352681
    DFT Exchange-Correlation Energy =       0.0000000000000000
    Empirical Dispersion Energy =           0.0000000000000000
    PCM Polarization Energy =               0.0000000000000000
    EFP Energy =                            0.0000000000000000
    Total Energy =                       -423.1304230509731497
    Molecular point group: c1
  Basis Set: CC-PVTZ
  Basis Set:

  -Total Gradient:
     Atom            X                  Y                   Z
    ------   -----------------  -----------------  -----------------
       1       -0.000026282652     0.000020186193    -0.000006017149
       2        0.000021375364    -0.000052020685     0.000000462340
       3       -0.000003956617    -0.000001930169     0.000009597300
       4       -0.000026898042     0.000016585714    -0.000026561100
       5       -0.000002923515     0.000004628518    -0.000009252339
       6        0.000010299209     0.000024686078     0.000008308150
       7       -0.000014442010    -0.000004677923    -0.000000972180
       8        0.000030958077     0.000006053898     0.000077207552
       9        0.002133254285    -0.005074267634     0.004049010127
      10        0.000001062137    -0.000019816964    -0.000007144848
      11        0.000007317311    -0.000001776144    -0.000008094405
      12        0.000447907108    -0.000651658311    -0.006718309922
      13       -0.001856933735     0.004368638330    -0.002417960376
      14       -0.000005113719     0.000004505361    -0.000014152892
      15       -0.000012835507     0.000003877813     0.000004857138
      16       -0.000723867803     0.001367341728     0.005065125771
      17        0.000005857338    -0.000010492835     0.000002542909
      18        0.000008441449     0.000007870342    -0.000010739786
      19       -0.000008845614    -0.000011698423    -0.000003532033
      20        0.000010287244     0.000000970986    -0.000000845879
      21       -0.000000543771    -0.000000123333     0.000004393810
      22        0.000001766167     0.000002916024    -0.000001818406
      23        0.000004117288     0.000000201441     0.000003896216

  **** Optimization is complete! (in 9 steps) ****
    Final optimized geometry and variables:
    Molecular point group: c1

    Geometry (in Angstrom), charge = 0, multiplicity = 1:

    O           -2.482009633071     1.134584849728    -0.191902724854
    C           -2.436256360037    -0.041028077071    -0.328423169121
    C           -3.651339080002    -0.906012799450    -0.529160475606
    O           -1.314457994360    -0.734465630753    -0.321435416473
    H           -4.177061957725    -0.561810229797    -1.409675522920
    H           -3.391450269350    -1.946832314163    -0.637818864667
    H           -4.309914113174    -0.776111189729     0.319197663837
    C           -0.097498770347    -0.022291577280    -0.134562971977
    C            1.026967511915    -1.041212649569    -0.157331304726
    H            0.008906791622     0.704491216629    -0.929082734889
    H           -0.151036911698     0.514725293675     0.799816941436
    C            2.431852666090    -0.423339762158    -0.120702267243
    H            0.911480792432    -1.598973322670    -1.079868631114
    H            0.891693328952    -1.730464413864     0.668200628876
    C            2.613803398747     0.744992777354     0.851661892465
    H            3.126993154722    -1.197792281485     0.187702807791
    H            2.720749878953    -0.104921207350    -1.117307166696
    C            4.063577334331     1.212088528608     0.930659225205
    H            2.278794235803     0.447014201857     1.841848244556
    H            1.990758068209     1.582627825143     0.556697892954
    H            4.714573308000     0.414337370603     1.272301904576
    H            4.170444477681     2.043668940645     1.617313436001
    H            4.422614895373     1.537076045554    -0.040252080045

  Mulliken Charges: (a.u.)
   Center  Symbol    Alpha    Beta     Spin     Total
       1     O     4.20244  4.20244  0.00000 -0.40488
       2     C     2.81711  2.81711  0.00000  0.36578
       3     C     3.13997  3.13997  0.00000 -0.27993
       4     O     4.14613  4.14613  0.00000 -0.29226
       5     H     0.44211  0.44211  0.00000  0.11578
       6     H     0.44179  0.44179  0.00000  0.11643
       7     H     0.44228  0.44228  0.00000  0.11543
       8     C     2.97806  2.97806  0.00000  0.04389
       9     C     3.09024  3.09024  0.00000 -0.18048
      10     H     0.45339  0.45339  0.00000  0.09322
      11     H     0.45078  0.45078  0.00000  0.09845
      12     C     3.10130  3.10130  0.00000 -0.20260
      13     H     0.44635  0.44635  0.00000  0.10731
      14     H     0.44846  0.44846  0.00000  0.10308
      15     C     3.09379  3.09379  0.00000 -0.18758
      16     H     0.44887  0.44887  0.00000  0.10225
      17     H     0.44951  0.44951  0.00000  0.10098
      18     C     3.15009  3.15009  0.00000 -0.30018
      19     H     0.45156  0.45156  0.00000  0.09688
      20     H     0.44973  0.44973  0.00000  0.10054
      21     H     0.45457  0.45457  0.00000  0.09086
      22     H     0.44686  0.44686  0.00000  0.10628
      23     H     0.45463  0.45463  0.00000  0.09075

   Total alpha = 36.00000, Total beta = 36.00000, Total charge = -0.00000

*** Psi4 exiting successfully. Buy a developer a beer!
