  ==> Input File <==

--------------------------------------------------------------------------
set {
	reference rhf
	basis 6-31G*
}

set_num_threads( 4 )
memory 2 gb

molecule MOL {
0 1

H	 3.463771	 0.168298	 -0.756243
C	 2.752674	 -0.045734	 0.033351
C	 1.322923	 0.120767	 -0.479465
H	 2.934561	 -1.059086	 0.377456
H	 2.958358	 0.631174	 0.856809
C	 0.306652	 -0.176050	 0.621399
H	 1.144658	 -0.551717	 -1.312180
H	 1.166477	 1.131798	 -0.836680
N	 -1.068537	 -0.011044	 0.085269
H	 0.372515	 -1.192590	 0.973735
H	 0.391664	 0.520566	 1.441230
O	 -1.179439	 0.309845	 -1.057580
O	 -1.970499	 -0.180736	 0.847958

	symmetry c1
}
set optking {
	frozen_dihedral = ("
		12 9 6 3
	")
}

ee = optimize('scf')
oeprop('DIPOLE', 'QUADRUPOLE', 'MULLIKEN_CHARGES')
f=open( 'psi4out.xyz', 'w' )
f.write( "13  " )
f.write( str(ee) + "\n" )
f.write( MOL.save_string_xyz() )
f.close()
--------------------------------------------------------------------------

    Molecular point group: c1
  Charge       = 0
  Multiplicity = 1
  Basis Set: 6-31G*
  Basis Set:
  @DF-RHF Final Energy:  -321.73305549092959
    Total Energy =                       -321.7330554909294733
    Molecular point group: c1
  Basis Set: 6-31G*
  Basis Set:
  Basis Set: 6-31G*
  Basis Set:
  @DF-RHF Final Energy:  -321.73158987983254
    Total Energy =                       -321.7315898798323701
  Basis Set: 6-31G*
  Basis Set:
  Basis Set: 6-31G*
  Basis Set:
  @DF-RHF Final Energy:  -321.73162908874315
    Total Energy =                       -321.7316290887432615
  Basis Set: 6-31G*
  Basis Set:
  Basis Set: 6-31G*
  Basis Set:
  @DF-RHF Final Energy:  -321.73441584468264
    Total Energy =                       -321.7344158446825304
  Basis Set: 6-31G*
  Basis Set:
  Basis Set: 6-31G*
  Basis Set:
  @DF-RHF Final Energy:  -321.73364518976609
    Total Energy =                       -321.7336451897661505
  Basis Set: 6-31G*
  Basis Set:
  Basis Set: 6-31G*
  Basis Set:
  @DF-RHF Final Energy:  -321.73473742030524
    Total Energy =                       -321.7347374203052368
  Basis Set: 6-31G*
  Basis Set:
  Basis Set: 6-31G*
  Basis Set:
  @DF-RHF Final Energy:  -321.73498616751533
    Total Energy =                       -321.7349861675152169
  Basis Set: 6-31G*
  Basis Set:
  Charge       = 0
  Multiplicity = 1
  Basis Set: 6-31G*
  Basis Set:

    Orbital Energies (a.u.)
    -----------------------

    Doubly Occupied:

       1A    -20.604731     2A    -20.597803     3A    -15.848985
       4A    -11.301281     5A    -11.249680     6A    -11.237502
       7A     -1.632108     8A     -1.417365     9A     -1.132905
      10A     -1.027273    11A     -0.884823    12A     -0.825291
      13A     -0.759826    14A     -0.750507    15A     -0.725775
      16A     -0.655772    17A     -0.607854    18A     -0.575741
      19A     -0.554122    20A     -0.522858    21A     -0.509947
      22A     -0.485786    23A     -0.472965    24A     -0.448575

  @DF-RHF Final Energy:  -321.73498755027447

   => Energetics <=

    Nuclear Repulsion Energy =            247.0365987634440046
    One-Electron Energy =                -927.8842232154670455
    Two-Electron Energy =                 359.1126369017485445
    DFT Exchange-Correlation Energy =       0.0000000000000000
    Empirical Dispersion Energy =           0.0000000000000000
    PCM Polarization Energy =               0.0000000000000000
    EFP Energy =                            0.0000000000000000
    Total Energy =                       -321.7349875502745249
    Molecular point group: c1
  Basis Set: 6-31G*
  Basis Set:

  -Total Gradient:
     Atom            X                  Y                   Z
    ------   -----------------  -----------------  -----------------
       1       -0.000007340640     0.000001575457    -0.000007764527
       2       -0.000008141871    -0.000009223651     0.000025868696
       3        0.000001914999     0.000026517661     0.000027342371
       4       -0.000002215952     0.000001309428     0.000002102287
       5       -0.000000978248    -0.000001609642    -0.000003989475
       6        0.000014028939    -0.000007481782    -0.000043305465
       7       -0.000014268180    -0.000005891964     0.000021178611
       8        0.000002092399     0.000015066538    -0.000008250521
       9        0.000161956142    -0.000052215564    -0.000018006255
      10        0.000045849259    -0.000013967924     0.000040491052
      11        0.000015050627    -0.000023980686    -0.000024993509
      12       -0.000139362389     0.000003537441     0.000102331674
      13       -0.000068585084     0.000066364689    -0.000113004940

  **** Optimization is complete! (in 8 steps) ****
    Final optimized geometry and variables:
    Molecular point group: c1

    Geometry (in Angstrom), charge = 0, multiplicity = 1:

    H            3.514564191415     0.150145264011    -0.733640806532
    C            2.776825457130    -0.053817015474     0.033811221408
    C            1.364600900914     0.126235069562    -0.525915643759
    H            2.939575043654    -1.067758888361     0.386815059382
    H            2.966691131883     0.622323794611     0.862033215970
    C            0.328890773042    -0.159435090107     0.546740109553
    H            1.208060661456    -0.538254615647    -1.366658100501
    H            1.234717261139     1.135943072288    -0.895476920012
    N           -1.080493066602    -0.005988002644     0.082034205997
    H            0.382391566503    -1.172686713441     0.919964028706
    H            0.408891579594     0.508529530422     1.392966128580
    O           -1.281695140336     0.315265149485    -1.046724370953
    O           -1.923542198288    -0.221945226227     0.898252750157

  Mulliken Charges: (a.u.)
   Center  Symbol    Alpha    Beta     Spin     Total
       1     H     0.40757  0.40757  0.00000  0.18487
       2     C     3.25023  3.25023  0.00000 -0.50047
       3     C     3.16456  3.16456  0.00000 -0.32911
       4     H     0.41647  0.41647  0.00000  0.16706
       5     H     0.41646  0.41646  0.00000  0.16707
       6     C     3.08860  3.08860  0.00000 -0.17721
       7     H     0.40157  0.40157  0.00000  0.19686
       8     H     0.40156  0.40156  0.00000  0.19689
       9     N     3.22505  3.22505  0.00000  0.54989
      10     H     0.38552  0.38552  0.00000  0.22896
      11     H     0.38552  0.38552  0.00000  0.22896
      12     O     4.22755  4.22755  0.00000 -0.45511
      13     O     4.22933  4.22933  0.00000 -0.45866

   Total alpha = 24.00000, Total beta = 24.00000, Total charge =  0.00000
