  ==> Input File <==

--------------------------------------------------------------------------
set {
	reference rhf
	basis cc-pvtz
}

set_num_threads( 4 )
memory 2 gb

molecule MOL {
0 1

H	 -2.827050	 -0.248885	 -0.725924
O	 -2.346257	 -0.289210	 0.080372
C	 -1.183935	 0.486039	 -0.009831
C	 0.062853	 -0.375310	 0.027457
H	 -1.178881	 1.094526	 -0.908634
H	 -1.184406	 1.155156	 0.838676
O	 1.172093	 0.457955	 -0.054438
H	 0.052476	 -1.081302	 -0.804627
H	 0.076323	 -0.955658	 0.947560
C	 2.395478	 -0.199028	 -0.000366
H	 2.505946	 -0.901710	 -0.823354
H	 3.174616	 0.545641	 -0.071768
H	 2.513730	 -0.742241	 0.934223

	symmetry c1
}
set optking {
	frozen_dihedral = ("
		1 2 3 5
	")
}

ee = optimize('scf')
oeprop('DIPOLE', 'QUADRUPOLE', 'MULLIKEN_CHARGES')
f=open( 'psi4out.xyz', 'w' )
f.write( "13  " )
f.write( str(ee) + "\n" )
f.write( MOL.save_string_xyz() )
f.close()
--------------------------------------------------------------------------

    Molecular point group: c1
  Charge       = 0
  Multiplicity = 1
  Basis Set: CC-PVTZ
  Basis Set:
  @DF-RHF Final Energy:  -268.06120803868987
    Total Energy =                       -268.0612080386898697
    Molecular point group: c1
  Basis Set: CC-PVTZ
  Basis Set:
  Basis Set: CC-PVTZ
  Basis Set:
  @DF-RHF Final Energy:  -268.06144791204565
    Total Energy =                       -268.0614479120459919
  Basis Set: CC-PVTZ
  Basis Set:
  Basis Set: CC-PVTZ
  Basis Set:
  @DF-RHF Final Energy:  -268.06152822451907
    Total Energy =                       -268.0615282245190656
  Basis Set: CC-PVTZ
  Basis Set:
  Basis Set: CC-PVTZ
  Basis Set:
  @DF-RHF Final Energy:  -268.06153031697988
    Total Energy =                       -268.0615303169797699
  Basis Set: CC-PVTZ
  Basis Set:
  Charge       = 0
  Multiplicity = 1
  Basis Set: CC-PVTZ
  Basis Set:

    Orbital Energies (a.u.)
    -----------------------

    Doubly Occupied:

       1A    -20.553424     2A    -20.551576     3A    -11.267920
       4A    -11.265704     5A    -11.265356     6A     -1.389377
       7A     -1.367741     8A     -1.019188     9A     -0.912634
      10A     -0.836219    11A     -0.715750    12A     -0.678342
      13A     -0.652284    14A     -0.642573    15A     -0.603667
      16A     -0.556237    17A     -0.548639    18A     -0.490902
      19A     -0.481882    20A     -0.440760    21A     -0.421967

  @DF-RHF Final Energy:  -268.06153053152542

   => Energetics <=

    Nuclear Repulsion Energy =            190.4375872005443284
    One-Electron Energy =                -743.6739467585823604
    Two-Electron Energy =                 285.1748290265124979
    DFT Exchange-Correlation Energy =       0.0000000000000000
    Empirical Dispersion Energy =           0.0000000000000000
    PCM Polarization Energy =               0.0000000000000000
    EFP Energy =                            0.0000000000000000
    Total Energy =                       -268.0615305315254773
    Molecular point group: c1
  Basis Set: CC-PVTZ
  Basis Set:

  -Total Gradient:
     Atom            X                  Y                   Z
    ------   -----------------  -----------------  -----------------
       1       -0.000258484107     0.000380272805     0.000152918463
       2        0.000399605992    -0.000533109711    -0.000246203326
       3       -0.000339550046     0.000457279169     0.000303581458
       4        0.000004774343    -0.000011058681    -0.000010347692
       5        0.000208276013    -0.000311587162    -0.000202400484
       6       -0.000003934734    -0.000006052775     0.000000790672
       7        0.000009893157     0.000011691699     0.000002113340
       8       -0.000007952981    -0.000003978429    -0.000005463387
       9       -0.000003616082     0.000015573864    -0.000000319296
      10       -0.000005729529     0.000000022345     0.000008607613
      11       -0.000004027713     0.000001723842    -0.000000687889
      12       -0.000000594585     0.000001095128    -0.000001789517
      13        0.000001340270    -0.000001872095    -0.000000799956

  **** Optimization is complete! (in 5 steps) ****
    Final optimized geometry and variables:
    Molecular point group: c1

    Geometry (in Angstrom), charge = 0, multiplicity = 1:

    H           -2.811039988168    -0.303551458966    -0.709607990484
    O           -2.326937283536    -0.308479657739     0.093214346566
    C           -1.180384392027     0.493402977815    -0.015806811869
    C            0.059844074493    -0.375084487987     0.012742819485
    H           -1.187738518637     1.079190942124    -0.928193318007
    H           -1.155632195405     1.183519965542     0.817805826264
    O            1.174378568162     0.454578280341    -0.047811026525
    H            0.045616642281    -1.066660500379    -0.828692482497
    H            0.064221082026    -0.968401683983     0.924704958964
    C            2.393106845584    -0.210821600640     0.000233161571
    H            2.503356330031    -0.899496579393    -0.834510755408
    H            3.177604746927     0.529823298153    -0.053791317772
    H            2.503323467083    -0.771696451810     0.925407659034

  Mulliken Charges: (a.u.)
   Center  Symbol    Alpha    Beta     Spin     Total
       1     H     0.38960  0.38960  0.00000  0.22081
       2     O     4.20655  4.20655  0.00000 -0.41309
       3     C     2.97323  2.97323  0.00000  0.05353
       4     C     2.95829  2.95829  0.00000  0.08342
       5     H     0.46864  0.46864  0.00000  0.06272
       6     H     0.45909  0.45909  0.00000  0.08183
       7     O     4.17652  4.17652  0.00000 -0.35304
       8     H     0.47836  0.47836  0.00000  0.04327
       9     H     0.47071  0.47071  0.00000  0.05857
      10     C     3.03110  3.03110  0.00000 -0.06220
      11     H     0.47119  0.47119  0.00000  0.05763
      12     H     0.44672  0.44672  0.00000  0.10657
      13     H     0.47001  0.47001  0.00000  0.05998

   Total alpha = 21.00000, Total beta = 21.00000, Total charge =  0.00000
