  ==> Input File <==

--------------------------------------------------------------------------
set {
	reference rhf
	basis 6-31G*
}

set_num_threads( 4 )
memory 2 gb

molecule MOL {
0 1

H	 2.591676	 2.013956	 0.335017
O	 3.341076	 1.666752	 -0.126416
C	 3.569581	 0.339145	 0.272707
C	 2.539767	 -0.640285	 -0.279495
H	 4.553106	 0.084646	 -0.100901
H	 3.608576	 0.269204	 1.359154
C	 1.115811	 -0.397273	 0.226630
H	 2.556196	 -0.582511	 -1.364741
H	 2.852081	 -1.648031	 -0.010655
C	 0.115918	 -1.429151	 -0.302766
H	 0.797950	 0.599468	 -0.066350
H	 1.109961	 -0.420744	 1.316472
C	 -1.145395	 -1.600825	 0.551609
H	 -0.170910	 -1.161532	 -1.318126
H	 0.617281	 -2.392114	 -0.373755
C	 -2.068698	 -0.379966	 0.590259
H	 -1.707413	 -2.448348	 0.164755
H	 -0.857824	 -1.867945	 1.567378
C	 -3.362110	 -0.635107	 1.367064
H	 -2.315089	 -0.083805	 -0.428412
H	 -1.552006	 0.466065	 1.036985
C	 -4.282679	 0.583967	 1.412634
H	 -3.893131	 -1.471246	 0.917201
H	 -3.117726	 -0.940555	 2.382378
H	 -4.571732	 0.894567	 0.412534
H	 -5.190910	 0.370998	 1.967967
H	 -3.793178	 1.427766	 1.890918

	symmetry c1
}
set optking {
	frozen_dihedral = ("
		14 10 7 4
	")
}

ee = optimize('scf')
oeprop('DIPOLE', 'QUADRUPOLE', 'MULLIKEN_CHARGES')
f=open( 'psi4out.xyz', 'w' )
f.write( "27  " )
f.write( str(ee) + "\n" )
f.write( MOL.save_string_xyz() )
f.close()
--------------------------------------------------------------------------

    Molecular point group: c1
  Charge       = 0
  Multiplicity = 1
  Basis Set: 6-31G*
  Basis Set:
  @DF-RHF Final Energy:  -388.28041491246927
    Total Energy =                       -388.2804149124694959
    Molecular point group: c1
  Basis Set: 6-31G*
  Basis Set:
  Basis Set: 6-31G*
  Basis Set:
  @DF-RHF Final Energy:  -388.28037347460122
    Total Energy =                       -388.2803734746012196
  Basis Set: 6-31G*
  Basis Set:
  Basis Set: 6-31G*
  Basis Set:
  @DF-RHF Final Energy:  -388.28059999234222
    Total Energy =                       -388.2805999923424451
  Basis Set: 6-31G*
  Basis Set:
  Basis Set: 6-31G*
  Basis Set:
  @DF-RHF Final Energy:  -388.28063416666276
    Total Energy =                       -388.2806341666622529
  Basis Set: 6-31G*
  Basis Set:
  Basis Set: 6-31G*
  Basis Set:
  @DF-RHF Final Energy:  -388.28063108906701
    Total Energy =                       -388.2806310890671284
  Basis Set: 6-31G*
  Basis Set:
  Basis Set: 6-31G*
  Basis Set:
  @DF-RHF Final Energy:  -388.28064398690964
    Total Energy =                       -388.2806439869081032
  Basis Set: 6-31G*
  Basis Set:
  Charge       = 0
  Multiplicity = 1
  Basis Set: 6-31G*
  Basis Set:

    Orbital Energies (a.u.)
    -----------------------

    Doubly Occupied:

       1A    -20.552249     2A    -11.267016     3A    -11.220134
       4A    -11.217206     5A    -11.216372     6A    -11.215624
       7A    -11.215365     8A    -11.214636     9A    -11.209767
      10A     -1.359022    11A     -1.095386    12A     -1.061342
      13A     -1.011810    14A     -0.947996    15A     -0.888326
      16A     -0.820166    17A     -0.802771    18A     -0.777191
      19A     -0.693203    20A     -0.655324    21A     -0.636441
      22A     -0.614706    23A     -0.596725    24A     -0.585724
      25A     -0.580152    26A     -0.551183    27A     -0.543827
      28A     -0.531677    29A     -0.504440    30A     -0.494386
      31A     -0.486498    32A     -0.474618    33A     -0.467440
      34A     -0.460720    35A     -0.453323    36A     -0.441691
      37A     -0.422644

  @DF-RHF Final Energy:  -388.28064380177807

   => Energetics <=

    Nuclear Repulsion Energy =            459.5960725646978062
    One-Electron Energy =               -1437.1792275151492504
    Two-Electron Energy =                 589.3025111486734886
    DFT Exchange-Correlation Energy =       0.0000000000000000
    Empirical Dispersion Energy =           0.0000000000000000
    PCM Polarization Energy =               0.0000000000000000
    EFP Energy =                            0.0000000000000000
    Total Energy =                       -388.2806438017779556
    Molecular point group: c1
  Basis Set: 6-31G*
  Basis Set:

  -Total Gradient:
     Atom            X                  Y                   Z
    ------   -----------------  -----------------  -----------------
       1       -0.000001482433     0.000001424115    -0.000000063557
       2        0.000002558912     0.000004440605    -0.000000273003
       3        0.000001663414     0.000002199260    -0.000001427532
       4        0.000438549503    -0.001364411856     0.001821873713
       5        0.000001652887     0.000000372462     0.000001497470
       6        0.000000590875     0.000000122463    -0.000000792649
       7       -0.001167253355     0.002292291798    -0.002248884143
       8       -0.000009969833    -0.000002012485     0.000002178833
       9        0.000004674119     0.000000326832    -0.000000094305
      10        0.003155379347    -0.002604849201    -0.000703767295
      11        0.000002990426     0.000004965888     0.000006992435
      12        0.000013288492     0.000000357534    -0.000000000276
      13        0.000017911808     0.000013555601     0.000017807147
      14       -0.002437367543     0.001673120769     0.001142781072
      15       -0.000012445643    -0.000010024066    -0.000003085052
      16       -0.000007955539    -0.000011376825    -0.000016859473
      17        0.000001509944     0.000015203338     0.000000487649
      18        0.000009954099    -0.000008474490     0.000004178326
      19       -0.000014468260    -0.000009257321    -0.000024288153
      20       -0.000002370395    -0.000009638063    -0.000004708443
      21       -0.000003504827     0.000003797523    -0.000008865026
      22        0.000012508153     0.000009169494     0.000024991802
      23       -0.000008128857     0.000007361475    -0.000009210556
      24       -0.000001152904    -0.000011279411    -0.000007344944
      25       -0.000001234690    -0.000010044031     0.000002756172
      26        0.000004290989     0.000003222398     0.000008829315
      27       -0.000000188700     0.000009436192    -0.000004709526

  **** Optimization is complete! (in 7 steps) ****
    Final optimized geometry and variables:
    Molecular point group: c1

    Geometry (in Angstrom), charge = 0, multiplicity = 1:

    H            2.490557874042     2.267806505668    -0.130082937847
    O            3.254123602467     1.927433071338    -0.572936793824
    C            3.513893298854     0.619118432995    -0.131697159061
    C            2.518107371224    -0.404661578991    -0.665372279979
    H            4.508187058618     0.381111583367    -0.487205609075
    H            3.542646612774     0.582385393998     0.956787597612
    C            1.085280504112    -0.199460573339    -0.167256458492
    H            2.539408074875    -0.371804052646    -1.751922030920
    H            2.858721973639    -1.395719530957    -0.371395310662
    C            0.105005337559    -1.244306150354    -0.719040389768
    H            0.740663486045     0.796066038780    -0.432703885567
    H            1.085899682513    -0.247925231089     0.921830968765
    C           -1.172080661566    -1.411817524370     0.113094516310
    H           -0.180722667100    -0.967281459041    -1.731776439892
    H            0.604457911453    -2.207628860902    -0.783612842568
    C           -2.056773436083    -0.164149050077     0.176453505307
    H           -1.752490375378    -2.231109788068    -0.306261312452
    H           -0.904692736211    -1.715761825627     1.123973858336
    C           -3.360251105908    -0.392904190175     0.944382592725
    H           -2.289949158650     0.162329368351    -0.836190777799
    H           -1.511998495425     0.653964453028     0.642418150506
    C           -4.239159823935     0.855303432482     1.016280063304
    H           -3.917914885011    -1.200003287444     0.474183483771
    H           -3.129199764217    -0.729707390930     1.952850576227
    H           -4.516183286634     1.197457275831     0.023095012214
    H           -5.154856099722     0.661011808337     1.566147367107
    H           -3.722069812043     1.671284922607     1.513467774057

  Mulliken Charges: (a.u.)
   Center  Symbol    Alpha    Beta     Spin     Total
       1     H     0.28004  0.28004  0.00000  0.43993
       2     O     4.37089  4.37089  0.00000 -0.74179
       3     C     2.99746  2.99746  0.00000  0.00508
       4     C     3.16169  3.16169  0.00000 -0.32337
       5     H     0.41441  0.41441  0.00000  0.17117
       6     H     0.43219  0.43219  0.00000  0.13561
       7     C     3.16294  3.16294  0.00000 -0.32588
       8     H     0.41493  0.41493  0.00000  0.17015
       9     H     0.42407  0.42407  0.00000  0.15186
      10     C     3.15242  3.15242  0.00000 -0.30483
      11     H     0.42337  0.42337  0.00000  0.15326
      12     H     0.42505  0.42505  0.00000  0.14990
      13     C     3.15409  3.15409  0.00000 -0.30818
      14     H     0.42079  0.42079  0.00000  0.15843
      15     H     0.42029  0.42029  0.00000  0.15942
      16     C     3.15253  3.15253  0.00000 -0.30507
      17     H     0.42164  0.42164  0.00000  0.15673
      18     H     0.42427  0.42427  0.00000  0.15146
      19     C     3.15117  3.15117  0.00000 -0.30234
      20     H     0.42401  0.42401  0.00000  0.15198
      21     H     0.42355  0.42355  0.00000  0.15290
      22     C     3.23918  3.23918  0.00000 -0.47836
      23     H     0.42274  0.42274  0.00000  0.15452
      24     H     0.42324  0.42324  0.00000  0.15353
      25     H     0.42155  0.42155  0.00000  0.15691
      26     H     0.41913  0.41913  0.00000  0.16174
      27     H     0.42239  0.42239  0.00000  0.15523

   Total alpha = 37.00000, Total beta = 37.00000, Total charge =  0.00000
