  ==> Input File <==

--------------------------------------------------------------------------
set {
	reference rhf
	basis 6-31G*
}

set_num_threads( 4 )
memory 2 gb

molecule MOL {
0 1

H	 3.517553	 4.543972	 -2.426016
C	 3.066687	 3.697523	 -1.939163
C	 1.807356	 3.816844	 -1.370836
C	 3.746489	 2.491069	 -1.881978
H	 1.281222	 4.753071	 -1.415888
C	 1.228284	 2.728036	 -0.745012
H	 4.722611	 2.400460	 -2.323091
C	 3.168790	 1.399816	 -1.256034
H	 0.254639	 2.802055	 -0.299805
C	 1.906775	 1.516168	 -0.685470
H	 3.691249	 0.464302	 -1.209440
C	 1.239129	 0.373821	 0.000060
O	 1.970282	 -0.730723	 0.000018
O	 0.159709	 0.436408	 0.499853
C	 3.377318	 -0.566646	 -0.000065
H	 3.695437	 -0.028981	 -0.881264
H	 3.789299	 -1.563704	 0.000236
H	 3.695516	 -0.028316	 0.880770

	symmetry c1
}
set optking {
	frozen_dihedral = ("
		10 12 13 15
	")
}

ee = optimize('scf')
oeprop('DIPOLE', 'QUADRUPOLE', 'MULLIKEN_CHARGES')
f=open( 'psi4out.xyz', 'w' )
f.write( "18  " )
f.write( str(ee) + "\n" )
f.write( MOL.save_string_xyz() )
f.close()
--------------------------------------------------------------------------

    Molecular point group: c1
  Charge       = 0
  Multiplicity = 1
  Basis Set: 6-31G*
  Basis Set:
  @DF-RHF Final Energy:  -457.07044414646890
    Total Energy =                       -457.0704441464683896
    Molecular point group: c1
  Basis Set: 6-31G*
  Basis Set:
  Basis Set: 6-31G*
  Basis Set:
  @DF-RHF Final Energy:  -457.20409689984666
    Total Energy =                       -457.2040968998466042
  Basis Set: 6-31G*
  Basis Set:
  Basis Set: 6-31G*
  Basis Set:
  @DF-RHF Final Energy:  -457.25246645096922
    Total Energy =                       -457.2524664509689956
  Basis Set: 6-31G*
  Basis Set:
  Basis Set: 6-31G*
  Basis Set:
  @DF-RHF Final Energy:  -457.28706555075502
    Total Energy =                       -457.2870655507545052
  Basis Set: 6-31G*
  Basis Set:
  @DF-RHF Final Energy:  -457.30600388919214
    Total Energy =                       -457.3060038891921977
  @DF-RHF Final Energy:  -457.31581474124420
    Total Energy =                       -457.3158147412442531
  @DF-RHF Final Energy:  -457.32155131028986
    Total Energy =                       -457.3215513102893510
  @DF-RHF Final Energy:  -457.32476115148546
    Total Energy =                       -457.3247611514848359
  @DF-RHF Final Energy:  -457.32672611810432
    Total Energy =                       -457.3267261181039203
  @DF-RHF Final Energy:  -457.32709157945288
    Total Energy =                       -457.3270915794528264
  @DF-RHF Final Energy:  -457.32816385720253
    Total Energy =                       -457.3281638572025258
  @DF-RHF Final Energy:  -457.32838829377363
    Total Energy =                       -457.3283882937739691
  @DF-RHF Final Energy:  -457.32841583582984
    Total Energy =                       -457.3284158358302420
  @DF-RHF Final Energy:  -457.32849355315324
    Total Energy =                       -457.3284935531532938
  @DF-RHF Final Energy:  -457.32851358708865
    Total Energy =                       -457.3285135870892191
  @DF-RHF Final Energy:  -457.32853996273423
    Total Energy =                       -457.3285399627346806
  @DF-RHF Final Energy:  -457.32856568002302
    Total Energy =                       -457.3285656800230754
  @DF-RHF Final Energy:  -457.32858949879540
    Total Energy =                       -457.3285894987952815
  @DF-RHF Final Energy:  -457.32860917721837
    Total Energy =                       -457.3286091772179134
  Basis Set: 6-31G*
  Basis Set:
  @DF-RHF Final Energy:  -457.32862758357692
    Total Energy =                       -457.3286275835769175
  Basis Set: 6-31G*
  Basis Set:
  Basis Set: 6-31G*
  Basis Set:
  @DF-RHF Final Energy:  -457.32863611257449
    Total Energy =                       -457.3286361125748272
  Basis Set: 6-31G*
  Basis Set:
  Basis Set: 6-31G*
  Basis Set:
  @DF-RHF Final Energy:  -457.32863731192231
    Total Energy =                       -457.3286373119228756
  Basis Set: 6-31G*
  Basis Set:
  Charge       = 0
  Multiplicity = 1
  Basis Set: 6-31G*
  Basis Set:

    Orbital Energies (a.u.)
    -----------------------

    Doubly Occupied:

       1A    -20.601068     2A    -20.543162     3A    -11.379531
       4A    -11.293733     5A    -11.255980     6A    -11.254348
       7A    -11.250616     8A    -11.249360     9A    -11.247054
      10A    -11.245009    11A     -1.463174    12A     -1.366008
      13A     -1.173069    14A     -1.047461    15A     -1.033302
      16A     -0.985261    17A     -0.875995    18A     -0.845413
      19A     -0.784497    20A     -0.737351    21A     -0.689637
      22A     -0.676347    23A     -0.672868    24A     -0.639980
      25A     -0.628993    26A     -0.605193    27A     -0.598465
      28A     -0.565418    29A     -0.538714    30A     -0.516288
      31A     -0.512690    32A     -0.500265    33A     -0.451575
      34A     -0.440030    35A     -0.351467    36A     -0.348736

  @DF-RHF Final Energy:  -457.32863748802919

   => Energetics <=

    Nuclear Repulsion Energy =            498.0209201682433218
    One-Electron Energy =               -1609.9629996991875487
    Two-Electron Energy =                 654.6134420429152669
    DFT Exchange-Correlation Energy =       0.0000000000000000
    Empirical Dispersion Energy =           0.0000000000000000
    PCM Polarization Energy =               0.0000000000000000
    EFP Energy =                            0.0000000000000000
    Total Energy =                       -457.3286374880290168
    Molecular point group: c1
  Basis Set: 6-31G*
  Basis Set:

  -Total Gradient:
     Atom            X                  Y                   Z
    ------   -----------------  -----------------  -----------------
       1        0.000002151703    -0.000001556025    -0.000003963708
       2       -0.000035406625     0.000025952392     0.000032454238
       3        0.000041776943     0.000026692682    -0.000034039790
       4        0.000007884239    -0.000031752915    -0.000003495981
       5       -0.000002494871    -0.000002769677     0.000003138396
       6       -0.000002099613    -0.000053970768    -0.000002492590
       7       -0.000000968811     0.000004170450     0.000000685412
       8        0.000034475947     0.000024566051    -0.000033590610
       9       -0.000000228096     0.000004063791     0.000000217864
      10       -0.000021710471     0.000270388705     0.000724953518
      11       -0.000006486615    -0.000009124966     0.000006083493
      12        0.000146828482    -0.000394816008    -0.001510879006
      13       -0.000493688511     0.000174023642     0.001563149716
      14       -0.000000091476    -0.000001725429     0.000002163574
      15        0.000342391100    -0.000046188871    -0.000727825870
      16       -0.000002165868     0.000001952897    -0.000013809231
      17       -0.000004290944     0.000005277979    -0.000001020018
      18       -0.000005876507     0.000004816076    -0.000001729407

  **** Optimization is complete! (in 23 steps) ****
    Final optimized geometry and variables:
    Molecular point group: c1

    Geometry (in Angstrom), charge = 0, multiplicity = 1:

    H            1.294948494034     3.382139584144    -1.391140498698
    C            0.874331987427     2.462117736031    -1.026757128356
    C           -0.231148457703     2.488783005037    -0.190559641230
    C            1.431373553502     1.250368134722    -1.402572353843
    H           -0.669930121206     3.427844501786     0.094025862065
    C           -0.780208304101     1.304483051189     0.267879374910
    H            2.276236532530     1.226976358966    -2.066767060876
    C            0.897041701745     0.065679031607    -0.924982407662
    H           -1.653256746428     1.312225149037     0.892833199563
    C           -0.207098052205     0.087937120481    -0.081930866133
    H            1.323272998246    -0.871249288039    -1.232528290569
    C           -0.873524867984    -1.168489181776     0.394323427424
    O           -0.112834150783    -2.202001311001     0.762011840491
    O           -2.053318588134    -1.269867594251     0.432141326790
    C            1.180360805209    -2.060104875547     1.314434504134
    H            1.938661996405    -2.210360170507     0.558896560811
    H            1.271070627711    -2.830641573435     2.065330318876
    H            1.317339178619    -1.092322775489     1.775505603913

  Mulliken Charges: (a.u.)
   Center  Symbol    Alpha    Beta     Spin     Total
       1     H     0.39415  0.39415  0.00000  0.21169
       2     C     3.09331  3.09331  0.00000 -0.18662
       3     C     3.10364  3.10364  0.00000 -0.20729
       4     C     3.10326  3.10326  0.00000 -0.20651
       5     H     0.39354  0.39354  0.00000  0.21291
       6     C     3.08964  3.08964  0.00000 -0.17928
       7     H     0.39472  0.39472  0.00000  0.21056
       8     C     3.09761  3.09761  0.00000 -0.19522
       9     H     0.37943  0.37943  0.00000  0.24114
      10     C     3.06934  3.06934  0.00000 -0.13868
      11     H     0.38900  0.38900  0.00000  0.22200
      12     C     2.60289  2.60289  0.00000  0.79421
      13     O     4.30686  4.30686  0.00000 -0.61372
      14     O     4.26215  4.26215  0.00000 -0.52429
      15     C     3.09204  3.09204  0.00000 -0.18408
      16     H     0.41613  0.41613  0.00000  0.16774
      17     H     0.40133  0.40133  0.00000  0.19735
      18     H     0.41095  0.41095  0.00000  0.17810

   Total alpha = 36.00000, Total beta = 36.00000, Total charge = -0.00000
