  ==> Input File <==

--------------------------------------------------------------------------
set {
	reference rhf
	basis 6-31G*
}

set_num_threads( 4 )
memory 2 gb

molecule MOL {
0 1

O	 -2.024821	 -0.356643	 0.654969
C	 -1.083277	 0.139568	 0.115197
C	 0.323299	 -0.082943	 0.642902
C	 -1.240755	 1.029533	 -1.097647
C	 1.355627	 -0.005344	 -0.493127
H	 0.396251	 -1.044647	 1.143147
H	 0.528637	 0.693580	 1.371677
C	 2.786168	 -0.195604	 0.007473
H	 1.132807	 -0.760304	 -1.243899
H	 1.259610	 0.958506	 -0.981915
H	 3.495561	 -0.130713	 -0.811210
H	 2.912696	 -1.165395	 0.480041
H	 3.049284	 0.565503	 0.735850
H	 -0.719714	 1.971693	 -0.954400
H	 -2.288911	 1.214429	 -1.287166
H	 -0.797232	 0.546773	 -1.964501

	symmetry c1
}
set optking {
	frozen_dihedral = ("
		4 2 3 5
	")
}

ee = optimize('scf')
oeprop('DIPOLE', 'QUADRUPOLE', 'MULLIKEN_CHARGES')
f=open( 'psi4out.xyz', 'w' )
f.write( "16  " )
f.write( str(ee) + "\n" )
f.write( MOL.save_string_xyz() )
f.close()
--------------------------------------------------------------------------

    Molecular point group: c1
  Charge       = 0
  Multiplicity = 1
  Basis Set: 6-31G*
  Basis Set:
  @DF-RHF Final Energy:  -270.02587161280923
    Total Energy =                       -270.0258716128089418
    Molecular point group: c1
  Basis Set: 6-31G*
  Basis Set:
  Basis Set: 6-31G*
  Basis Set:
  @DF-RHF Final Energy:  -270.02797408349602
    Total Energy =                       -270.0279740834961331
  Basis Set: 6-31G*
  Basis Set:
  Basis Set: 6-31G*
  Basis Set:
  @DF-RHF Final Energy:  -270.02837423753090
    Total Energy =                       -270.0283742375310680
  Basis Set: 6-31G*
  Basis Set:
  Basis Set: 6-31G*
  Basis Set:
  @DF-RHF Final Energy:  -270.02878773358532
    Total Energy =                       -270.0287877335856024
  Basis Set: 6-31G*
  Basis Set:
  Basis Set: 6-31G*
  Basis Set:
  @DF-RHF Final Energy:  -270.02878299092288
    Total Energy =                       -270.0287829909227071
  Basis Set: 6-31G*
  Basis Set:
  Basis Set: 6-31G*
  Basis Set:
  @DF-RHF Final Energy:  -270.02863461293123
    Total Energy =                       -270.0286346129310004
  Basis Set: 6-31G*
  Basis Set:
  Basis Set: 6-31G*
  Basis Set:
  @DF-RHF Final Energy:  -270.02889897329601
    Total Energy =                       -270.0288989732958953
  Basis Set: 6-31G*
  Basis Set:
  Charge       = 0
  Multiplicity = 1
  Basis Set: 6-31G*
  Basis Set:

    Orbital Energies (a.u.)
    -----------------------

    Doubly Occupied:

       1A    -20.546856     2A    -11.325823     3A    -11.234694
       4A    -11.231265     5A    -11.228069     6A    -11.221485
       7A     -1.393185     8A     -1.085534     9A     -1.009392
      10A     -0.952042    11A     -0.834825    12A     -0.733819
      13A     -0.657148    14A     -0.651762    15A     -0.622699
      16A     -0.600427    17A     -0.577431    18A     -0.552054
      19A     -0.538473    20A     -0.520775    21A     -0.504243
      22A     -0.489440    23A     -0.471533    24A     -0.398219

  @DF-RHF Final Energy:  -270.02889959894878

   => Energetics <=

    Nuclear Repulsion Energy =            236.7364090957438520
    One-Electron Energy =                -834.7682321837728523
    Two-Electron Energy =                 328.0029234890803309
    DFT Exchange-Correlation Energy =       0.0000000000000000
    Empirical Dispersion Energy =           0.0000000000000000
    PCM Polarization Energy =               0.0000000000000000
    EFP Energy =                            0.0000000000000000
    Total Energy =                       -270.0288995989486693
    Molecular point group: c1
  Basis Set: 6-31G*
  Basis Set:

  -Total Gradient:
     Atom            X                  Y                   Z
    ------   -----------------  -----------------  -----------------
       1       -0.000003307265     0.000017511836     0.000014749040
       2       -0.000065132923     0.001996009900     0.001134760138
       3       -0.000144172653    -0.002095992617    -0.000598022728
       4        0.000084788235    -0.000965550473    -0.000711442324
       5        0.000068231366     0.001090209577     0.000192996970
       6        0.000073587078    -0.000016298175    -0.000020934204
       7       -0.000031889228     0.000001301369     0.000018587136
       8        0.000019826480    -0.000019231148    -0.000005235455
       9        0.000027746513     0.000004888310    -0.000029716186
      10       -0.000035385658     0.000008490355     0.000034902565
      11        0.000011949156     0.000000826706     0.000001560744
      12       -0.000003179252     0.000006935735     0.000000390569
      13       -0.000006129993     0.000001108370    -0.000006716238
      14        0.000004272056    -0.000032588301     0.000012417253
      15       -0.000003292837     0.000010176590    -0.000011749319
      16        0.000002088933    -0.000007798033    -0.000026547965

  **** Optimization is complete! (in 8 steps) ****
    Final optimized geometry and variables:
    Molecular point group: c1

    Geometry (in Angstrom), charge = 0, multiplicity = 1:

    O           -2.020672885182    -0.450735954078     0.737287806974
    C           -1.124688399016     0.062265359216     0.138599986863
    C            0.312902567690    -0.140583772272     0.594764787009
    C           -1.396356097902     0.940749318968    -1.064123044175
    C            1.398763467305    -0.079908838364    -0.483346967442
    H            0.342498122309    -1.087519820522     1.121503672752
    H            0.506314964183     0.630925091106     1.340231888599
    C            2.789922817757    -0.338797915398     0.094284387423
    H            1.190879605271    -0.815388960691    -1.256967577761
    H            1.389980072474     0.890992920911    -0.969550284352
    H            3.548274073938    -0.292494161390    -0.680467595241
    H            2.846147963661    -1.319809706673     0.556105525119
    H            3.043030278298     0.398090214812     0.851032126838
    H           -0.919413249182     1.910111124836    -0.954088052547
    H           -2.463818682462     1.070724053243    -1.173952933642
    H           -0.996350439838     0.484528464157    -1.964355755287

  Mulliken Charges: (a.u.)
   Center  Symbol    Alpha    Beta     Spin     Total
       1     O     4.26296  4.26296  0.00000 -0.52592
       2     C     2.73288  2.73288  0.00000  0.53424
       3     C     3.20538  3.20538  0.00000 -0.41076
       4     C     3.29227  3.29227  0.00000 -0.58454
       5     C     3.16269  3.16269  0.00000 -0.32538
       6     H     0.39867  0.39867  0.00000  0.20266
       7     H     0.40600  0.40600  0.00000  0.18800
       8     C     3.24006  3.24006  0.00000 -0.48012
       9     H     0.41731  0.41731  0.00000  0.16537
      10     H     0.41830  0.41830  0.00000  0.16340
      11     H     0.41559  0.41559  0.00000  0.16883
      12     H     0.41743  0.41743  0.00000  0.16515
      13     H     0.41944  0.41944  0.00000  0.16112
      14     H     0.40978  0.40978  0.00000  0.18045
      15     H     0.39555  0.39555  0.00000  0.20891
      16     H     0.40570  0.40570  0.00000  0.18859

   Total alpha = 24.00000, Total beta = 24.00000, Total charge = -0.00000
