                              Psi4 1.0.54 Driver

  ==> Input File <==

--------------------------------------------------------------------------
set {
	reference rhf
	basis cc-pvtz
}

set_num_threads( 4 )
memory 2 gb

molecule MOL {
0 1

H	 -3.426862	 -0.148985	 0.275269
O	 -2.641459	 -0.674977	 0.289167
C	 -1.605397	 0.107680	 0.001145
C	 -0.310616	 -0.658853	 0.000791
O	 -1.732187	 1.261361	 -0.224497
C	 0.926581	 0.227233	 0.000178
H	 -0.327628	 -1.313681	 -0.864448
H	 -0.327041	 -1.313334	 0.866298
C	 2.220156	 -0.582071	 -0.000088
H	 0.899945	 0.878221	 -0.866390
H	 0.900542	 0.878581	 0.866486
C	 3.466689	 0.296012	 -0.000457
H	 2.239073	 -1.234095	 -0.869382
H	 2.239505	 -1.233985	 0.869270
H	 3.493549	 0.935857	 -0.875887
H	 4.368821	 -0.304526	 -0.001199
H	 3.494559	 0.935166	 0.875458

	symmetry c1
}
set optking {
	frozen_dihedral = ("
		2 3 4 7
	")
}

ee,wfn = optimize('scf', return_wfn=True)
oeprop( wfn, 'DIPOLE', 'QUADRUPOLE', 'MULLIKEN_CHARGES')
f=open( 'psi4out.xyz', 'w' )
f.write( "17  " )
f.write( str(ee) + "\n" )
f.write( MOL.save_string_xyz() )
f.close()
--------------------------------------------------------------------------

    Molecular point group: c1
  Charge       = 0
  Multiplicity = 1
  Basis Set: CC-PVTZ
  Basis Set:
  @DF-RHF Final Energy:  -345.04870019499970
    Total Energy =                       -345.0487001949995829
    Molecular point group: c1
  Basis Set: CC-PVTZ
  Basis Set:
  Basis Set: CC-PVTZ
  Basis Set:
  @DF-RHF Final Energy:  -345.04875346696861
    Total Energy =                       -345.0487534669683782
  Basis Set: CC-PVTZ
  Basis Set:
  Basis Set: CC-PVTZ
  Basis Set:
  @DF-RHF Final Energy:  -345.04866583528138
    Total Energy =                       -345.0486658352814402
  Basis Set: CC-PVTZ
  Basis Set:
  Basis Set: CC-PVTZ
  Basis Set:
  @DF-RHF Final Energy:  -345.04876855222130
    Total Energy =                       -345.0487685522215884
  Basis Set: CC-PVTZ
  Basis Set:
  Charge       = 0
  Multiplicity = 1
  Basis Set: CC-PVTZ
  Basis Set:

    Orbital Energies (a.u.)
    -----------------------

    Doubly Occupied:

       1A    -20.604430     2A    -20.540432     3A    -11.373747
       4A    -11.239353     5A    -11.221554     6A    -11.220839
       7A    -11.210787     8A     -1.477845     9A     -1.369156
      10A     -1.092973    11A     -1.019822    12A     -0.914797
      13A     -0.825102    14A     -0.791580    15A     -0.704269
      16A     -0.688113    17A     -0.671291    18A     -0.631781
      19A     -0.593400    20A     -0.585147    21A     -0.575419
      22A     -0.538527    23A     -0.509661    24A     -0.485455
      25A     -0.482128    26A     -0.478252    27A     -0.473124
      28A     -0.445943

  @DF-RHF Final Energy:  -345.04876891964653

   => Energetics <=

    Nuclear Repulsion Energy =            304.7944976272415829
    One-Electron Energy =               -1074.1566795476157949
    Two-Electron Energy =                 424.3134130007280191
    DFT Exchange-Correlation Energy =       0.0000000000000000
    Empirical Dispersion Energy =           0.0000000000000000
    PCM Polarization Energy =               0.0000000000000000
    EFP Energy =                            0.0000000000000000
    Total Energy =                       -345.0487689196462497
    Molecular point group: c1
  Basis Set: CC-PVTZ
  Basis Set:

  -Total Gradient:
     Atom            X                  Y                   Z
    ------   -----------------  -----------------  -----------------
       1       -0.000007593559     0.000002178363    -0.000000159309
       2        0.000068795168     0.000166557047     0.000547762500
       3        0.000014608168    -0.000132076325    -0.000808336715
       4       -0.000320371980    -0.000532172024     0.000625019920
       5       -0.000039998818     0.000013720108     0.000006172950
       6       -0.000001519446    -0.000001771034    -0.000013683522
       7        0.000291800070     0.000488554508    -0.000362461805
       8       -0.000004765958    -0.000000774188     0.000000401077
       9        0.000002792149    -0.000000603120     0.000000155427
      10       -0.000001436179    -0.000000838888     0.000000488641
      11       -0.000000851521    -0.000000265833    -0.000001163529
      12       -0.000003048255     0.000000244961     0.000006887323
      13       -0.000001267298     0.000001504716    -0.000001542949
      14        0.000003536704    -0.000003612707    -0.000001077049
      15       -0.000001012946    -0.000002055545     0.000000161614
      16       -0.000000806725    -0.000000339195     0.000001849359
      17        0.000001140424     0.000001749154    -0.000000473935

  **** Optimization is complete! (in 5 steps) ****
    Final optimized geometry and variables:
    Molecular point group: c1

    Geometry (in Angstrom), charge = 0, multiplicity = 1:

    H           -3.433490652681    -0.149256196366     0.215799570712
    O           -2.648477210591    -0.674218375913     0.260987048046
    C           -1.605402904528     0.105785461505    -0.007180866418
    C           -0.311532279704    -0.662665449577     0.008327242799
    O           -1.725721040748     1.259602133344    -0.236252087638
    C            0.925329977303     0.225075833778    -0.003759993967
    H           -0.328077906063    -1.309366059841    -0.864493262209
    H           -0.323996882121    -1.319545829618     0.869989446764
    C            2.219577297003    -0.582953253752    -0.015714725991
    H            0.888609822886     0.876508579068    -0.868682641833
    H            0.907979317627     0.875199928250     0.864654588679
    C            3.465174768405     0.296384948371    -0.023462576510
    H            2.231876650860    -1.231988322631    -0.887361745848
    H            2.246661235964    -1.237639838319     0.851298149789
    H            3.484281914341     0.938773894134    -0.897192824797
    H            4.367833366877    -0.303282336031    -0.033087516662
    H            3.499528027181     0.932986088466     0.854111790010

  Mulliken Charges: (a.u.)
   Center  Symbol    Alpha    Beta     Spin     Total
       1     H     0.38208  0.38208  0.00000  0.23584
       2     O     4.15955  4.15955  0.00000 -0.31911
       3     C     2.80589  2.80589  0.00000  0.38821
       4     C     3.10856  3.10856  0.00000 -0.21713
       5     O     4.19169  4.19169  0.00000 -0.38339
       6     C     3.08306  3.08306  0.00000 -0.16613
       7     H     0.44017  0.44017  0.00000  0.11966
       8     H     0.43681  0.43681  0.00000  0.12637
       9     C     3.08608  3.08608  0.00000 -0.17216
      10     H     0.44351  0.44351  0.00000  0.11298
      11     H     0.44856  0.44856  0.00000  0.10287
      12     C     3.14920  3.14920  0.00000 -0.29841
      13     H     0.45462  0.45462  0.00000  0.09075
      14     H     0.45487  0.45487  0.00000  0.09025
      15     H     0.45344  0.45344  0.00000  0.09312
      16     H     0.44800  0.44800  0.00000  0.10400
      17     H     0.45387  0.45387  0.00000  0.09226

   Total alpha = 28.00000, Total beta = 28.00000, Total charge =  0.00000

*** Psi4 exiting successfully. Buy a developer a beer!
