  ==> Input File <==

--------------------------------------------------------------------------
set {
	reference rhf
	basis cc-pvtz
}

set_num_threads( 4 )
memory 2 gb

molecule MOL {
0 1

H	 -0.939693	 0.000281	 1.681345
O	 -0.046262	 -0.000157	 1.387678
C	 -0.000837	 0.000006	 -0.025491
C	 1.117117	 -0.925709	 -0.501286
C	 -1.350428	 -0.451290	 -0.580541
C	 0.289036	 1.441714	 -0.420001
H	 1.200089	 -0.918535	 -1.581961
H	 0.928059	 -1.948817	 -0.190515
H	 2.065465	 -0.615644	 -0.080622
H	 -1.357798	 -0.426688	 -1.664113
H	 -1.573436	 -1.467893	 -0.270929
H	 -2.140532	 0.192975	 -0.215680
H	 0.343300	 1.544150	 -1.497429
H	 1.230828	 1.764425	 0.005555
H	 -0.490542	 2.095416	 -0.049668

	symmetry c1
}
set optking {
	frozen_dihedral = ("
		4 3 2 1
	")
}

ee = optimize('scf')
oeprop('DIPOLE', 'QUADRUPOLE', 'MULLIKEN_CHARGES')
f=open( 'psi4out.xyz', 'w' )
f.write( "15  " )
f.write( str(ee) + "\n" )
f.write( MOL.save_string_xyz() )
f.close()
--------------------------------------------------------------------------

    Molecular point group: c1
  Charge       = 0
  Multiplicity = 1
  Basis Set: CC-PVTZ
  Basis Set:
  @DF-RHF Final Energy:  -232.24402342791765
    Total Energy =                       -232.2440234279174547
    Molecular point group: c1
  Basis Set: CC-PVTZ
  Basis Set:
  Basis Set: CC-PVTZ
  Basis Set:
  @DF-RHF Final Energy:  -232.24503257765429
    Total Energy =                       -232.2450325776544560
  Basis Set: CC-PVTZ
  Basis Set:
  Basis Set: CC-PVTZ
  Basis Set:
  @DF-RHF Final Energy:  -232.24523541172076
    Total Energy =                       -232.2452354117207847
  Basis Set: CC-PVTZ
  Basis Set:
  Charge       = 0
  Multiplicity = 1
  Basis Set: CC-PVTZ
  Basis Set:

    Orbital Energies (a.u.)
    -----------------------

    Doubly Occupied:

       1A    -20.540649     2A    -11.281052     3A    -11.215268
       4A    -11.204377     5A    -11.203360     6A     -1.363270
       7A     -1.065641     8A     -0.945521     9A     -0.937408
      10A     -0.778589    11A     -0.671954    12A     -0.624502
      13A     -0.622927    14A     -0.576546    15A     -0.557542
      16A     -0.534073    17A     -0.517052    18A     -0.511260
      19A     -0.503700    20A     -0.457959    21A     -0.427377

  @DF-RHF Final Energy:  -232.24523511063097

   => Energetics <=

    Nuclear Repulsion Energy =            200.6016537960981054
    One-Electron Energy =                -712.6137231871455242
    Two-Electron Energy =                 279.7668342804167878
    DFT Exchange-Correlation Energy =       0.0000000000000000
    Empirical Dispersion Energy =           0.0000000000000000
    PCM Polarization Energy =               0.0000000000000000
    EFP Energy =                            0.0000000000000000
    Total Energy =                       -232.2452351106305741
    Molecular point group: c1
  Basis Set: CC-PVTZ
  Basis Set:

  -Total Gradient:
     Atom            X                  Y                   Z
    ------   -----------------  -----------------  -----------------
       1        0.000031704706    -0.001684701146    -0.000047980538
       2       -0.000296386331     0.001636134531    -0.000001741972
       3        0.000969636762     0.000738140390    -0.000041469256
       4       -0.000786115713    -0.000917174724     0.000090211967
       5        0.000064288494    -0.000040346462     0.000053591574
       6       -0.000021915514     0.000093258576    -0.000115511979
       7       -0.000026852281    -0.000065581144    -0.000041918449
       8        0.000158422236    -0.000012433533     0.000076462045
       9       -0.000099529072     0.000109410960    -0.000026193135
      10        0.000006022899     0.000067494346     0.000000641435
      11        0.000081922833     0.000024065189    -0.000007967483
      12       -0.000059025311     0.000030353960    -0.000038090309
      13       -0.000090473530    -0.000029630951     0.000070113064
      14        0.000058816760    -0.000076538858     0.000002733896
      15        0.000009483060     0.000127548863     0.000027119139

  **** Optimization is complete! (in 4 steps) ****
    Final optimized geometry and variables:
    Molecular point group: c1

    Geometry (in Angstrom), charge = 0, multiplicity = 1:

    H           -0.893172766429    -0.067164265843     1.713464572709
    O           -0.011927015321    -0.063128702915     1.390270585746
    C            0.002765861537     0.005347249165    -0.024977560058
    C            1.115318444658    -0.928516663708    -0.486584653509
    C           -1.342935871942    -0.452805484457    -0.580836399445
    C            0.295318004395     1.445686902112    -0.437942249103
    H            1.217150875879    -0.912042585783    -1.565779302631
    H            0.909184177018    -1.943983476002    -0.172423585234
    H            2.058630420231    -0.626565460887    -0.048847986028
    H           -1.345984076114    -0.426086721342    -1.663490688912
    H           -1.559099451605    -1.467450837477    -0.266329698549
    H           -2.144232898387     0.192909087232    -0.233440630390
    H            0.352024948685     1.542561859552    -1.516398109849
    H            1.237181570936     1.769229282995    -0.013021491484
    H           -0.481424224775     2.110442565918    -0.076829697059

  Mulliken Charges: (a.u.)
   Center  Symbol    Alpha    Beta     Spin     Total
       1     H     0.39271  0.39271  0.00000  0.21458
       2     O     4.21454  4.21454  0.00000 -0.42909
       3     C     2.87981  2.87981  0.00000  0.24037
       4     C     3.14014  3.14014  0.00000 -0.28028
       5     C     3.16052  3.16052  0.00000 -0.32104
       6     C     3.14185  3.14185  0.00000 -0.28370
       7     H     0.45949  0.45949  0.00000  0.08103
       8     H     0.45168  0.45168  0.00000  0.09664
       9     H     0.44755  0.44755  0.00000  0.10490
      10     H     0.45129  0.45129  0.00000  0.09742
      11     H     0.44602  0.44602  0.00000  0.10797
      12     H     0.45282  0.45282  0.00000  0.09437
      13     H     0.45869  0.45869  0.00000  0.08263
      14     H     0.44831  0.44831  0.00000  0.10339
      15     H     0.45458  0.45458  0.00000  0.09083

   Total alpha = 21.00000, Total beta = 21.00000, Total charge = -0.00000
