  ==> Input File <==

--------------------------------------------------------------------------
set {
	reference rhf
	basis 6-31G*
}

set_num_threads( 4 )
memory 2 gb

molecule MOL {
0 1

O	 0.719163	 2.094303	 -0.195885
C	 -0.346524	 2.455308	 -0.579327
C	 -1.609904	 1.629699	 -0.567716
O	 -0.566918	 3.664063	 -1.080637
C	 -1.412532	 0.227344	 -0.000452
H	 -2.353848	 2.182630	 -0.000646
H	 -1.983158	 1.592938	 -1.587561
C	 -2.706999	 -0.587347	 -0.000541
H	 -1.024136	 0.301116	 1.010592
H	 -0.652509	 -0.289285	 -0.578347
C	 -3.956778	 0.291888	 0.000910
H	 -2.726114	 -1.239230	 -0.871609
H	 -2.725217	 -1.240844	 0.869333
H	 -3.985213	 0.933254	 -0.875158
H	 -4.860123	 -0.309979	 0.000519
H	 -3.984618	 0.931166	 0.878514
C	 0.540904	 4.543417	 -1.148520
H	 0.940248	 4.728436	 -0.161717
H	 0.164948	 5.459148	 -1.577524
H	 1.317944	 4.128149	 -1.774033

	symmetry c1
}
set optking {
	frozen_dihedral = ("
		9 5 8 12
	")
}

ee = optimize('scf')
oeprop('DIPOLE', 'QUADRUPOLE', 'MULLIKEN_CHARGES')
f=open( 'psi4out.xyz', 'w' )
f.write( "20  " )
f.write( str(ee) + "\n" )
f.write( MOL.save_string_xyz() )
f.close()
--------------------------------------------------------------------------

    Molecular point group: c1
  Charge       = 0
  Multiplicity = 1
  Basis Set: 6-31G*
  Basis Set:
  @DF-RHF Final Energy:  -383.93113497360542
    Total Energy =                       -383.9311349736051397
    Molecular point group: c1
  Basis Set: 6-31G*
  Basis Set:
  Basis Set: 6-31G*
  Basis Set:
  @DF-RHF Final Energy:  -383.93227200440373
    Total Energy =                       -383.9322720044035577
  Basis Set: 6-31G*
  Basis Set:
  Basis Set: 6-31G*
  Basis Set:
  @DF-RHF Final Energy:  -383.93478313006403
    Total Energy =                       -383.9347831300642611
  Basis Set: 6-31G*
  Basis Set:
  Basis Set: 6-31G*
  Basis Set:
  @DF-RHF Final Energy:  -383.93502892265496
    Total Energy =                       -383.9350289226551922
  Basis Set: 6-31G*
  Basis Set:
  Basis Set: 6-31G*
  Basis Set:
  @DF-RHF Final Energy:  -383.93368068327510
    Total Energy =                       -383.9336806832752700
  Basis Set: 6-31G*
  Basis Set:
  Basis Set: 6-31G*
  Basis Set:
  @DF-RHF Final Energy:  -383.93511354464471
    Total Energy =                       -383.9351135446446506
  Basis Set: 6-31G*
  Basis Set:
  Basis Set: 6-31G*
  Basis Set:
  @DF-RHF Final Energy:  -383.93511980159752
    Total Energy =                       -383.9351198015979207
  Basis Set: 6-31G*
  Basis Set:
  Charge       = 0
  Multiplicity = 1
  Basis Set: 6-31G*
  Basis Set:

    Orbital Energies (a.u.)
    -----------------------

    Doubly Occupied:

       1A    -20.603578     2A    -20.545507     3A    -11.372338
       4A    -11.280819     5A    -11.235488     6A    -11.220283
       7A    -11.219142     8A    -11.213685     9A     -1.469349
      10A     -1.362813    11A     -1.086558    12A     -1.021778
      13A     -0.967761    14A     -0.898511    15A     -0.798873
      16A     -0.761481    17A     -0.701605    18A     -0.683028
      19A     -0.671376    20A     -0.639270    21A     -0.606530
      22A     -0.591877    23A     -0.567901    24A     -0.548288
      25A     -0.539913    26A     -0.522509    27A     -0.512583
      28A     -0.473701    29A     -0.471884    30A     -0.460731
      31A     -0.453398    32A     -0.438014

  @DF-RHF Final Energy:  -383.93512010207922

   => Energetics <=

    Nuclear Repulsion Energy =            385.2943638333068179
    One-Electron Energy =               -1286.5778268233036670
    Two-Electron Energy =                 517.3483428879178518
    DFT Exchange-Correlation Energy =       0.0000000000000000
    Empirical Dispersion Energy =           0.0000000000000000
    PCM Polarization Energy =               0.0000000000000000
    EFP Energy =                            0.0000000000000000
    Total Energy =                       -383.9351201020790540
    Molecular point group: c1
  Basis Set: 6-31G*
  Basis Set:

  -Total Gradient:
     Atom            X                  Y                   Z
    ------   -----------------  -----------------  -----------------
       1       -0.000001543287    -0.000016041349    -0.000003001289
       2       -0.000004868162    -0.000001750657     0.000033963133
       3        0.000017362727     0.000062155911     0.000015916162
       4       -0.000016712025    -0.000009739962    -0.000021519754
       5       -0.003683178276     0.005133561527     0.001947312936
       6        0.000035205067     0.000019169428     0.000002615163
       7       -0.000007786030    -0.000004917341     0.000001066543
       8       -0.002750128196     0.004155738626    -0.004135563026
       9        0.003520026286    -0.004941912019    -0.000958067298
      10       -0.000006336885    -0.000030491197    -0.000016425048
      11       -0.000023312034     0.000008158364    -0.000043607908
      12        0.002920336794    -0.004347397187     0.003143300304
      13        0.000008477556     0.000010122085     0.000009474745
      14       -0.000034981437    -0.000033637633     0.000004709767
      15        0.000016732662    -0.000007222178     0.000011522913
      16        0.000013238944     0.000013826528     0.000002637992
      17       -0.000002424585    -0.000008564634     0.000007847682
      18        0.000000811710     0.000000516966    -0.000000630692
      19       -0.000001963393    -0.000001530349    -0.000000806725
      20        0.000001042561    -0.000000044933    -0.000000745600

  **** Optimization is complete! (in 8 steps) ****
    Final optimized geometry and variables:
    Molecular point group: c1

    Geometry (in Angstrom), charge = 0, multiplicity = 1:

    O            1.869150160685     0.265125463189     0.285804658270
    C            0.824501534496     0.653415053700    -0.127609421047
    C           -0.467770404071    -0.127303080854    -0.131289004820
    O            0.655556724484     1.859969347317    -0.654145481451
    C           -0.318620611896    -1.522202598327     0.467775098135
    H           -1.201687797870     0.469336577684     0.400130301343
    H           -0.812178592582    -0.173512991447    -1.160868718954
    C           -1.580712624716    -2.409908193275     0.411016107903
    H            0.046619864701    -1.458102194919     1.487146316579
    H            0.477728754945    -2.032608003549    -0.064152544725
    C           -2.928530827928    -1.695498794439     0.512172316003
    H           -1.546872304651    -3.032914119764    -0.478961094966
    H           -1.513171740396    -3.117653757853     1.233603075739
    H           -3.112267189407    -1.042104361623    -0.334449293246
    H           -3.736580406341    -2.419314392158     0.545047230073
    H           -2.991166480036    -1.094734210427     1.415397955503
    C            1.793363330078     2.700777143365    -0.712087280748
    H            2.177164847265     2.889853130755     0.280111816359
    H            1.457682752415     3.620770365987    -1.164757369336
    H            2.569541819346     2.249154522977    -1.313015411375

  Mulliken Charges: (a.u.)
   Center  Symbol    Alpha    Beta     Spin     Total
       1     O     4.28577  4.28577  0.00000 -0.57154
       2     C     2.60480  2.60480  0.00000  0.79039
       3     C     3.21032  3.21032  0.00000 -0.42064
       4     O     4.30751  4.30751  0.00000 -0.61503
       5     C     3.15665  3.15665  0.00000 -0.31330
       6     H     0.39847  0.39847  0.00000  0.20307
       7     H     0.40056  0.40056  0.00000  0.19888
       8     C     3.15606  3.15606  0.00000 -0.31213
       9     H     0.41078  0.41078  0.00000  0.17845
      10     H     0.40942  0.40942  0.00000  0.18116
      11     C     3.24470  3.24470  0.00000 -0.48940
      12     H     0.41986  0.41986  0.00000  0.16027
      13     H     0.41809  0.41809  0.00000  0.16383
      14     H     0.42054  0.42054  0.00000  0.15892
      15     H     0.41664  0.41664  0.00000  0.16673
      16     H     0.42083  0.42083  0.00000  0.15835
      17     C     3.09237  3.09237  0.00000 -0.18474
      18     H     0.40908  0.40908  0.00000  0.18185
      19     H     0.40846  0.40846  0.00000  0.18309
      20     H     0.40910  0.40910  0.00000  0.18180

   Total alpha = 32.00000, Total beta = 32.00000, Total charge =  0.00000
