  ==> Input File <==

--------------------------------------------------------------------------
set {
	reference rhf
	basis 6-31G*
}

set_num_threads( 4 )
memory 2 gb

molecule MOL {
0 1

O	 2.103151	 0.829500	 -0.861637
C	 1.705091	 0.115954	 0.001797
C	 0.381791	 -0.609817	 0.001258
O	 2.395180	 -0.143607	 1.105219
C	 -0.823008	 0.326187	 0.001381
H	 0.371250	 -1.265087	 -0.865474
H	 0.370908	 -1.265746	 0.867490
C	 -2.149452	 -0.435131	 -0.000098
H	 -0.770201	 0.977095	 -0.865636
H	 -0.771220	 0.975655	 0.869608
C	 -3.368779	 0.488503	 -0.000883
H	 -2.193746	 -1.087250	 -0.871175
H	 -2.195311	 -1.087803	 0.870418
C	 -4.693822	 -0.272754	 -0.001129
H	 -3.325798	 1.139422	 -0.871284
H	 -3.326423	 1.139959	 0.869145
H	 -4.781274	 -0.907928	 -0.878124
H	 -5.538651	 0.408946	 -0.001420
H	 -4.781694	 -0.907783	 0.875984
C	 3.662120	 0.475964	 1.231516
H	 4.315294	 0.173049	 0.425827
H	 4.058924	 0.145895	 2.178868
H	 3.561770	 1.551763	 1.221907

	symmetry c1
}
set optking {
	frozen_dihedral = ("
		1 2 3 6
	")
}

ee = optimize('scf')
oeprop('DIPOLE', 'QUADRUPOLE', 'MULLIKEN_CHARGES')
f=open( 'psi4out.xyz', 'w' )
f.write( "23  " )
f.write( str(ee) + "\n" )
f.write( MOL.save_string_xyz() )
f.close()
--------------------------------------------------------------------------

    Molecular point group: c1
  Charge       = 0
  Multiplicity = 1
  Basis Set: 6-31G*
  Basis Set:
  @DF-RHF Final Energy:  -422.97410993371375
    Total Energy =                       -422.9741099337137484
    Molecular point group: c1
  Basis Set: 6-31G*
  Basis Set:
  Basis Set: 6-31G*
  Basis Set:
  @DF-RHF Final Energy:  -422.97470629682448
    Total Energy =                       -422.9747062968243654
  Basis Set: 6-31G*
  Basis Set:
  Basis Set: 6-31G*
  Basis Set:
  @DF-RHF Final Energy:  -422.97374420097998
    Total Energy =                       -422.9737442009804909
  Basis Set: 6-31G*
  Basis Set:
  Basis Set: 6-31G*
  Basis Set:
  @DF-RHF Final Energy:  -422.97483855508966
    Total Energy =                       -422.9748385550892635
  Basis Set: 6-31G*
  Basis Set:
  Basis Set: 6-31G*
  Basis Set:
  @DF-RHF Final Energy:  -422.97484423605158
    Total Energy =                       -422.9748442360520357
  Basis Set: 6-31G*
  Basis Set:
  Charge       = 0
  Multiplicity = 1
  Basis Set: 6-31G*
  Basis Set:

    Orbital Energies (a.u.)
    -----------------------

    Doubly Occupied:

       1A    -20.605872     2A    -20.541997     3A    -11.371320
       4A    -11.280714     5A    -11.233725     6A    -11.226012
       7A    -11.220221     8A    -11.218514     9A    -11.211007
      10A     -1.469444    11A     -1.361195    12A     -1.095132
      13A     -1.044001    14A     -0.986476    15A     -0.933741
      16A     -0.844824    17A     -0.797021    18A     -0.771515
      19A     -0.695161    20A     -0.680721    21A     -0.672202
      22A     -0.653039    23A     -0.607149    24A     -0.598094
      25A     -0.575924    26A     -0.569840    27A     -0.544719
      28A     -0.530519    29A     -0.523980    30A     -0.506240
      31A     -0.487886    32A     -0.473692    33A     -0.468466
      34A     -0.463925    35A     -0.453141    36A     -0.430712

  @DF-RHF Final Energy:  -422.97484450453339

   => Energetics <=

    Nuclear Repulsion Energy =            452.9811226845549754
    One-Electron Energy =               -1473.6156518738164323
    Two-Electron Energy =                 597.6596846847282904
    DFT Exchange-Correlation Energy =       0.0000000000000000
    Empirical Dispersion Energy =           0.0000000000000000
    PCM Polarization Energy =               0.0000000000000000
    EFP Energy =                            0.0000000000000000
    Total Energy =                       -422.9748445045331664
    Molecular point group: c1
  Basis Set: 6-31G*
  Basis Set:

  -Total Gradient:
     Atom            X                  Y                   Z
    ------   -----------------  -----------------  -----------------
       1        0.000199824806    -0.000408586832    -0.000199977721
       2       -0.000383287415     0.000676522013     0.000183492736
       3        0.000351715901    -0.000587693143     0.000181441559
       4        0.000038132075    -0.000016577966     0.000052395615
       5        0.000016839384     0.000022273834     0.000037992921
       6       -0.000208272869     0.000331998994    -0.000216311267
       7        0.000002489154    -0.000004884152    -0.000006819298
       8        0.000005378706    -0.000016637002    -0.000022437377
       9        0.000004356174     0.000008505194     0.000009050733
      10       -0.000000313073     0.000003079077    -0.000004696023
      11        0.000006999433     0.000001373400    -0.000003063772
      12       -0.000006808923    -0.000010476688    -0.000002227177
      13        0.000003430597     0.000007910469    -0.000005345321
      14       -0.000004603124    -0.000000599767     0.000001175204
      15       -0.000003173258    -0.000000446579     0.000000110269
      16        0.000002913789     0.000000896346    -0.000001568779
      17        0.000000783321     0.000000543660     0.000001394079
      18       -0.000001680274    -0.000000839711     0.000000601788
      19       -0.000000734371     0.000000112289     0.000000050815
      20       -0.000042867936    -0.000013502899    -0.000009082188
      21        0.000008286093     0.000002147005     0.000000050144
      22        0.000003577079     0.000000159069     0.000001855235
      23        0.000007014721     0.000004723388     0.000001917828

  **** Optimization is complete! (in 6 steps) ****
    Final optimized geometry and variables:
    Molecular point group: c1

    Geometry (in Angstrom), charge = 0, multiplicity = 1:

    O            2.064341815652     0.755066396551    -1.002383422263
    C            1.741070188727     0.008764719988    -0.133788056309
    C            0.433995915161    -0.746595010142    -0.108858744784
    O            2.499248509204    -0.245980077118     0.922655769482
    C           -0.765735837914     0.209138227139    -0.127310956272
    H            0.412492652528    -1.368870716068    -0.998397031722
    H            0.403019457038    -1.394369592049     0.757613525548
    C           -2.101043193973    -0.534149402239    -0.173880883302
    H           -0.675579718156     0.865987850173    -0.985884004901
    H           -0.734196402177     0.842357492277     0.756713642652
    C           -3.307951798391     0.405582262711    -0.190239606250
    H           -2.128491182477    -1.169334491494    -1.057677364027
    H           -2.176126598063    -1.200447792151     0.683803275853
    C           -4.641679919172    -0.338754117587    -0.240695869796
    H           -3.233055134604     1.071552968800    -1.046863743449
    H           -3.281903232335     1.040033048197     0.693025456350
    H           -4.712760775665    -0.956137211766    -1.131692075122
    H           -5.477641065622     0.353608342941    -0.250943434875
    H           -4.761155243440    -0.988777982289     0.621517629741
    C            3.749354841004     0.416617235264     0.989125177287
    H            4.364001965670     0.152870811057     0.140633451609
    H            4.211685019952     0.082820775674     1.904941214167
    H            3.610304611242     1.487907094976     1.007669545037

  Mulliken Charges: (a.u.)
   Center  Symbol    Alpha    Beta     Spin     Total
       1     O     4.28734  4.28734  0.00000 -0.57467
       2     C     2.60958  2.60958  0.00000  0.78085
       3     C     3.20249  3.20249  0.00000 -0.40497
       4     O     4.30329  4.30329  0.00000 -0.60659
       5     C     3.16293  3.16293  0.00000 -0.32586
       6     H     0.40119  0.40119  0.00000  0.19762
       7     H     0.40086  0.40086  0.00000  0.19829
       8     C     3.15236  3.15236  0.00000 -0.30472
       9     H     0.40374  0.40374  0.00000  0.19251
      10     H     0.41692  0.41692  0.00000  0.16616
      11     C     3.15228  3.15228  0.00000 -0.30456
      12     H     0.42184  0.42184  0.00000  0.15632
      13     H     0.42272  0.42272  0.00000  0.15456
      14     C     3.23978  3.23978  0.00000 -0.47956
      15     H     0.42054  0.42054  0.00000  0.15892
      16     H     0.42205  0.42205  0.00000  0.15591
      17     H     0.42114  0.42114  0.00000  0.15772
      18     H     0.41823  0.41823  0.00000  0.16354
      19     H     0.42161  0.42161  0.00000  0.15679
      20     C     3.09361  3.09361  0.00000 -0.18721
      21     H     0.40846  0.40846  0.00000  0.18308
      22     H     0.40845  0.40845  0.00000  0.18309
      23     H     0.40861  0.40861  0.00000  0.18279

   Total alpha = 36.00000, Total beta = 36.00000, Total charge = -0.00000
