                              Psi4 1.0.54 Driver

  ==> Input File <==

--------------------------------------------------------------------------
set {
	reference rhf
	basis cc-pvtz
}

set_num_threads( 4 )
memory 2 gb

molecule MOL {
0 1

O	 -1.321853	 -0.753731	 -2.179921
C	 -1.874414	 -0.957336	 -1.152474
C	 -3.094435	 -1.827890	 -1.018433
O	 -1.481217	 -0.452708	 0.001092
H	 -2.853252	 -2.816964	 -1.384009
H	 -3.438248	 -1.885630	 0.001909
H	 -3.875196	 -1.425154	 -1.649535
C	 -0.332055	 0.384012	 -0.000250
C	 0.892252	 -0.506059	 -0.000295
H	 -0.360822	 1.020205	 -0.874146
H	 -0.359817	 1.021310	 0.872861
C	 2.188199	 0.299473	 -0.001416
H	 0.857046	 -1.152781	 -0.871031
H	 0.857910	 -1.151798	 0.871202
C	 3.437151	 -0.577593	 -0.000991
H	 2.209565	 0.950707	 -0.871712
H	 2.210062	 0.952234	 0.867721
C	 4.732399	 0.226982	 -0.000914
H	 3.417321	 -1.229122	 -0.869998
H	 3.416993	 -1.228707	 0.868337
H	 4.797903	 0.863451	 -0.876963
H	 5.598517	 -0.424436	 -0.000420
H	 4.797415	 0.864118	 0.874691

	symmetry c1
}
set optking {
	frozen_dihedral = ("
		2 4 8 10
	")
}

ee,wfn = optimize('scf', return_wfn=True)
oeprop( wfn, 'DIPOLE', 'QUADRUPOLE', 'MULLIKEN_CHARGES')
f=open( 'psi4out.xyz', 'w' )
f.write( "23  " )
f.write( str(ee) + "\n" )
f.write( MOL.save_string_xyz() )
f.close()
--------------------------------------------------------------------------

    Molecular point group: c1
  Charge       = 0
  Multiplicity = 1
  Basis Set: CC-PVTZ
  Basis Set:
  @DF-RHF Final Energy:  -423.13205769804773
    Total Energy =                       -423.1320576980472197
    Molecular point group: c1
  Basis Set: CC-PVTZ
  Basis Set:
  Basis Set: CC-PVTZ
  Basis Set:
  @DF-RHF Final Energy:  -423.13367405545318
    Total Energy =                       -423.1336740554532980
  Basis Set: CC-PVTZ
  Basis Set:
  Basis Set: CC-PVTZ
  Basis Set:
  @DF-RHF Final Energy:  -423.13385246184203
    Total Energy =                       -423.1338524618422525
  Basis Set: CC-PVTZ
  Basis Set:
  Basis Set: CC-PVTZ
  Basis Set:
  @DF-RHF Final Energy:  -423.13335872791345
    Total Energy =                       -423.1333587279137873
  Basis Set: CC-PVTZ
  Basis Set:
  Basis Set: CC-PVTZ
  Basis Set:
  @DF-RHF Final Energy:  -423.13387750903757
    Total Energy =                       -423.1338775090373474
  Basis Set: CC-PVTZ
  Basis Set:
  Basis Set: CC-PVTZ
  Basis Set:
  @DF-RHF Final Energy:  -423.13388086623684
    Total Energy =                       -423.1338808662371775
  Basis Set: CC-PVTZ
  Basis Set:
  Charge       = 0
  Multiplicity = 1
  Basis Set: CC-PVTZ
  Basis Set:

    Orbital Energies (a.u.)
    -----------------------

    Doubly Occupied:

       1A    -20.595556     2A    -20.529562     3A    -11.367458
       4A    -11.279464     5A    -11.230543     6A    -11.219337
       7A    -11.218114     8A    -11.217109     9A    -11.209063
      10A     -1.470167    11A     -1.364201    12A     -1.092270
      13A     -1.041534    14A     -1.002927    15A     -0.931872
      16A     -0.851801    17A     -0.798848    18A     -0.766232
      19A     -0.701386    20A     -0.681883    21A     -0.659438
      22A     -0.650463    23A     -0.604606    24A     -0.590790
      25A     -0.584615    26A     -0.573865    27A     -0.550456
      28A     -0.540234    29A     -0.522640    30A     -0.513635
      31A     -0.485521    32A     -0.478901    33A     -0.474223
      34A     -0.468859    35A     -0.440900    36A     -0.439195

  @DF-RHF Final Energy:  -423.13388102378315

   => Energetics <=

    Nuclear Repulsion Energy =            457.4682014775298740
    One-Electron Energy =               -1482.9088288095940698
    Two-Electron Energy =                 602.3067463082816175
    DFT Exchange-Correlation Energy =       0.0000000000000000
    Empirical Dispersion Energy =           0.0000000000000000
    PCM Polarization Energy =               0.0000000000000000
    EFP Energy =                            0.0000000000000000
    Total Energy =                       -423.1338810237825783
    Molecular point group: c1
  Basis Set: CC-PVTZ
  Basis Set:

  -Total Gradient:
     Atom            X                  Y                   Z
    ------   -----------------  -----------------  -----------------
       1        0.000009131989    -0.000006833932     0.000009231223
       2        0.000257798723    -0.000384250213     0.000094112624
       3        0.000004931343    -0.000033953623    -0.000021849743
       4       -0.000481833922     0.000632784676    -0.000032105377
       5       -0.000009868409     0.000029043679    -0.000000431843
       6        0.000003023422     0.000003099477    -0.000005159167
       7        0.000003901039    -0.000000365537     0.000012331139
       8        0.000463188721    -0.000590222237    -0.000360240050
       9       -0.000012598493    -0.000011186750    -0.000005571408
      10       -0.000241639043     0.000355608939     0.000312728927
      11       -0.000001504740    -0.000004186463    -0.000003135014
      12        0.000003907408     0.000007400781     0.000003338804
      13        0.000000380332     0.000000700786     0.000000341750
      14        0.000001560471     0.000004983404    -0.000002750050
      15        0.000005477153    -0.000002651081    -0.000000055932
      16        0.000000815385    -0.000000569961    -0.000000501128
      17       -0.000001236245    -0.000001416001    -0.000000784755
      18       -0.000002058695     0.000000504346    -0.000000470698
      19       -0.000001148531     0.000000949599     0.000000415239
      20       -0.000000855460     0.000000683500     0.000000966421
      21        0.000000387597     0.000000535462    -0.000000107874
      22       -0.000002326162    -0.000000316381    -0.000000555835
      23        0.000000566107    -0.000000342468     0.000000252751

  **** Optimization is complete! (in 7 steps) ****
    Final optimized geometry and variables:
    Molecular point group: c1

    Geometry (in Angstrom), charge = 0, multiplicity = 1:

    O           -1.823963771394    -0.251886692030    -1.682303459323
    C           -2.295263175308    -0.478896495249    -0.619460640417
    C           -3.538171481452    -1.303808225623    -0.420121416116
    O           -1.796338474390    -0.035033693332     0.518390819222
    H           -3.369522350919    -2.286416914494    -0.839924549739
    H           -3.803299306246    -1.388236420970     0.621561096826
    H           -4.347178478849    -0.844531447687    -0.972175856358
    C           -0.613349123273     0.755320979955     0.484341904227
    C            0.639112062455    -0.099416612528     0.429275678778
    H           -0.662826524581     1.433135148793    -0.354317768405
    H           -0.643662900099     1.329837700687     1.398871021421
    C            1.907742104064     0.748081327139     0.468932356061
    H            0.622848073436    -0.693835745571    -0.476257981938
    H            0.627868095620    -0.788298396950     1.268544559548
    C            3.185193685767    -0.085693283541     0.424497295803
    H            1.904667988929     1.440674450107    -0.368918168161
    H            1.910666981258     1.357571418008     1.369857204559
    C            4.452893433152     0.760850454034     0.461056530263
    H            3.183348054963    -0.693939551639    -0.475335979105
    H            3.190005088429    -0.778672823796     1.261235345902
    H            4.493816056287     1.440781103765    -0.383290737300
    H            5.340171472649     0.139324918035     0.427867574311
    H            4.500320568791     1.356603092266     1.366624948923

  Mulliken Charges: (a.u.)
   Center  Symbol    Alpha    Beta     Spin     Total
       1     O     4.20459  4.20459  0.00000 -0.40918
       2     C     2.80933  2.80933  0.00000  0.38135
       3     C     3.14002  3.14002  0.00000 -0.28004
       4     O     4.15383  4.15383  0.00000 -0.30765
       5     H     0.44275  0.44275  0.00000  0.11451
       6     H     0.44142  0.44142  0.00000  0.11717
       7     H     0.44210  0.44210  0.00000  0.11581
       8     C     2.98417  2.98417  0.00000  0.03166
       9     C     3.09584  3.09584  0.00000 -0.19168
      10     H     0.44839  0.44839  0.00000  0.10321
      11     H     0.44209  0.44209  0.00000  0.11582
      12     C     3.09770  3.09770  0.00000 -0.19540
      13     H     0.44228  0.44228  0.00000  0.11544
      14     H     0.45192  0.45192  0.00000  0.09615
      15     C     3.08363  3.08363  0.00000 -0.16727
      16     H     0.45094  0.45094  0.00000  0.09811
      17     H     0.45516  0.45516  0.00000  0.08968
      18     C     3.15028  3.15028  0.00000 -0.30056
      19     H     0.45192  0.45192  0.00000  0.09616
      20     H     0.45420  0.45420  0.00000  0.09160
      21     H     0.45422  0.45422  0.00000  0.09157
      22     H     0.44776  0.44776  0.00000  0.10447
      23     H     0.45546  0.45546  0.00000  0.08908

   Total alpha = 36.00000, Total beta = 36.00000, Total charge = -0.00000

*** Psi4 exiting successfully. Buy a developer a beer!
