                              Psi4 1.0.54 Driver

  ==> Input File <==

--------------------------------------------------------------------------
set {
	reference rhf
	basis cc-pvtz
}

set_num_threads( 4 )
memory 2 gb

molecule MOL {
0 1

O	 2.868453	 1.353349	 -0.000734
C	 2.841259	 0.166180	 -0.000295
C	 1.542794	 -0.614730	 -0.000853
C	 4.113372	 -0.651103	 0.000743
C	 0.288398	 0.247429	 0.000314
H	 1.557171	 -1.273139	 -0.866508
H	 1.557484	 -1.274998	 0.863344
C	 -0.988803	 -0.574933	 -0.146626
H	 0.354446	 0.972197	 -0.803093
H	 0.252944	 0.822170	 0.918763
C	 -2.254137	 0.277861	 -0.147195
H	 -0.945151	 -1.150532	 -1.068610
H	 -1.047324	 -1.300942	 0.661303
C	 -3.535797	 -0.537297	 -0.294171
H	 -2.196683	 1.003733	 -0.954612
H	 -2.299076	 0.853020	 0.774380
C	 -4.795868	 0.321779	 -0.293966
H	 -3.492274	 -1.111631	 -1.215683
H	 -3.594702	 -1.262267	 0.513212
H	 -4.783361	 1.034788	 -1.111585
H	 -5.686620	 -0.286794	 -0.399904
H	 -4.886684	 0.882827	 0.630167
H	 4.145311	 -1.294584	 -0.871587
H	 4.970080	 0.004978	 -0.000091
H	 4.145223	 -1.291980	 0.874988

	symmetry c1
}
set optking {
	frozen_dihedral = ("
		9 5 3 6
	")
}

ee,wfn = optimize('scf', return_wfn=True)
oeprop( wfn, 'DIPOLE', 'QUADRUPOLE', 'MULLIKEN_CHARGES')
f=open( 'psi4out.xyz', 'w' )
f.write( "25  " )
f.write( str(ee) + "\n" )
f.write( MOL.save_string_xyz() )
f.close()
--------------------------------------------------------------------------

    Molecular point group: c1
  Charge       = 0
  Multiplicity = 1
  Basis Set: CC-PVTZ
  Basis Set:
  @DF-RHF Final Energy:  -387.27455139059043
    Total Energy =                       -387.2745513905904318
    Molecular point group: c1
  Basis Set: CC-PVTZ
  Basis Set:
  Basis Set: CC-PVTZ
  Basis Set:
  @DF-RHF Final Energy:  -387.27456564429565
    Total Energy =                       -387.2745656442953077
  Basis Set: CC-PVTZ
  Basis Set:
  Basis Set: CC-PVTZ
  Basis Set:
  @DF-RHF Final Energy:  -387.27456688230041
    Total Energy =                       -387.2745668823000642
  Basis Set: CC-PVTZ
  Basis Set:
  Basis Set: CC-PVTZ
  Basis Set:
  @DF-RHF Final Energy:  -387.27455427267830
    Total Energy =                       -387.2745542726779604
  Basis Set: CC-PVTZ
  Basis Set:
  Basis Set: CC-PVTZ
  Basis Set:
  @DF-RHF Final Energy:  -387.27457012007886
    Total Energy =                       -387.2745701200783515
  Basis Set: CC-PVTZ
  Basis Set:
  Charge       = 0
  Multiplicity = 1
  Basis Set: CC-PVTZ
  Basis Set:

    Orbital Energies (a.u.)
    -----------------------

    Doubly Occupied:

       1A    -20.538949     2A    -11.320619     3A    -11.230139
       4A    -11.226614     5A    -11.215275     6A    -11.214618
       7A    -11.213562     8A    -11.211545     9A    -11.206470
      10A     -1.399003    11A     -1.095203    12A     -1.057684
      13A     -1.015629    14A     -0.970230    15A     -0.891593
      16A     -0.814855    17A     -0.791499    18A     -0.731217
      19A     -0.662786    20A     -0.654360    21A     -0.633114
      22A     -0.626914    23A     -0.596774    24A     -0.585373
      25A     -0.567947    26A     -0.559696    27A     -0.541555
      28A     -0.527264    29A     -0.513065    30A     -0.492129
      31A     -0.490038    32A     -0.473283    33A     -0.464089
      34A     -0.462927    35A     -0.452896    36A     -0.401633

  @DF-RHF Final Energy:  -387.27457023502990

   => Energetics <=

    Nuclear Repulsion Energy =            439.1059709407660989
    One-Electron Energy =               -1395.0599894562617465
    Two-Electron Energy =                 568.6794482804655217
    DFT Exchange-Correlation Energy =       0.0000000000000000
    Empirical Dispersion Energy =           0.0000000000000000
    PCM Polarization Energy =               0.0000000000000000
    EFP Energy =                            0.0000000000000000
    Total Energy =                       -387.2745702350300689
    Molecular point group: c1
  Basis Set: CC-PVTZ
  Basis Set:

  -Total Gradient:
     Atom            X                  Y                   Z
    ------   -----------------  -----------------  -----------------
       1        0.000010222457    -0.000018399418    -0.000009066373
       2       -0.000016777085     0.000006485616     0.000016424408
       3        0.000722207574     0.001048770167    -0.000502143996
       4        0.000008099766     0.000002540695    -0.000010169603
       5       -0.000675974017    -0.000993622574    -0.000655203574
       6       -0.000485716464    -0.000704650086     0.000523907719
       7       -0.000003803455    -0.000003808217    -0.000007980526
       8        0.000003132721     0.000007284951     0.000012464813
       9        0.000448613242     0.000655810177     0.000624134828
      10       -0.000003020643    -0.000002857284     0.000003825322
      11       -0.000004614235    -0.000003677020     0.000005191338
      12       -0.000001498433     0.000003325186     0.000003774883
      13       -0.000003249183    -0.000000687126    -0.000001295224
      14        0.000000226544     0.000000661799    -0.000005049945
      15        0.000001306237    -0.000001964240     0.000002836741
      16        0.000004820305    -0.000002887312     0.000000475227
      17       -0.000001561628    -0.000000421837    -0.000002944355
      18       -0.000001958238    -0.000002337511     0.000000076132
      19        0.000000355829     0.000003825679    -0.000000391670
      20       -0.000000063115     0.000000043041     0.000000224590
      21        0.000000249313     0.000000045869    -0.000000332820
      22        0.000001535670    -0.000000961373    -0.000000643081
      23       -0.000001794587    -0.000001685583     0.000002460023
      24        0.000004323796    -0.000000832409    -0.000000959293
      25       -0.000005062370     0.000009998814     0.000000384436

  **** Optimization is complete! (in 6 steps) ****
    Final optimized geometry and variables:
    Molecular point group: c1

    Geometry (in Angstrom), charge = 0, multiplicity = 1:

    O            2.868375902853     1.349134325683     0.112409205128
    C            2.839663441788     0.162094982658     0.104004714629
    C            1.540587098967    -0.617027392832     0.086254285946
    C            4.110585692903    -0.657063988026     0.112502706079
    C            0.285292208690     0.244153388092     0.076212014203
    H            1.561391197438    -1.280385145359    -0.775484279526
    H            1.545110153475    -1.277269457638     0.950843756961
    C           -0.992325272185    -0.578761997263    -0.059464097100
    H            0.354025323464     0.965049026126    -0.730042323267
    H            0.250409234368     0.828083630156     0.989547469395
    C           -2.258038141592     0.273363934259    -0.051836333590
    H           -0.954882822048    -1.155140521794    -0.981167895525
    H           -1.044647760438    -1.304116010416     0.749573666492
    C           -3.540044585891    -0.542330846040    -0.192433746512
    H           -2.205379913403     1.000118273244    -0.858780306613
    H           -2.298098100181     0.847490019816     0.870617748688
    C           -4.800553950343     0.316038125516    -0.184166485084
    H           -3.501454283464    -1.115597174402    -1.114827435141
    H           -3.594003273665    -1.268251218362     0.614472317171
    H           -4.793071981955     1.029908708384    -1.001103133778
    H           -5.691557623434    -0.292939235829    -0.285674707256
    H           -4.886432368392     0.876086315564     0.741061009677
    H            4.150005902698    -1.295253410830    -0.763368146926
    H            4.968331589531    -0.002380729336     0.124084601121
    H            4.132787967482    -1.303134742701     0.983206430453

  Mulliken Charges: (a.u.)
   Center  Symbol    Alpha    Beta     Spin     Total
       1     O     4.17072  4.17072  0.00000 -0.34144
       2     C     2.86203  2.86203  0.00000  0.27595
       3     C     3.11418  3.11418  0.00000 -0.22836
       4     C     3.15126  3.15126  0.00000 -0.30251
       5     C     3.08341  3.08341  0.00000 -0.16682
       6     H     0.44590  0.44590  0.00000  0.10820
       7     H     0.44530  0.44530  0.00000  0.10941
       8     C     3.09007  3.09007  0.00000 -0.18015
       9     H     0.44454  0.44454  0.00000  0.11093
      10     H     0.44757  0.44757  0.00000  0.10486
      11     C     3.08617  3.08617  0.00000 -0.17234
      12     H     0.45583  0.45583  0.00000  0.08834
      13     H     0.45613  0.45613  0.00000  0.08775
      14     C     3.08428  3.08428  0.00000 -0.16856
      15     H     0.45362  0.45362  0.00000  0.09276
      16     H     0.45392  0.45392  0.00000  0.09216
      17     C     3.15037  3.15037  0.00000 -0.30075
      18     H     0.45515  0.45515  0.00000  0.08970
      19     H     0.45523  0.45523  0.00000  0.08954
      20     H     0.45473  0.45473  0.00000  0.09054
      21     H     0.44868  0.44868  0.00000  0.10265
      22     H     0.45484  0.45484  0.00000  0.09033
      23     H     0.45042  0.45042  0.00000  0.09916
      24     H     0.43535  0.43535  0.00000  0.12930
      25     H     0.45032  0.45032  0.00000  0.09935

   Total alpha = 36.00000, Total beta = 36.00000, Total charge = -0.00000

*** Psi4 exiting successfully. Buy a developer a beer!
