                              Psi4 1.0.54 Driver

  ==> Input File <==

--------------------------------------------------------------------------
set {
	reference rhf
	basis cc-pvtz
}

set_num_threads( 4 )
memory 2 gb

molecule MOL {
0 1

H	 1.255363	 1.794454	 -2.933264
O	 1.863449	 1.706729	 -2.221044
C	 1.289328	 1.127518	 -1.151707
C	 2.078151	 0.937117	 -0.026262
C	 -0.030014	 0.727954	 -1.145001
H	 3.101526	 1.255164	 -0.052815
C	 1.544651	 0.349369	 1.097696
H	 -0.661176	 0.862514	 -1.998714
C	 -0.532034	 0.141680	 0.000000
H	 2.161802	 0.206265	 1.962793
C	 0.222109	 -0.060355	 1.128597
N	 -1.937041	 -0.281114	 0.000000
H	 -0.205548	 -0.517885	 1.993754
O	 -2.159542	 -1.446261	 0.000000
O	 -2.764978	 0.565773	 0.000000

	symmetry c1
}
set optking {
	frozen_dihedral = ("
		11 9 12 14
	")
}

ee,wfn = optimize('scf', return_wfn=True)
oeprop( wfn, 'DIPOLE', 'QUADRUPOLE', 'MULLIKEN_CHARGES')
f=open( 'psi4out.xyz', 'w' )
f.write( "15  " )
f.write( str(ee) + "\n" )
f.write( MOL.save_string_xyz() )
f.close()
--------------------------------------------------------------------------

    Molecular point group: c1
  Charge       = 0
  Multiplicity = 1
  Basis Set: CC-PVTZ
  Basis Set:
  @DF-RHF Final Energy:  -509.21074936793769
    Total Energy =                       -509.2107493679374102
    Molecular point group: c1
  Basis Set: CC-PVTZ
  Basis Set:
  Basis Set: CC-PVTZ
  Basis Set:
  @DF-RHF Final Energy:  -509.20408120769440
    Total Energy =                       -509.2040812076940028
  Basis Set: CC-PVTZ
  Basis Set:
  Basis Set: CC-PVTZ
  Basis Set:
  @DF-RHF Final Energy:  -509.20978356791289
    Total Energy =                       -509.2097835679127229
  Basis Set: CC-PVTZ
  Basis Set:
  Basis Set: CC-PVTZ
  Basis Set:
  @DF-RHF Final Energy:  -509.21101848595845
    Total Energy =                       -509.2110184859586752
  Basis Set: CC-PVTZ
  Basis Set:
  Basis Set: CC-PVTZ
  Basis Set:
  @DF-RHF Final Energy:  -509.21102858677256
    Total Energy =                       -509.2110285867720449
  Basis Set: CC-PVTZ
  Basis Set:
  Basis Set: CC-PVTZ
  Basis Set:
  @DF-RHF Final Energy:  -509.21116098086583
    Total Energy =                       -509.2111609808658841
  Basis Set: CC-PVTZ
  Basis Set:
  Charge       = 0
  Multiplicity = 1
  Basis Set: CC-PVTZ
  Basis Set:

    Orbital Energies (a.u.)
    -----------------------

    Doubly Occupied:

       1A    -20.610422     2A    -20.600446     3A    -20.599881
       4A    -15.850796     5A    -11.330538     6A    -11.314135
       7A    -11.265116     8A    -11.263927     9A    -11.258109
      10A    -11.250981    11A     -1.647778    12A     -1.443373
      13A     -1.430997    14A     -1.204548    15A     -1.096674
      16A     -1.049928    17A     -0.966869    18A     -0.886681
      19A     -0.833844    20A     -0.793995    21A     -0.767686
      22A     -0.741027    23A     -0.724503    24A     -0.712870
      25A     -0.673082    26A     -0.636219    27A     -0.623699
      28A     -0.596591    29A     -0.565466    30A     -0.550167
      31A     -0.536711    32A     -0.495494    33A     -0.488347
      34A     -0.461114    35A     -0.376732    36A     -0.346487

  @DF-RHF Final Energy:  -509.21116133019831

   => Energetics <=

    Nuclear Repulsion Energy =            504.0214458436063865
    One-Electron Energy =               -1694.4747502320915373
    Two-Electron Energy =                 681.2421430582862740
    DFT Exchange-Correlation Energy =       0.0000000000000000
    Empirical Dispersion Energy =           0.0000000000000000
    PCM Polarization Energy =               0.0000000000000000
    EFP Energy =                            0.0000000000000000
    Total Energy =                       -509.2111613301988200
    Molecular point group: c1
  Basis Set: CC-PVTZ
  Basis Set:

  -Total Gradient:
     Atom            X                  Y                   Z
    ------   -----------------  -----------------  -----------------
       1       -0.000000851194    -0.000003586330     0.000000771605
       2        0.000018963126     0.000006707034    -0.000024614548
       3       -0.000047374667     0.000032091004     0.000045665342
       4        0.000010615158    -0.000012053080    -0.000002592588
       5        0.000018227778    -0.000020738068    -0.000034414189
       6       -0.000002346229     0.000000714514    -0.000000529863
       7        0.000015875380    -0.000011521762     0.000001722098
       8        0.000003444730    -0.000001473407     0.000006159067
       9        0.001368968273    -0.005041435802    -0.003239376366
      10       -0.000002116036     0.000007575123     0.000004235780
      11       -0.000952877346     0.003413794780     0.001161125010
      12       -0.000436609578     0.001751340118     0.006325284780
      13        0.000001708902     0.000005154167    -0.000004696869
      14        0.000043329002    -0.000183555268    -0.004242910840
      15       -0.000038957298     0.000056986979     0.000004171579

  **** Optimization is complete! (in 7 steps) ****
    Final optimized geometry and variables:
    Molecular point group: c1

    Geometry (in Angstrom), charge = 0, multiplicity = 1:

    H            1.365378047354     1.393204111345    -2.669931599570
    O            1.971648166492     1.310947481940    -1.955596114431
    C            1.398238713316     0.742797651325    -0.882332984199
    C            2.183057188168     0.573189400759     0.249407019072
    C            0.076912238909     0.341582520942    -0.873889494605
    H            3.203340789850     0.900072731718     0.224133381601
    C            1.646763889037    -0.000948655728     1.378441553014
    H           -0.558478393263     0.486782962731    -1.725915919475
    C           -0.411691123845    -0.251218807545     0.268576665445
    H            2.258277463020    -0.119650443636     2.251419530805
    C            0.328738410253    -0.429160643919     1.405804944715
    N           -1.822354075250    -0.647940379398     0.277614410490
    H           -0.096964592361    -0.888598290016     2.274183545462
    O           -2.056947548995    -1.807789138647     0.316949172216
    O           -2.625907257862     0.220040175578     0.213431100210

  Mulliken Charges: (a.u.)
   Center  Symbol    Alpha    Beta     Spin     Total
       1     H     0.38452  0.38452  0.00000  0.23095
       2     O     4.16721  4.16721  0.00000 -0.33442
       3     C     2.84176  2.84176  0.00000  0.31648
       4     C     3.10746  3.10746  0.00000 -0.21492
       5     C     3.13965  3.13965  0.00000 -0.27930
       6     H     0.41419  0.41419  0.00000  0.17161
       7     C     3.04934  3.04934  0.00000 -0.09868
       8     H     0.42172  0.42172  0.00000  0.15656
       9     C     2.92117  2.92117  0.00000  0.15766
      10     H     0.41632  0.41632  0.00000  0.16736
      11     C     3.10802  3.10802  0.00000 -0.21605
      12     N     3.28829  3.28829  0.00000  0.42343
      13     H     0.41316  0.41316  0.00000  0.17367
      14     O     4.16273  4.16273  0.00000 -0.32545
      15     O     4.16446  4.16446  0.00000 -0.32891

   Total alpha = 36.00000, Total beta = 36.00000, Total charge =  0.00000

*** Psi4 exiting successfully. Buy a developer a beer!
