  ==> Input File <==

--------------------------------------------------------------------------
set {
	reference rhf
	basis 6-31G*
}

set_num_threads( 4 )
memory 2 gb

molecule MOL {
0 1

H	 -4.006223	 -0.672596	 0.616538
C	 -2.941263	 -0.523508	 0.636936
C	 -2.399888	 0.489997	 1.413383
C	 -2.114620	 -1.345170	 -0.113041
H	 -3.042109	 1.126522	 1.994549
C	 -1.030469	 0.681079	 1.439098
H	 -2.536086	 -2.130296	 -0.714331
C	 -0.743523	 -1.155748	 -0.088843
H	 -0.594045	 1.460279	 2.034122
C	 -0.197836	 -0.140860	 0.688325
H	 -0.100080	 -1.789228	 -0.667640
C	 1.270333	 0.106614	 0.750712
O	 1.970282	 -0.730723	 0.000018
O	 1.773253	 0.965794	 1.404731
C	 3.377318	 -0.566646	 -0.000065
H	 3.695437	 -0.028981	 -0.881264
H	 3.789299	 -1.563704	 0.000236
H	 3.695516	 -0.028316	 0.880770

	symmetry c1
}
set optking {
	frozen_dihedral = ("
		12 13 15 16
	")
}

ee = optimize('scf')
oeprop('DIPOLE', 'QUADRUPOLE', 'MULLIKEN_CHARGES')
f=open( 'psi4out.xyz', 'w' )
f.write( "18  " )
f.write( str(ee) + "\n" )
f.write( MOL.save_string_xyz() )
f.close()
--------------------------------------------------------------------------

    Molecular point group: c1
  Charge       = 0
  Multiplicity = 1
  Basis Set: 6-31G*
  Basis Set:
  @DF-RHF Final Energy:  -457.34849329497825
    Total Energy =                       -457.3484932949779704
    Molecular point group: c1
  Basis Set: 6-31G*
  Basis Set:
  Basis Set: 6-31G*
  Basis Set:
  @DF-RHF Final Energy:  -457.34865676247659
    Total Energy =                       -457.3486567624765939
  Basis Set: 6-31G*
  Basis Set:
  Basis Set: 6-31G*
  Basis Set:
  @DF-RHF Final Energy:  -457.34887097428611
    Total Energy =                       -457.3488709742858873
  Basis Set: 6-31G*
  Basis Set:
  Basis Set: 6-31G*
  Basis Set:
  @DF-RHF Final Energy:  -457.34888189798562
    Total Energy =                       -457.3488818979858479
  Basis Set: 6-31G*
  Basis Set:
  Basis Set: 6-31G*
  Basis Set:
  @DF-RHF Final Energy:  -457.34899354598764
    Total Energy =                       -457.3489935459876961
  Basis Set: 6-31G*
  Basis Set:
  Charge       = 0
  Multiplicity = 1
  Basis Set: 6-31G*
  Basis Set:

    Orbital Energies (a.u.)
    -----------------------

    Doubly Occupied:

       1A    -20.606959     2A    -20.543771     3A    -11.379059
       4A    -11.281940     5A    -11.245169     6A    -11.244966
       7A    -11.243719     8A    -11.241300     9A    -11.237104
      10A    -11.236340    11A     -1.470686    12A     -1.364291
      13A     -1.164853    14A     -1.047838    15A     -1.024421
      16A     -0.979124    17A     -0.859797    18A     -0.833911
      19A     -0.777099    20A     -0.739869    21A     -0.683711
      22A     -0.675454    23A     -0.671617    24A     -0.631208
      25A     -0.623608    26A     -0.597403    27A     -0.584872
      28A     -0.565978    29A     -0.525227    30A     -0.516317
      31A     -0.503701    32A     -0.498315    33A     -0.456388
      34A     -0.444442    35A     -0.344614    36A     -0.340598

  @DF-RHF Final Energy:  -457.34900710533765

   => Energetics <=

    Nuclear Repulsion Energy =            492.6454298007946022
    One-Electron Energy =               -1599.6175429421600711
    Two-Electron Energy =                 649.6231060360280480
    DFT Exchange-Correlation Energy =       0.0000000000000000
    Empirical Dispersion Energy =           0.0000000000000000
    PCM Polarization Energy =               0.0000000000000000
    EFP Energy =                            0.0000000000000000
    Total Energy =                       -457.3490071053374777
    Molecular point group: c1
  Basis Set: 6-31G*
  Basis Set:

  -Total Gradient:
     Atom            X                  Y                   Z
    ------   -----------------  -----------------  -----------------
       1        0.000000874298    -0.000001058039    -0.000000189979
       2       -0.000003090991     0.000000478201     0.000007319707
       3       -0.000015498418     0.000019220147    -0.000021105921
       4        0.000005055419    -0.000008676013     0.000015490893
       5       -0.000002035876    -0.000001857249     0.000001227634
       6       -0.000001521166    -0.000017225787     0.000018537191
       7       -0.000001128281     0.000001485557    -0.000002191061
       8       -0.000005225148     0.000005376859    -0.000011953491
       9       -0.000000391127     0.000000007835    -0.000000274523
      10       -0.000017402263     0.000017852102     0.000010118265
      11       -0.000005001695     0.000000360825     0.000001262797
      12        0.000019201495    -0.000818689362     0.000946747816
      13       -0.000073229462     0.000863667479    -0.001547152817
      14        0.000024495407     0.000001363808     0.000001379520
      15       -0.000101840680     0.001166600791     0.001289057933
      16        0.000134456468    -0.001216177337    -0.000691272587
      17        0.000043347481    -0.000010945178     0.000007204326
      18       -0.000001065473    -0.000001784640    -0.000024205708

  **** Optimization is complete! (in 6 steps) ****
    Final optimized geometry and variables:
    Molecular point group: c1

    Geometry (in Angstrom), charge = 0, multiplicity = 1:

    H           -4.026679632182    -0.482876575847     0.001479632400
    C           -2.963058016597    -0.325131296852     0.024770136099
    C           -2.432107169747     0.694288687378     0.800672227634
    C           -2.127564314142    -1.141463476506    -0.721118864120
    H           -3.081074978309     1.326921600606     1.378662689877
    C           -1.064394554855     0.896401077794     0.830056006135
    H           -2.540893875259    -1.931081061831    -1.322168137282
    C           -0.758110893641    -0.940813957549    -0.693350325021
    H           -0.636337177001     1.680297664353     1.424843579007
    C           -0.222609304462     0.079785877633     0.083521893636
    H           -0.108308361941    -1.570019225907    -1.269467312105
    C            1.243925559968     0.340290061915     0.151141928861
    O            1.946604357727    -0.492228994176    -0.603372081157
    O            1.731472710654     1.203941683474     0.810660639659
    C            3.359778725472    -0.377982236901    -0.611909306600
    H            3.665837115590     0.163484691842    -1.496831651726
    H            3.749390806036    -1.384241538249    -0.656963637253
    H            3.711478073982     0.125447890349     0.272529176285

  Mulliken Charges: (a.u.)
   Center  Symbol    Alpha    Beta     Spin     Total
       1     H     0.39547  0.39547  0.00000  0.20907
       2     C     3.09000  3.09000  0.00000 -0.18001
       3     C     3.10704  3.10704  0.00000 -0.21408
       4     C     3.10710  3.10710  0.00000 -0.21420
       5     H     0.39546  0.39546  0.00000  0.20908
       6     C     3.08653  3.08653  0.00000 -0.17306
       7     H     0.39638  0.39638  0.00000  0.20725
       8     C     3.08698  3.08698  0.00000 -0.17396
       9     H     0.37594  0.37594  0.00000  0.24812
      10     C     3.07771  3.07771  0.00000 -0.15543
      11     H     0.38061  0.38061  0.00000  0.23878
      12     C     2.57941  2.57941  0.00000  0.84118
      13     O     4.31625  4.31625  0.00000 -0.63251
      14     O     4.29145  4.29145  0.00000 -0.58291
      15     C     3.09670  3.09670  0.00000 -0.19341
      16     H     0.41198  0.41198  0.00000  0.17604
      17     H     0.41003  0.41003  0.00000  0.17995
      18     H     0.39494  0.39494  0.00000  0.21012

   Total alpha = 36.00000, Total beta = 36.00000, Total charge = -0.00000
