  ==> Input File <==

--------------------------------------------------------------------------
set {
	reference rhf
	basis 6-31G*
}

set_num_threads( 1 )
memory 2 gb

molecule MOL {
0 1

H	 1.364315	 -2.651211	 -2.883700
O	 2.240962	 -2.327475	 -3.031200
C	 2.186058	 -1.125148	 -3.756078
C	 1.688220	 0.054057	 -2.927610
H	 3.198336	 -0.936069	 -4.089573
H	 1.569601	 -1.244705	 -4.646284
C	 0.243340	 -0.091166	 -2.443772
H	 2.348454	 0.178392	 -2.073211
H	 1.778372	 0.955130	 -3.532016
C	 -0.244089	 1.131745	 -1.661646
H	 0.163124	 -0.976719	 -1.819491
H	 -0.411130	 -0.251136	 -3.300754
C	 -1.713153	 1.074513	 -1.227002
H	 0.385544	 1.270005	 -0.784553
H	 -0.101920	 2.016427	 -2.278757
C	 -2.037799	 -0.007733	 -0.193645
H	 -1.984611	 2.042855	 -0.811742
H	 -2.342500	 0.935588	 -2.104760
C	 -3.489788	 0.042957	 0.286558
H	 -1.373359	 0.102252	 0.662237
H	 -1.839516	 -0.993004	 -0.608649
C	 -4.216917	 1.317354	 -0.141063
H	 -4.025645	 -0.823308	 -0.095450
H	 -3.513059	 -0.038752	 1.371301
H	 -4.239342	 1.411634	 -1.223113
H	 -5.243387	 1.322503	 0.212445
H	 -3.726170	 2.201406	 0.256408

	symmetry c1
}
set optking {
	frozen_dihedral = ("
		14 10 7 4,
		14 10 13 16,
		10 7 4 8,
		8 4 3 2,
		10 13 16 20,
		4 3 2 1
	")
}

ee = energy('scf')
oeprop('DIPOLE', 'QUADRUPOLE', 'MULLIKEN_CHARGES')
f=open( 'psi4out.xyz', 'w' )
f.write( "27  " )
f.write( str(ee) + "\n" )
f.write( MOL.save_string_xyz() )
f.close()
--------------------------------------------------------------------------

    Molecular point group: c1

    Geometry (in Angstrom), charge = 0, multiplicity = 1:

       Center              X                  Y                   Z               Mass
    ------------   -----------------  -----------------  -----------------  -----------------
           H          1.927566985326    -2.621148943849    -1.183770047190     1.007825032070
           O          2.804213985326    -2.297412943849    -1.331270047190    15.994914619560
           C          2.749309985326    -1.095085943849    -2.056148047190    12.000000000000
           C          2.251471985326     0.084119056151    -1.227680047190    12.000000000000
           H          3.761587985326    -0.906006943849    -2.389643047190     1.007825032070
           H          2.132852985326    -1.214642943849    -2.946354047190     1.007825032070
           C          0.806591985326    -0.061103943849    -0.743842047190    12.000000000000
           H          2.911705985326     0.208454056151    -0.373281047190     1.007825032070
           H          2.341623985326     0.985192056151    -1.832086047190     1.007825032070
           C          0.319162985326     1.161807056151     0.038283952810    12.000000000000
           H          0.726375985326    -0.946656943849    -0.119561047190     1.007825032070
           H          0.152121985326    -0.221073943849    -1.600824047190     1.007825032070
           C         -1.149901014674     1.104575056151     0.472927952810    12.000000000000
           H          0.948795985326     1.300067056151     0.915376952810     1.007825032070
           H          0.461331985326     2.046489056151    -0.578827047190     1.007825032070
           C         -1.474547014674     0.022329056151     1.506284952810    12.000000000000
           H         -1.421359014674     2.072917056151     0.888187952810     1.007825032070
           H         -1.779248014674     0.965650056151    -0.404830047190     1.007825032070
           C         -2.926536014674     0.073019056151     1.986487952810    12.000000000000
           H         -0.810107014674     0.132314056151     2.362166952810     1.007825032070
           H         -1.276264014674    -0.962941943849     1.091280952810     1.007825032070
           C         -3.653665014674     1.347416056151     1.558866952810    12.000000000000
           H         -3.462393014674    -0.793245943849     1.604479952810     1.007825032070
           H         -2.949807014674    -0.008689943849     3.071230952810     1.007825032070
           H         -3.676090014674     1.441696056151     0.476816952810     1.007825032070
           H         -4.680135014674     1.352565056151     1.912374952810     1.007825032070
           H         -3.162918014674     2.231468056151     1.956337952810     1.007825032070

  Charge       = 0
  Multiplicity = 1
  Basis Set: 6-31G*
  Basis Set:

    Orbital Energies (a.u.)
    -----------------------

    Doubly Occupied:

       1A    -20.552021     2A    -11.266727     3A    -11.219101
       4A    -11.216075     5A    -11.214780     6A    -11.214734
       7A    -11.213849     8A    -11.212862     9A    -11.207721
      10A     -1.358758    11A     -1.096884    12A     -1.062674
      13A     -1.006580    14A     -0.943014    15A     -0.897624
      16A     -0.833056    17A     -0.797498    18A     -0.760141
      19A     -0.693287    20A     -0.650953    21A     -0.639929
      22A     -0.616940    23A     -0.608294    24A     -0.586748
      25A     -0.574717    26A     -0.556756    27A     -0.536965
      28A     -0.523517    29A     -0.514580    30A     -0.497801
      31A     -0.484624    32A     -0.476272    33A     -0.469268
      34A     -0.449191    35A     -0.445028    36A     -0.439996
      37A     -0.422783

  @DF-RHF Final Energy:  -388.26797011108232

   => Energetics <=

    Nuclear Repulsion Energy =            465.3312391668161467
    One-Electron Energy =               -1448.6749920862719136
    Two-Electron Energy =                 595.0757828083746972
    DFT Exchange-Correlation Energy =       0.0000000000000000
    Empirical Dispersion Energy =           0.0000000000000000
    PCM Polarization Energy =               0.0000000000000000
    EFP Energy =                            0.0000000000000000
    Total Energy =                       -388.2679701110810129

  Mulliken Charges: (a.u.)
   Center  Symbol    Alpha    Beta     Spin     Total
       1     H     0.27994  0.27994  0.00000  0.44013
       2     O     4.37098  4.37098  0.00000 -0.74196
       3     C     2.99732  2.99732  0.00000  0.00535
       4     C     3.16088  3.16088  0.00000 -0.32177
       5     H     0.41453  0.41453  0.00000  0.17094
       6     H     0.43215  0.43215  0.00000  0.13570
       7     C     3.16340  3.16340  0.00000 -0.32679
       8     H     0.41505  0.41505  0.00000  0.16989
       9     H     0.42445  0.42445  0.00000  0.15109
      10     C     3.14928  3.14928  0.00000 -0.29856
      11     H     0.42304  0.42304  0.00000  0.15391
      12     H     0.42580  0.42580  0.00000  0.14841
      13     C     3.16049  3.16049  0.00000 -0.32098
      14     H     0.42217  0.42217  0.00000  0.15566
      15     H     0.42210  0.42210  0.00000  0.15579
      16     C     3.15629  3.15629  0.00000 -0.31259
      17     H     0.41745  0.41745  0.00000  0.16510
      18     H     0.42329  0.42329  0.00000  0.15342
      19     C     3.15379  3.15379  0.00000 -0.30757
      20     H     0.42144  0.42144  0.00000  0.15713
      21     H     0.42079  0.42079  0.00000  0.15842
      22     C     3.24688  3.24688  0.00000 -0.49376
      23     H     0.42118  0.42118  0.00000  0.15764
      24     H     0.41967  0.41967  0.00000  0.16067
      25     H     0.41912  0.41912  0.00000  0.16176
      26     H     0.41807  0.41807  0.00000  0.16385
      27     H     0.42044  0.42044  0.00000  0.15912

   Total alpha = 37.00000, Total beta = 37.00000, Total charge = -0.00000
