  ==> Input File <==

--------------------------------------------------------------------------
set {
	reference rhf
	basis 6-31G*
}

set_num_threads( 1 )
memory 2 gb

molecule MOL {
0 1

H	 -2.393105	 -0.229623	 3.168715
C	 -2.800014	 -0.589496	 2.215542
C	 -2.662563	 0.370133	 1.061059
O	 -3.303273	 -1.663738	 2.148570
C	 -1.222047	 0.867591	 0.877474
H	 -3.033482	 -0.115947	 0.166154
H	 -3.310621	 1.219812	 1.272532
C	 -0.248279	 -0.229906	 0.440924
H	 -1.224461	 1.662782	 0.137914
H	 -0.874602	 1.318748	 1.805642
C	 1.180775	 0.282413	 0.250794
H	 -0.602644	 -0.671050	 -0.488411
H	 -0.246121	 -1.034357	 1.173995
C	 2.148627	 -0.814315	 -0.201312
H	 1.170899	 1.092245	 -0.474331
H	 1.536955	 0.712566	 1.185934
C	 3.580890	 -0.659131	 0.322722
H	 2.166869	 -0.852443	 -1.289387
H	 1.762857	 -1.776509	 0.128956
C	 4.324889	 0.564933	 -0.213704
H	 4.142010	 -1.551473	 0.056605
H	 3.564836	 -0.624694	 1.410140
H	 4.342616	 0.565491	 -1.300421
H	 3.866655	 1.493402	 0.110242
H	 5.353900	 0.572371	 0.132816

	symmetry c1
}
set optking {
	frozen_dihedral = ("
		6 3 5 8,
		6 3 2 4,
		3 5 8 12,
		12 8 11 14,
		20 17 14 18
	")
}

ee = energy('scf')
oeprop('DIPOLE', 'QUADRUPOLE', 'MULLIKEN_CHARGES')
f=open( 'psi4out.xyz', 'w' )
f.write( "25  " )
f.write( str(ee) + "\n" )
f.write( MOL.save_string_xyz() )
f.close()
--------------------------------------------------------------------------

    Molecular point group: c1

    Geometry (in Angstrom), charge = 0, multiplicity = 1:

       Center              X                  Y                   Z               Mass
    ------------   -----------------  -----------------  -----------------  -----------------
           H         -2.511285267355    -0.016468154353     2.398643929574     1.007825032070
           C         -2.918194267355    -0.376341154353     1.445470929574    12.000000000000
           C         -2.780743267355     0.583287845647     0.290987929574    12.000000000000
           O         -3.421453267355    -1.450583154353     1.378498929574    15.994914619560
           C         -1.340227267355     1.080745845647     0.107402929574    12.000000000000
           H         -3.151662267355     0.097207845647    -0.603917070426     1.007825032070
           H         -3.428801267355     1.432966845647     0.502460929574     1.007825032070
           C         -0.366459267355    -0.016751154353    -0.329147070426    12.000000000000
           H         -1.342641267355     1.875936845647    -0.632157070426     1.007825032070
           H         -0.992782267355     1.531902845647     1.035570929574     1.007825032070
           C          1.062594732645     0.495567845647    -0.519277070426    12.000000000000
           H         -0.720824267355    -0.457895154353    -1.258482070426     1.007825032070
           H         -0.364301267355    -0.821202154353     0.403923929574     1.007825032070
           C          2.030446732645    -0.601160154353    -0.971383070426    12.000000000000
           H          1.052718732645     1.305399845647    -1.244402070426     1.007825032070
           H          1.418774732645     0.925720845647     0.415862929574     1.007825032070
           C          3.462709732645    -0.445976154353    -0.447349070426    12.000000000000
           H          2.048688732645    -0.639288154353    -2.059458070426     1.007825032070
           H          1.644676732645    -1.563354154353    -0.641115070426     1.007825032070
           C          4.206708732645     0.778087845647    -0.983775070426    12.000000000000
           H          4.023829732645    -1.338318154353    -0.713466070426     1.007825032070
           H          3.446655732645    -0.411539154353     0.640068929574     1.007825032070
           H          4.224435732645     0.778645845647    -2.070492070426     1.007825032070
           H          3.748474732645     1.706556845647    -0.659829070426     1.007825032070
           H          5.235719732645     0.785525845647    -0.637255070426     1.007825032070

  Charge       = 0
  Multiplicity = 1
  Basis Set: 6-31G*
  Basis Set:

    Orbital Energies (a.u.)
    -----------------------

    Doubly Occupied:

       1A    -20.562056     2A    -11.326233     3A    -11.235211
       4A    -11.234595     5A    -11.224289     6A    -11.219316
       7A    -11.217944     8A    -11.216097     9A    -11.210681
      10A     -1.402054    11A     -1.104112    12A     -1.069629
      13A     -1.013345    14A     -0.942290    15A     -0.874838
      16A     -0.821897    17A     -0.788131    18A     -0.780869
      19A     -0.665147    20A     -0.660522    21A     -0.634303
      22A     -0.624566    23A     -0.602155    24A     -0.593163
      25A     -0.575545    26A     -0.552082    27A     -0.532910
      28A     -0.525640    29A     -0.510464    30A     -0.493769
      31A     -0.491256    32A     -0.481520    33A     -0.460869
      34A     -0.459371    35A     -0.440941    36A     -0.409606

  @DF-RHF Final Energy:  -387.11944278402621

   => Energetics <=

    Nuclear Repulsion Energy =            439.5821485651315470
    One-Electron Energy =               -1395.4884661381865953
    Two-Electron Energy =                 568.7868747890298664
    DFT Exchange-Correlation Energy =       0.0000000000000000
    Empirical Dispersion Energy =           0.0000000000000000
    PCM Polarization Energy =               0.0000000000000000
    EFP Energy =                            0.0000000000000000
    Total Energy =                       -387.1194427840251819

  Mulliken Charges: (a.u.)
   Center  Symbol    Alpha    Beta     Spin     Total
       1     H     0.43259  0.43259  0.00000  0.13482
       2     C     2.83091  2.83091  0.00000  0.33818
       3     C     3.20814  3.20814  0.00000 -0.41628
       4     O     4.23778  4.23778  0.00000 -0.47556
       5     C     3.16690  3.16690  0.00000 -0.33380
       6     H     0.39970  0.39970  0.00000  0.20061
       7     H     0.40669  0.40669  0.00000  0.18661
       8     C     3.15691  3.15691  0.00000 -0.31381
       9     H     0.41282  0.41282  0.00000  0.17436
      10     H     0.41958  0.41958  0.00000  0.16085
      11     C     3.15400  3.15400  0.00000 -0.30799
      12     H     0.41762  0.41762  0.00000  0.16477
      13     H     0.41809  0.41809  0.00000  0.16382
      14     C     3.15502  3.15502  0.00000 -0.31004
      15     H     0.42037  0.42037  0.00000  0.15926
      16     H     0.42270  0.42270  0.00000  0.15460
      17     C     3.15363  3.15363  0.00000 -0.30726
      18     H     0.42160  0.42160  0.00000  0.15681
      19     H     0.41902  0.41902  0.00000  0.16197
      20     C     3.24095  3.24095  0.00000 -0.48190
      21     H     0.42056  0.42056  0.00000  0.15888
      22     H     0.42320  0.42320  0.00000  0.15360
      23     H     0.42194  0.42194  0.00000  0.15612
      24     H     0.42045  0.42045  0.00000  0.15910
      25     H     0.41884  0.41884  0.00000  0.16231

   Total alpha = 36.00000, Total beta = 36.00000, Total charge = -0.00000
