  ==> Input File <==

--------------------------------------------------------------------------
set {
	reference rhf
	basis cc-pvtz
}

set_num_threads( 4 )
memory 2 gb

molecule MOL {
0 1

H	 1.128311	 0.207724	 1.465118
C	 1.134565	 0.093781	 0.372499
C	 0.062554	 0.862911	 -0.350953
O	 1.948932	 -0.587720	 -0.146651
C	 0.630839	 1.981444	 -1.229901
H	 -0.637508	 1.248162	 0.379109
H	 -0.465518	 0.148305	 -0.978291
C	 1.278410	 3.110136	 -0.432808
H	 -0.172869	 2.382204	 -1.836547
H	 1.353388	 1.561635	 -1.924255
H	 0.563547	 3.569383	 0.240705
H	 1.656550	 3.880555	 -1.093947
H	 2.108767	 2.753207	 0.166480

	symmetry c1
}
set optking {
	frozen_dihedral = ("
		6 3 2 4
	")
}

ee = optimize('scf')
oeprop('DIPOLE', 'QUADRUPOLE', 'MULLIKEN_CHARGES')
f=open( 'psi4out.xyz', 'w' )
f.write( "13  " )
f.write( str(ee) + "\n" )
f.write( MOL.save_string_xyz() )
f.close()
--------------------------------------------------------------------------

    Molecular point group: c1
  Charge       = 0
  Multiplicity = 1
  Basis Set: CC-PVTZ
  Basis Set:
  @DF-RHF Final Energy:  -231.06830245435697
    Total Energy =                       -231.0683024543569672
    Molecular point group: c1
  Basis Set: CC-PVTZ
  Basis Set:
  Basis Set: CC-PVTZ
  Basis Set:
  @DF-RHF Final Energy:  -231.06845016066509
    Total Energy =                       -231.0684501606647814
  Basis Set: CC-PVTZ
  Basis Set:
  Basis Set: CC-PVTZ
  Basis Set:
  @DF-RHF Final Energy:  -231.06788482841145
    Total Energy =                       -231.0678848284114792
  Basis Set: CC-PVTZ
  Basis Set:
  Basis Set: CC-PVTZ
  Basis Set:
  @DF-RHF Final Energy:  -231.06865989861055
    Total Energy =                       -231.0686598986108038
  Basis Set: CC-PVTZ
  Basis Set:
  Basis Set: CC-PVTZ
  Basis Set:
  @DF-RHF Final Energy:  -231.06866229381816
    Total Energy =                       -231.0686622938182779
  Basis Set: CC-PVTZ
  Basis Set:
  Basis Set: CC-PVTZ
  Basis Set:
  @DF-RHF Final Energy:  -231.06866333493315
    Total Energy =                       -231.0686633349332055
  Basis Set: CC-PVTZ
  Basis Set:
  Charge       = 0
  Multiplicity = 1
  Basis Set: CC-PVTZ
  Basis Set:

    Orbital Energies (a.u.)
    -----------------------

    Doubly Occupied:

       1A    -20.552616     2A    -11.322348     3A    -11.234097
       4A    -11.231703     5A    -11.218851     6A     -1.407928
       7A     -1.082609     8A     -0.972230     9A     -0.854012
      10A     -0.773203    11A     -0.687849    12A     -0.643865
      13A     -0.620589    14A     -0.597433    15A     -0.559274
      16A     -0.537772    17A     -0.504814    18A     -0.489666
      19A     -0.480774    20A     -0.412228

  @DF-RHF Final Energy:  -231.06866324331688

   => Energetics <=

    Nuclear Repulsion Energy =            175.1528744187458813
    One-Electron Energy =                -660.0753553721258413
    Two-Electron Energy =                 253.8538177100631401
    DFT Exchange-Correlation Energy =       0.0000000000000000
    Empirical Dispersion Energy =           0.0000000000000000
    PCM Polarization Energy =               0.0000000000000000
    EFP Energy =                            0.0000000000000000
    Total Energy =                       -231.0686632433167915
    Molecular point group: c1
  Basis Set: CC-PVTZ
  Basis Set:

  -Total Gradient:
     Atom            X                  Y                   Z
    ------   -----------------  -----------------  -----------------
       1       -0.000044675222    -0.000015399522    -0.000046609973
       2        0.000192203440     0.000389481073    -0.000005129926
       3        0.000061808329     0.000145557771     0.000134941970
       4       -0.000144839669    -0.000292749725    -0.000035112846
       5        0.000062814314    -0.000012426966    -0.000029254484
       6       -0.000122833141    -0.000246100454    -0.000016539382
       7        0.000004873673     0.000010966774     0.000010950786
       8       -0.000031323165    -0.000000310125     0.000014180160
       9        0.000010063090    -0.000006533432    -0.000025358521
      10        0.000006449790     0.000013998743     0.000003505999
      11        0.000016883761    -0.000010901252     0.000007925599
      12       -0.000006108401     0.000006646184    -0.000010826358
      13       -0.000005316796     0.000017770929    -0.000002673024

  **** Optimization is complete! (in 7 steps) ****
    Final optimized geometry and variables:
    Molecular point group: c1

    Geometry (in Angstrom), charge = 0, multiplicity = 1:

    H            0.115800361236    -0.901294948242     1.834535495629
    C            0.107919035668    -0.998328453932     0.743003872132
    C           -0.968790833372    -0.242308392030    -0.002105320385
    O            0.918066228914    -1.672248692196     0.205784832999
    C           -0.395600563426     0.881051300200    -0.874726624236
    H           -1.689886643506     0.154964945787     0.704102413785
    H           -1.480941270700    -0.961172643380    -0.631740880272
    C            0.256088935047     2.006902780691    -0.076867303398
    H           -1.200469262445     1.286500404048    -1.477538438700
    H            0.324392905600     0.450919924237    -1.560269284965
    H           -0.449189912343     2.459596723685     0.612332556818
    H            0.617922724571     2.785219924373    -0.737686090772
    H            1.103387892840     1.650741831622     0.499023339544

  Mulliken Charges: (a.u.)
   Center  Symbol    Alpha    Beta     Spin     Total
       1     H     0.45500  0.45500  0.00000  0.08999
       2     C     2.91420  2.91420  0.00000  0.17160
       3     C     3.09187  3.09187  0.00000 -0.18373
       4     O     4.16848  4.16848  0.00000 -0.33697
       5     C     3.08980  3.08980  0.00000 -0.17959
       6     H     0.44932  0.44932  0.00000  0.10136
       7     H     0.43826  0.43826  0.00000  0.12348
       8     C     3.15098  3.15098  0.00000 -0.30195
       9     H     0.44718  0.44718  0.00000  0.10565
      10     H     0.44307  0.44307  0.00000  0.11386
      11     H     0.45507  0.45507  0.00000  0.08986
      12     H     0.44504  0.44504  0.00000  0.10992
      13     H     0.45173  0.45173  0.00000  0.09653

   Total alpha = 20.00000, Total beta = 20.00000, Total charge =  0.00000
