  ==> Input File <==

--------------------------------------------------------------------------
set {
	reference rhf
	basis cc-pvtz
}

set_num_threads( 4 )
memory 2 gb

molecule MOL {
0 1

H	 -2.916971	 2.154264	 0.652317
C	 -2.257057	 1.973075	 1.497639
O	 -0.937834	 1.826816	 1.090456
H	 -2.305214	 2.821680	 2.164301
H	 -2.612076	 1.091369	 2.028149
C	 -0.718530	 0.758693	 0.228682
C	 0.718529	 0.758687	 -0.228709
H	 -0.927782	 -0.183638	 0.734841
H	 -1.370200	 0.824776	 -0.639874
O	 1.401606	 -0.295166	 0.366636
H	 0.748705	 0.673477	 -1.312803
H	 1.176496	 1.708671	 0.046552
C	 2.714315	 -0.441627	 -0.061017
H	 2.765292	 -0.641548	 -1.128869
H	 3.305661	 0.447341	 0.150952
H	 3.143725	 -1.278506	 0.470147

	symmetry c1
}
set optking {
	frozen_dihedral = ("
		3 6 7 11
	")
}

ee = optimize('scf')
oeprop('DIPOLE', 'QUADRUPOLE', 'MULLIKEN_CHARGES')
f=open( 'psi4out.xyz', 'w' )
f.write( "16  " )
f.write( str(ee) + "\n" )
f.write( MOL.save_string_xyz() )
f.close()
--------------------------------------------------------------------------

    Molecular point group: c1
  Charge       = 0
  Multiplicity = 1
  Basis Set: CC-PVTZ
  Basis Set:
  @DF-RHF Final Energy:  -307.09406462156414
    Total Energy =                       -307.0940646215641436
    Molecular point group: c1
  Basis Set: CC-PVTZ
  Basis Set:
  Basis Set: CC-PVTZ
  Basis Set:
  @DF-RHF Final Energy:  -307.09459329860596
    Total Energy =                       -307.0945932986061280
  Basis Set: CC-PVTZ
  Basis Set:
  Basis Set: CC-PVTZ
  Basis Set:
  @DF-RHF Final Energy:  -307.09466535742189
    Total Energy =                       -307.0946653574220022
  Basis Set: CC-PVTZ
  Basis Set:
  Charge       = 0
  Multiplicity = 1
  Basis Set: CC-PVTZ
  Basis Set:

    Orbital Energies (a.u.)
    -----------------------

    Doubly Occupied:

       1A    -20.550459     2A    -20.550118     3A    -11.266776
       4A    -11.266109     5A    -11.262875     6A    -11.262751
       7A     -1.390758     8A     -1.377644     9A     -1.029231
      10A     -0.939574    11A     -0.887647    12A     -0.830436
      13A     -0.686643    14A     -0.681377    15A     -0.659090
      16A     -0.642217    17A     -0.631874    18A     -0.600125
      19A     -0.551446    20A     -0.533209    21A     -0.509339
      22A     -0.482460    23A     -0.466703    24A     -0.425135
      25A     -0.413235

  @DF-RHF Final Energy:  -307.09466912393515

   => Energetics <=

    Nuclear Repulsion Energy =            256.2585723781375577
    One-Electron Energy =                -926.9120199406841039
    Two-Electron Energy =                 363.5587784386113981
    DFT Exchange-Correlation Energy =       0.0000000000000000
    Empirical Dispersion Energy =           0.0000000000000000
    PCM Polarization Energy =               0.0000000000000000
    EFP Energy =                            0.0000000000000000
    Total Energy =                       -307.0946691239350912
    Molecular point group: c1
  Basis Set: CC-PVTZ
  Basis Set:

  -Total Gradient:
     Atom            X                  Y                   Z
    ------   -----------------  -----------------  -----------------
       1       -0.000008042526    -0.000014031471     0.000005048874
       2        0.000016513391     0.000090374886     0.000025234535
       3       -0.000432843709     0.000928740630    -0.001593331806
       4       -0.000041595295    -0.000005769135     0.000026820491
       5       -0.000001195725     0.000000818900    -0.000001376311
       6        0.000562768427    -0.000673254875     0.001994454559
       7       -0.000138319386    -0.002800786923    -0.000247508819
       8        0.000001945845     0.000014232851     0.000021628400
       9       -0.000008217099    -0.000036623406    -0.000044357979
      10        0.000000437424     0.000070459125    -0.000013585693
      11        0.000005573421     0.002502593368    -0.000214399126
      12        0.000007816898    -0.000022243754     0.000016984146
      13       -0.000042411727    -0.000072080697     0.000029707481
      14        0.000014219167     0.000012173730    -0.000000938084
      15        0.000009183868     0.000003837174    -0.000002074368
      16        0.000054167022     0.000001559598    -0.000002306301

  **** Optimization is complete! (in 4 steps) ****
    Final optimized geometry and variables:
    Molecular point group: c1

    Geometry (in Angstrom), charge = 0, multiplicity = 1:

    H           -3.103418996391     1.319334665819     0.297513658583
    C           -2.358774553468     1.201478336540     1.082355666828
    O           -1.077307856788     1.098808590610     0.556950967653
    H           -2.386292488799     2.072608369660     1.720634970970
    H           -2.618620365734     0.325971152909     1.672957640940
    C           -0.896130984826     0.013961271624    -0.299663349831
    C            0.552524269775    -0.032226551043    -0.762636719678
    H           -1.132246289793    -0.919348030496     0.202301124491
    H           -1.562923269183     0.112569791338    -1.154275680776
    O            1.208848133222    -1.097835717030    -0.150960249568
    H            0.605320194475    -0.125796205897    -1.845607273594
    H            1.024242492885     0.909492057040    -0.497073734892
    C            2.560087191200    -1.187153013013    -0.459403597030
    H            2.717389088327    -1.322695301610    -1.527614711340
    H            3.100131630199    -0.297639870177    -0.143200371873
    H            2.963049561932    -2.043024458474     0.062238426356

  Mulliken Charges: (a.u.)
   Center  Symbol    Alpha    Beta     Spin     Total
       1     H     0.47289  0.47289  0.00000  0.05422
       2     C     3.02951  3.02951  0.00000 -0.05901
       3     O     4.17300  4.17300  0.00000 -0.34601
       4     H     0.44649  0.44649  0.00000  0.10701
       5     H     0.47036  0.47036  0.00000  0.05929
       6     C     2.96547  2.96547  0.00000  0.06905
       7     C     2.96537  2.96537  0.00000  0.06927
       8     H     0.46633  0.46633  0.00000  0.06734
       9     H     0.47597  0.47597  0.00000  0.04807
      10     O     4.17289  4.17289  0.00000 -0.34578
      11     H     0.47581  0.47581  0.00000  0.04838
      12     H     0.46682  0.46682  0.00000  0.06636
      13     C     3.02968  3.02968  0.00000 -0.05935
      14     H     0.47261  0.47261  0.00000  0.05478
      15     H     0.47033  0.47033  0.00000  0.05934
      16     H     0.44647  0.44647  0.00000  0.10705

   Total alpha = 25.00000, Total beta = 25.00000, Total charge = -0.00000
