  ==> Input File <==

--------------------------------------------------------------------------
set {
	reference rhf
	basis 6-31G*
}

set_num_threads( 4 )
memory 2 gb

molecule MOL {
0 1

H	 2.866480	 -0.465706	 0.876907
C	 2.405773	 -0.024801	 0.000000
N	 0.988830	 -0.304158	 0.000000
H	 2.866480	 -0.465706	 -0.876907
H	 2.629928	 1.045948	 0.000000
C	 0.247162	 0.597100	 -0.862341
C	 0.426315	 -0.311591	 1.337718
H	 0.342591	 1.637351	 -0.534821
H	 0.644478	 0.530839	 -1.870307
C	 -1.222145	 0.208404	 -0.868896
H	 0.954815	 -1.043236	 1.940735
H	 0.534798	 0.662444	 1.825555
C	 -1.047743	 -0.676190	 1.272820
H	 -1.804838	 0.922686	 -1.435717
H	 -1.337777	 -0.773512	 -1.324352
O	 -1.743361	 0.199264	 0.430413
H	 -1.504642	 -0.599959	 2.250803
H	 -1.155170	 -1.699725	 0.918129

	symmetry c1
}
set optking {
	frozen_dihedral = ("
		6 3 2 5
	")
}

ee = optimize('scf')
oeprop('DIPOLE', 'QUADRUPOLE', 'MULLIKEN_CHARGES')
f=open( 'psi4out.xyz', 'w' )
f.write( "18  " )
f.write( str(ee) + "\n" )
f.write( MOL.save_string_xyz() )
f.close()
--------------------------------------------------------------------------

    Molecular point group: c1
  Charge       = 0
  Multiplicity = 1
  Basis Set: 6-31G*
  Basis Set:
  @DF-RHF Final Energy:  -325.02650751003159
    Total Energy =                       -325.0265075100317063
    Molecular point group: c1
  Basis Set: 6-31G*
  Basis Set:
  Basis Set: 6-31G*
  Basis Set:
  @DF-RHF Final Energy:  -325.02668155498657
    Total Energy =                       -325.0266815549865669
  Basis Set: 6-31G*
  Basis Set:
  Basis Set: 6-31G*
  Basis Set:
  @DF-RHF Final Energy:  -325.02670159564667
    Total Energy =                       -325.0267015956467276
  Basis Set: 6-31G*
  Basis Set:
  Basis Set: 6-31G*
  Basis Set:
  @DF-RHF Final Energy:  -325.02670264055160
    Total Energy =                       -325.0267026405517186
  Basis Set: 6-31G*
  Basis Set:
  @DF-RHF Final Energy:  -325.01102535713005
    Total Energy =                       -325.0110253571296539
  @DF-RHF Final Energy:  -324.93648105142273
    Total Energy =                       -324.9364810514228452
  @DF-RHF Final Energy:  -325.01094093602637
    Total Energy =                       -325.0109409360260884
  @DF-RHF Final Energy:  -325.02349610726100
    Total Energy =                       -325.0234961072611100
  @DF-RHF Final Energy:  -325.02547142005426
    Total Energy =                       -325.0254714200543731
  @DF-RHF Final Energy:  -325.02617521436304
    Total Energy =                       -325.0261752143630929
  Basis Set: 6-31G*
  Basis Set:
  @DF-RHF Final Energy:  -325.02652472908295
    Total Energy =                       -325.0265247290825528
  Basis Set: 6-31G*
  Basis Set:
  Basis Set: 6-31G*
  Basis Set:
  @DF-RHF Final Energy:  -325.02666234395252
    Total Energy =                       -325.0266623439520686
  Basis Set: 6-31G*
  Basis Set:
  Basis Set: 6-31G*
  Basis Set:
  @DF-RHF Final Energy:  -325.02669495185023
    Total Energy =                       -325.0266949518505726
  Basis Set: 6-31G*
  Basis Set:
  Charge       = 0
  Multiplicity = 1
  Basis Set: 6-31G*
  Basis Set:

    Orbital Energies (a.u.)
    -----------------------

    Doubly Occupied:

       1A    -20.553849     2A    -15.549572     3A    -11.266131
       4A    -11.265995     5A    -11.244075     6A    -11.244056
       7A    -11.240983     8A     -1.383349     9A     -1.231307
      10A     -1.038137    11A     -0.980971    12A     -0.882306
      13A     -0.869323    14A     -0.775291    15A     -0.683380
      16A     -0.644701    17A     -0.643128    18A     -0.633325
      19A     -0.628384    20A     -0.571486    21A     -0.558006
      22A     -0.540635    23A     -0.527892    24A     -0.501510
      25A     -0.483275    26A     -0.452045    27A     -0.407470
      28A     -0.354147

  @DF-RHF Final Energy:  -325.02670253555158

   => Energetics <=

    Nuclear Repulsion Energy =            341.4027571979893878
    One-Electron Energy =               -1118.5494609569370823
    Two-Electron Energy =                 452.1200012233960024
    DFT Exchange-Correlation Energy =       0.0000000000000000
    Empirical Dispersion Energy =           0.0000000000000000
    PCM Polarization Energy =               0.0000000000000000
    EFP Energy =                            0.0000000000000000
    Total Energy =                       -325.0267025355517490
    Molecular point group: c1
  Basis Set: 6-31G*
  Basis Set:

  -Total Gradient:
     Atom            X                  Y                   Z
    ------   -----------------  -----------------  -----------------
       1       -0.000048267888     0.000080288147     0.000003076197
       2       -0.000076605638     0.000715094185     0.007023203790
       3        0.000576028382    -0.003120846495    -0.005049816829
       4       -0.000024861890     0.000051905852     0.000007923047
       5        0.000025336480     0.000016074764    -0.004706638107
       6       -0.000494167600     0.002322626986     0.002712596010
       7        0.000003152854    -0.000030102849     0.000006800207
       8        0.000012822909    -0.000009734698     0.000006663894
       9       -0.000005990231    -0.000016906232     0.000007048229
      10        0.000035865193    -0.000056175394    -0.000028281764
      11       -0.000000594322    -0.000005338529     0.000003659759
      12       -0.000027156151    -0.000015038348     0.000003688816
      13       -0.000070827364     0.000088096375    -0.000070542586
      14        0.000018493058     0.000007561094    -0.000002174513
      15       -0.000009257047    -0.000002819763    -0.000009025567
      16        0.000041258750    -0.000007772496     0.000049512995
      17       -0.000001237284    -0.000004340644     0.000017588454
      18        0.000046007794    -0.000012571954     0.000024717970

  **** Optimization is complete! (in 14 steps) ****
    Final optimized geometry and variables:
    Molecular point group: c1

    Geometry (in Angstrom), charge = 0, multiplicity = 1:

    H            2.887090137353    -0.449222056951     0.655862650037
    C            2.402804226848     0.011277174962    -0.195822420604
    N            0.983001669822    -0.278614772902    -0.187685510219
    H            2.852952633533    -0.396060610676    -1.096206655695
    H            2.616180871437     1.082514447797    -0.191825431819
    C            0.242570727791     0.630129554947    -1.044905422465
    C            0.415087092674    -0.265638515222     1.150797406240
    H            0.341154705870     1.665904295731    -0.706134043849
    H            0.643129061340     0.573471464715    -2.052711508763
    C           -1.227337440183     0.245703415349    -1.060700535755
    H            0.937720746125    -0.991678522052     1.764874693717
    H            0.520472104680     0.713674949953     1.628023691563
    C           -1.058690613375    -0.631405653232     1.084407868061
    H           -1.804492153504     0.962375164026    -1.630297785896
    H           -1.343535878379    -0.735416459259    -1.517383034215
    O           -1.754802678255     0.237700220853     0.236044050480
    H           -1.517509961983    -0.551624365836     2.061317131866
    H           -1.162392738977    -1.656959350200     0.734565298738

  Mulliken Charges: (a.u.)
   Center  Symbol    Alpha    Beta     Spin     Total
       1     H     0.41701  0.41701  0.00000  0.16599
       2     C     3.14092  3.14092  0.00000 -0.28184
       3     N     3.78681  3.78681  0.00000 -0.57363
       4     H     0.41481  0.41481  0.00000  0.17038
       5     H     0.43032  0.43032  0.00000  0.13936
       6     C     3.07057  3.07057  0.00000 -0.14113
       7     C     3.07010  3.07010  0.00000 -0.14020
       8     H     0.42743  0.42743  0.00000  0.14514
       9     H     0.41640  0.41640  0.00000  0.16720
      10     C     2.99710  2.99710  0.00000  0.00580
      11     H     0.41659  0.41659  0.00000  0.16683
      12     H     0.42819  0.42819  0.00000  0.14363
      13     C     2.99749  2.99749  0.00000  0.00501
      14     H     0.41332  0.41332  0.00000  0.17335
      15     H     0.42370  0.42370  0.00000  0.15261
      16     O     4.31204  4.31204  0.00000 -0.62409
      17     H     0.41336  0.41336  0.00000  0.17328
      18     H     0.42384  0.42384  0.00000  0.15233

   Total alpha = 28.00000, Total beta = 28.00000, Total charge = -0.00000
