  ==> Input File <==

--------------------------------------------------------------------------
set {
	reference rhf
	basis 6-31G*
}

set_num_threads( 1 )
memory 2 gb

molecule MOL {
0 1

O	 -0.906629	 1.972107	 1.994523
C	 -0.764601	 1.982761	 0.809554
C	 0.477768	 1.388962	 0.169065
C	 -1.819685	 2.553750	 -0.111393
C	 0.379448	 -0.143569	 0.099626
H	 1.328848	 1.669630	 0.779960
H	 0.626745	 1.796990	 -0.826599
C	 1.631333	 -0.777471	 -0.511575
H	 0.213439	 -0.517565	 1.103595
H	 -0.490598	 -0.428566	 -0.489902
C	 2.915987	 -0.544314	 0.291766
H	 1.766672	 -0.399098	 -1.523130
H	 1.471257	 -1.849544	 -0.605828
C	 3.373361	 0.914346	 0.347591
H	 3.708709	 -1.142521	 -0.150311
H	 2.780642	 -0.921148	 1.303579
H	 3.506512	 1.320010	 -0.651625
H	 4.322697	 0.999599	 0.867103
H	 2.660624	 1.545032	 0.868198
H	 -1.430389	 3.438163	 -0.608913
H	 -2.701235	 2.819440	 0.455232
H	 -2.080709	 1.839216	 -0.886707

	symmetry c1
}
set optking {
	frozen_dihedral = ("
		6 3 2 1,
		6 3 5 8,
		12 8 11 15
	")
}

ee = energy('scf')
oeprop('DIPOLE', 'QUADRUPOLE', 'MULLIKEN_CHARGES')
f=open( 'psi4out.xyz', 'w' )
f.write( "22  " )
f.write( str(ee) + "\n" )
f.write( MOL.save_string_xyz() )
f.close()
--------------------------------------------------------------------------

    Molecular point group: c1

    Geometry (in Angstrom), charge = 0, multiplicity = 1:

       Center              X                  Y                   Z               Mass
    ------------   -----------------  -----------------  -----------------  -----------------
           O         -1.569423520446     1.040623041285     1.603042910197    15.994914619560
           C         -1.427395520446     1.051277041285     0.418073910197    12.000000000000
           C         -0.185026520446     0.457478041285    -0.222415089803    12.000000000000
           C         -2.482479520446     1.622266041285    -0.502873089803    12.000000000000
           C         -0.283346520446    -1.075052958715    -0.291854089803    12.000000000000
           H          0.666053479554     0.738146041285     0.388479910197     1.007825032070
           H         -0.036049520446     0.865506041285    -1.218079089803     1.007825032070
           C          0.968538479554    -1.708954958715    -0.903055089803    12.000000000000
           H         -0.449355520446    -1.449048958715     0.712114910197     1.007825032070
           H         -1.153392520446    -1.360049958715    -0.881382089803     1.007825032070
           C          2.253192479554    -1.475797958715    -0.099714089803    12.000000000000
           H          1.103877479554    -1.330581958715    -1.914610089803     1.007825032070
           H          0.808462479554    -2.781027958715    -0.997308089803     1.007825032070
           C          2.710566479554    -0.017137958715    -0.043889089803    12.000000000000
           H          3.045914479554    -2.074004958715    -0.541791089803     1.007825032070
           H          2.117847479554    -1.852631958715     0.912098910197     1.007825032070
           H          2.843717479554     0.388526041285    -1.043105089803     1.007825032070
           H          3.659902479554     0.068115041285     0.475622910197     1.007825032070
           H          1.997829479554     0.613548041285     0.476717910197     1.007825032070
           H         -2.093183520446     2.506679041285    -1.000393089803     1.007825032070
           H         -3.364029520446     1.887956041285     0.063751910197     1.007825032070
           H         -2.743503520446     0.907732041285    -1.278187089803     1.007825032070

  Charge       = 0
  Multiplicity = 1
  Basis Set: 6-31G*
  Basis Set:

    Orbital Energies (a.u.)
    -----------------------

    Doubly Occupied:

       1A    -20.545724     2A    -11.322224     3A    -11.229601
       4A    -11.226694     5A    -11.222826     6A    -11.222700
       7A    -11.221126     8A    -11.210119     9A     -1.391579
      10A     -1.100715    11A     -1.038471    12A     -0.996812
      13A     -0.951590    14A     -0.853119    15A     -0.787371
      16A     -0.736380    17A     -0.670750    18A     -0.652498
      19A     -0.625664    20A     -0.604232    21A     -0.596677
      22A     -0.588913    23A     -0.558096    24A     -0.555993
      25A     -0.537863    26A     -0.524621    27A     -0.496038
      28A     -0.483907    29A     -0.470492    30A     -0.465452
      31A     -0.443334    32A     -0.392442

  @DF-RHF Final Energy:  -348.07347763645004

   => Energetics <=

    Nuclear Repulsion Energy =            385.3904848011085846
    One-Electron Energy =               -1235.4800420322906120
    Two-Electron Energy =                 502.0160795947309680
    DFT Exchange-Correlation Energy =       0.0000000000000000
    Empirical Dispersion Energy =           0.0000000000000000
    PCM Polarization Energy =               0.0000000000000000
    EFP Energy =                            0.0000000000000000
    Total Energy =                       -348.0734776364510026

  Mulliken Charges: (a.u.)
   Center  Symbol    Alpha    Beta     Spin     Total
       1     O     4.26369  4.26369  0.00000 -0.52737
       2     C     2.73373  2.73373  0.00000  0.53254
       3     C     3.20347  3.20347  0.00000 -0.40694
       4     C     3.28944  3.28944  0.00000 -0.57888
       5     C     3.16117  3.16117  0.00000 -0.32233
       6     H     0.40281  0.40281  0.00000  0.19437
       7     H     0.41744  0.41744  0.00000  0.16512
       8     C     3.15555  3.15555  0.00000 -0.31109
       9     H     0.40625  0.40625  0.00000  0.18749
      10     H     0.41871  0.41871  0.00000  0.16257
      11     C     3.15461  3.15461  0.00000 -0.30922
      12     H     0.42366  0.42366  0.00000  0.15269
      13     H     0.41699  0.41699  0.00000  0.16603
      14     C     3.24341  3.24341  0.00000 -0.48682
      15     H     0.41804  0.41804  0.00000  0.16393
      16     H     0.41908  0.41908  0.00000  0.16185
      17     H     0.42195  0.42195  0.00000  0.15610
      18     H     0.41685  0.41685  0.00000  0.16630
      19     H     0.41797  0.41797  0.00000  0.16407
      20     H     0.40739  0.40739  0.00000  0.18523
      21     H     0.39768  0.39768  0.00000  0.20464
      22     H     0.41014  0.41014  0.00000  0.17973

   Total alpha = 32.00000, Total beta = 32.00000, Total charge = -0.00000
