  ==> Input File <==

--------------------------------------------------------------------------
set {
	reference rhf
	basis 6-31G*
}

set_num_threads( 1 )
memory 2 gb

molecule MOL {
0 1

H	 1.136379	 0.211822	 1.465562
C	 1.135357	 0.094285	 0.374742
C	 0.065331	 0.871482	 -0.349150
O	 1.941633	 -0.601957	 -0.151457
C	 0.362165	 2.377340	 -0.391108
H	 -0.886675	 0.668202	 0.127584
H	 0.020013	 0.486187	 -1.366821
C	 0.309800	 3.042321	 0.984930
H	 -0.357991	 2.851878	 -1.050046
H	 1.338902	 2.540738	 -0.841584
H	 -0.669249	 2.920830	 1.437952
H	 0.512141	 4.105537	 0.907812
H	 1.040494	 2.616409	 1.666160

	symmetry c1
}
set optking {
	frozen_dihedral = ("
		6 3 5 9
	")
}

ee = energy('scf')
oeprop('DIPOLE', 'QUADRUPOLE', 'MULLIKEN_CHARGES')
f=open( 'psi4out.xyz', 'w' )
f.write( "13  " )
f.write( str(ee) + "\n" )
f.write( MOL.save_string_xyz() )
f.close()
--------------------------------------------------------------------------

    Molecular point group: c1

    Geometry (in Angstrom), charge = 0, multiplicity = 1:

       Center              X                  Y                   Z               Mass
    ------------   -----------------  -----------------  -----------------  -----------------
           H          0.363679540669    -0.947346913797     1.363207546088     1.007825032070
           C          0.362657540669    -1.064883913797     0.272387546088    12.000000000000
           C         -0.707368459331    -0.287686913797    -0.451504453912    12.000000000000
           O          1.168933540669    -1.761125913797    -0.253811453912    15.994914619560
           C         -0.410534459331     1.218171086203    -0.493462453912    12.000000000000
           H         -1.659374459331    -0.490966913797     0.025229546088     1.007825032070
           H         -0.752686459331    -0.672981913797    -1.469175453912     1.007825032070
           C         -0.462899459331     1.883152086203     0.882575546088    12.000000000000
           H         -1.130690459331     1.692709086203    -1.152400453912     1.007825032070
           H          0.566202540669     1.381569086203    -0.943938453912     1.007825032070
           H         -1.441948459331     1.761661086203     1.335597546088     1.007825032070
           H         -0.260558459331     2.946368086203     0.805457546088     1.007825032070
           H          0.267794540669     1.457240086203     1.563805546088     1.007825032070

  Charge       = 0
  Multiplicity = 1
  Basis Set: 6-31G*
  Basis Set:

    Orbital Energies (a.u.)
    -----------------------

    Doubly Occupied:

       1A    -20.563477     2A    -11.326405     3A    -11.239230
       4A    -11.235143     5A    -11.225051     6A     -1.403039
       7A     -1.087209     8A     -0.973423     9A     -0.855276
      10A     -0.779600    11A     -0.680083    12A     -0.647308
      13A     -0.606417    14A     -0.601247    15A     -0.571455
      16A     -0.533245    17A     -0.507079    18A     -0.494079
      19A     -0.482593    20A     -0.408294

  @DF-RHF Final Energy:  -230.98258661437040

   => Energetics <=

    Nuclear Repulsion Energy =            173.3898055231051103
    One-Electron Energy =                -656.3055587567988596
    Two-Electron Energy =                 251.9331666193229466
    DFT Exchange-Correlation Energy =       0.0000000000000000
    Empirical Dispersion Energy =           0.0000000000000000
    PCM Polarization Energy =               0.0000000000000000
    EFP Energy =                            0.0000000000000000
    Total Energy =                       -230.9825866143708026

  Mulliken Charges: (a.u.)
   Center  Symbol    Alpha    Beta     Spin     Total
       1     H     0.43127  0.43127  0.00000  0.13746
       2     C     2.83355  2.83355  0.00000  0.33291
       3     C     3.20689  3.20689  0.00000 -0.41378
       4     O     4.23632  4.23632  0.00000 -0.47265
       5     C     3.16323  3.16323  0.00000 -0.32646
       6     H     0.41171  0.41171  0.00000  0.17657
       7     H     0.39973  0.39973  0.00000  0.20055
       8     C     3.24516  3.24516  0.00000 -0.49033
       9     H     0.41134  0.41134  0.00000  0.17731
      10     H     0.40993  0.40993  0.00000  0.18013
      11     H     0.41880  0.41880  0.00000  0.16240
      12     H     0.41315  0.41315  0.00000  0.17371
      13     H     0.41891  0.41891  0.00000  0.16218

   Total alpha = 20.00000, Total beta = 20.00000, Total charge =  0.00000
