                              Psi4 1.0.54 Driver

  ==> Input File <==

--------------------------------------------------------------------------
set {
	reference rhf
	basis cc-pvtz
}

set_num_threads( 4 )
memory 2 gb

molecule MOL {
0 1

H	 -3.162190	 0.493205	 -0.000107
C	 -2.363908	 -0.234727	 0.000005
O	 -1.158738	 0.454634	 -0.000087
H	 -2.464314	 -0.863616	 -0.882153
H	 -2.464327	 -0.863359	 0.882345
C	 -0.665416	 0.753426	 -1.268028
C	 0.645322	 1.501334	 -1.130216
H	 -1.387311	 1.358472	 -1.817049
H	 -0.516210	 -0.164519	 -1.837023
C	 1.252305	 1.866198	 -2.480326
H	 0.471906	 2.397156	 -0.544250
H	 1.336087	 0.886251	 -0.564117
H	 0.586686	 2.502449	 -3.054105
H	 2.186528	 2.399029	 -2.352501
H	 1.456917	 0.981448	 -3.073976

	symmetry c1
}
set optking {
	frozen_dihedral = ("
		6 3 2 4
	")
}

ee,wfn = optimize('scf', return_wfn=True)
oeprop( wfn, 'DIPOLE', 'QUADRUPOLE', 'MULLIKEN_CHARGES')
f=open( 'psi4out.xyz', 'w' )
f.write( "15  " )
f.write( str(ee) + "\n" )
f.write( MOL.save_string_xyz() )
f.close()
--------------------------------------------------------------------------

    Molecular point group: c1
  Charge       = 0
  Multiplicity = 1
  Basis Set: CC-PVTZ
  Basis Set:
  @DF-RHF Final Energy:  -232.22559615414846
    Total Energy =                       -232.2255961541485476
    Molecular point group: c1
  Basis Set: CC-PVTZ
  Basis Set:
  Basis Set: CC-PVTZ
  Basis Set:
  @DF-RHF Final Energy:  -232.22622367752098
    Total Energy =                       -232.2262236775208635
  Basis Set: CC-PVTZ
  Basis Set:
  Basis Set: CC-PVTZ
  Basis Set:
  @DF-RHF Final Energy:  -232.22637402104618
    Total Energy =                       -232.2263740210462970
  Basis Set: CC-PVTZ
  Basis Set:
  Charge       = 0
  Multiplicity = 1
  Basis Set: CC-PVTZ
  Basis Set:

    Orbital Energies (a.u.)
    -----------------------

    Doubly Occupied:

       1A    -20.545736     2A    -11.264727     3A    -11.261524
       4A    -11.212504     5A    -11.210604     6A     -1.379414
       7A     -1.058272     8A     -0.956115     9A     -0.877441
      10A     -0.809480    11A     -0.674928    12A     -0.655122
      13A     -0.632341    14A     -0.608008    15A     -0.564794
      16A     -0.542855    17A     -0.503303    18A     -0.490556
      19A     -0.478718    20A     -0.462626    21A     -0.413508

  @DF-RHF Final Energy:  -232.22637520231154

   => Energetics <=

    Nuclear Repulsion Energy =            189.8493744469372473
    One-Electron Energy =                -690.9463522478012010
    Two-Electron Energy =                 268.8706025985522956
    DFT Exchange-Correlation Energy =       0.0000000000000000
    Empirical Dispersion Energy =           0.0000000000000000
    PCM Polarization Energy =               0.0000000000000000
    EFP Energy =                            0.0000000000000000
    Total Energy =                       -232.2263752023116581
    Molecular point group: c1
  Basis Set: CC-PVTZ
  Basis Set:

  -Total Gradient:
     Atom            X                  Y                   Z
    ------   -----------------  -----------------  -----------------
       1        0.000008324567     0.000006346528     0.000011946324
       2        0.002056581001    -0.003573750163     0.001709706678
       3       -0.002027856822     0.003450194342    -0.000262862946
       4       -0.001170092584     0.002175848208    -0.001386888747
       5        0.000068743787     0.000038094757    -0.000024436649
       6        0.001117658547    -0.002099571637    -0.000156397397
       7       -0.000018621881    -0.000002832594     0.000063424099
       8       -0.000004604485    -0.000008040901     0.000064873423
       9       -0.000010594448    -0.000003551111    -0.000020427654
      10       -0.000028044666     0.000005900883    -0.000009221045
      11        0.000019552435     0.000015169611     0.000002786819
      12       -0.000008316313    -0.000002712675     0.000003714931
      13        0.000002353272     0.000000493197    -0.000009345964
      14       -0.000005254641    -0.000000446798     0.000006999874
      15        0.000000172227    -0.000001141647     0.000006128255

  **** Optimization is complete! (in 4 steps) ****
    Final optimized geometry and variables:
    Molecular point group: c1

    Geometry (in Angstrom), charge = 0, multiplicity = 1:

    H           -2.722004292132    -0.388053733396     1.001283501487
    C           -1.885958187564    -1.083239624992     0.977014442955
    O           -0.672950466733    -0.402208912985     0.961238334159
    H           -2.006821410136    -1.710541591519     0.098181489114
    H           -1.922999763408    -1.700908495789     1.863337031792
    C           -0.177512671897    -0.096479207139    -0.304735367121
    C            1.132926988538     0.650136303027    -0.157719165215
    H           -0.894576056596     0.513396921457    -0.855129035643
    H           -0.026614972787    -1.011686989181    -0.876462645209
    C            1.749291436046     1.014504511433    -1.503825439361
    H            0.957237778077     1.546175131037     0.427317241880
    H            1.818861309664     0.033763628517     0.412986687367
    H            1.088062769527     1.651210295087    -2.082249420802
    H            2.683124564477     1.546661903376    -1.369838863186
    H            1.957255335384     0.129447286751    -2.095960729954

  Mulliken Charges: (a.u.)
   Center  Symbol    Alpha    Beta     Spin     Total
       1     H     0.46535  0.46535  0.00000  0.06930
       2     C     3.03134  3.03134  0.00000 -0.06267
       3     O     4.17413  4.17413  0.00000 -0.34826
       4     H     0.47424  0.47424  0.00000  0.05151
       5     H     0.45040  0.45040  0.00000  0.09921
       6     C     2.95580  2.95580  0.00000  0.08839
       7     C     3.08126  3.08126  0.00000 -0.16252
       8     H     0.47680  0.47680  0.00000  0.04640
       9     H     0.47462  0.47462  0.00000  0.05076
      10     C     3.15583  3.15583  0.00000 -0.31166
      11     H     0.45099  0.45099  0.00000  0.09802
      12     H     0.45121  0.45121  0.00000  0.09759
      13     H     0.45583  0.45583  0.00000  0.08833
      14     H     0.44626  0.44626  0.00000  0.10747
      15     H     0.45593  0.45593  0.00000  0.08814

   Total alpha = 21.00000, Total beta = 21.00000, Total charge = -0.00000

*** Psi4 exiting successfully. Buy a developer a beer!
