  ==> Input File <==

--------------------------------------------------------------------------
set {
	reference rhf
	basis 6-31G*
}

set_num_threads( 4 )
memory 2 gb

molecule MOL {
0 1

H	 2.694359	 -0.497538	 -1.039746
N	 2.434251	 -0.367735	 -0.081097
C	 1.267428	 0.496480	 0.024474
H	 3.221972	 0.048116	 0.378771
C	 -0.016086	 -0.325158	 -0.029487
H	 1.288818	 1.183521	 -0.816092
H	 1.267576	 1.109062	 0.929528
C	 -1.282277	 0.529072	 0.046735
H	 -0.012495	 -0.908639	 -0.945788
H	 -0.015903	 -1.041248	 0.791956
C	 -2.563920	 -0.301775	 -0.006060
H	 -1.284084	 1.244622	 -0.773004
H	 -1.271387	 1.115393	 0.963286
H	 -2.621848	 -0.873522	 -0.927727
H	 -3.445135	 0.329952	 0.047812
H	 -2.609542	 -1.004582	 0.821105

	symmetry c1
}
set optking {
	frozen_dihedral = ("
		1 2 3 6
	")
}

ee = optimize('scf')
oeprop('DIPOLE', 'QUADRUPOLE', 'MULLIKEN_CHARGES')
f=open( 'psi4out.xyz', 'w' )
f.write( "16  " )
f.write( str(ee) + "\n" )
f.write( MOL.save_string_xyz() )
f.close()
--------------------------------------------------------------------------

    Molecular point group: c1
  Charge       = 0
  Multiplicity = 1
  Basis Set: 6-31G*
  Basis Set:
  @DF-RHF Final Energy:  -212.31372717119953
    Total Energy =                       -212.3137271711995027
    Molecular point group: c1
  Basis Set: 6-31G*
  Basis Set:
  Basis Set: 6-31G*
  Basis Set:
  @DF-RHF Final Energy:  -212.31517770370709
    Total Energy =                       -212.3151777037072065
  Basis Set: 6-31G*
  Basis Set:
  Basis Set: 6-31G*
  Basis Set:
  @DF-RHF Final Energy:  -212.31545050299030
    Total Energy =                       -212.3154505029905295
  Basis Set: 6-31G*
  Basis Set:
  Basis Set: 6-31G*
  Basis Set:
  @DF-RHF Final Energy:  -212.31545504562894
    Total Energy =                       -212.3154550456289940
  Basis Set: 6-31G*
  Basis Set:
  Basis Set: 6-31G*
  Basis Set:
  @DF-RHF Final Energy:  -212.31546054083063
    Total Energy =                       -212.3154605408305997
  Basis Set: 6-31G*
  Basis Set:
  Charge       = 0
  Multiplicity = 1
  Basis Set: 6-31G*
  Basis Set:

    Orbital Energies (a.u.)
    -----------------------

    Doubly Occupied:

       1A    -15.533057     2A    -11.240639     3A    -11.212850
       4A    -11.206280     5A    -11.204916     6A     -1.175576
       7A     -1.057547     8A     -0.957854     9A     -0.842540
      10A     -0.787953    11A     -0.671648    12A     -0.626401
      13A     -0.608710    14A     -0.575292    15A     -0.555848
      16A     -0.529431    17A     -0.493037    18A     -0.471279
      19A     -0.464720    20A     -0.459856    21A     -0.380784

  @DF-RHF Final Energy:  -212.31546115802203

   => Energetics <=

    Nuclear Repulsion Energy =            185.9757438058639707
    One-Electron Energy =                -654.4699721418332956
    Two-Electron Energy =                 256.1787671779473499
    DFT Exchange-Correlation Energy =       0.0000000000000000
    Empirical Dispersion Energy =           0.0000000000000000
    PCM Polarization Energy =               0.0000000000000000
    EFP Energy =                            0.0000000000000000
    Total Energy =                       -212.3154611580219466
    Molecular point group: c1
  Basis Set: 6-31G*
  Basis Set:

  -Total Gradient:
     Atom            X                  Y                   Z
    ------   -----------------  -----------------  -----------------
       1        0.001768733961     0.002422979660     0.000234586329
       2       -0.002636938962    -0.003490556583    -0.000740187250
       3        0.002287821429     0.002862969343     0.002062057723
       4        0.000044580681    -0.000010559552     0.000013114971
       5        0.000007918425     0.000035519506     0.000007402699
       6       -0.001448332341    -0.001827848927    -0.001579193847
       7       -0.000022199290     0.000000651729     0.000010633567
       8       -0.000007859657    -0.000001888585    -0.000036865923
       9        0.000010937504     0.000023027928     0.000006717688
      10        0.000002140547    -0.000011146960     0.000013989702
      11       -0.000007179083     0.000004567322     0.000023303221
      12        0.000002415143     0.000001681078    -0.000007620724
      13       -0.000000088990    -0.000007407748    -0.000011886179
      14        0.000000341000     0.000010422210    -0.000003300190
      15       -0.000002641606    -0.000003277619     0.000010784296
      16        0.000000351235    -0.000009132802    -0.000003536083

  **** Optimization is complete! (in 6 steps) ****
    Final optimized geometry and variables:
    Molecular point group: c1

    Geometry (in Angstrom), charge = 0, multiplicity = 1:

    H            2.725119701797    -0.498213816862    -1.003067932841
    N            2.437786705277    -0.376011421751    -0.051347227987
    C            1.265450840604     0.492392091346     0.025573111665
    H            3.216675089350     0.043325818842     0.418082498919
    C           -0.020282607722    -0.329554645925    -0.015240060630
    H            1.236690659368     1.224029105524    -0.783250580590
    H            1.307431885761     1.047692227913     0.957127458143
    C           -1.286017046801     0.525670173958     0.055632009720
    H           -0.030779778910    -0.920799356967    -0.929452523573
    H           -0.000435641043    -1.039688273952     0.806622498545
    C           -2.568686653799    -0.304696990339     0.019712385522
    H           -1.294025501437     1.234435857388    -0.770343615239
    H           -1.269753261694     1.121122790310     0.966632283709
    H           -2.634030202820    -0.884346564939    -0.896733313852
    H           -3.449583048786     0.327572510372     0.074928965071
    H           -2.607480506053    -1.000663305892     0.852743957788

  Mulliken Charges: (a.u.)
   Center  Symbol    Alpha    Beta     Spin     Total
       1     H     0.33389  0.33389  0.00000  0.33222
       2     N     3.92198  3.92198  0.00000 -0.84396
       3     C     3.06718  3.06718  0.00000 -0.13435
       4     H     0.33227  0.33227  0.00000  0.33546
       5     C     3.14174  3.14174  0.00000 -0.28349
       6     H     0.43155  0.43155  0.00000  0.13690
       7     H     0.42236  0.42236  0.00000  0.15527
       8     C     3.15690  3.15690  0.00000 -0.31380
       9     H     0.42580  0.42580  0.00000  0.14840
      10     H     0.41634  0.41634  0.00000  0.16732
      11     C     3.23814  3.23814  0.00000 -0.47627
      12     H     0.42476  0.42476  0.00000  0.15048
      13     H     0.42413  0.42413  0.00000  0.15173
      14     H     0.42180  0.42180  0.00000  0.15640
      15     H     0.42029  0.42029  0.00000  0.15943
      16     H     0.42087  0.42087  0.00000  0.15827

   Total alpha = 21.00000, Total beta = 21.00000, Total charge =  0.00000
