                              Psi4 1.0.54 Driver

  ==> Input File <==

--------------------------------------------------------------------------
set {
	reference rhf
	basis cc-pvtz
}

set_num_threads( 4 )
memory 2 gb

molecule MOL {
0 1

H	 -4.038583	 -0.951311	 1.151056
O	 -3.399479	 -0.916309	 0.463657
C	 -2.178154	 -0.440075	 0.963640
C	 -1.175688	 -0.398187	 -0.171891
H	 -2.301690	 0.555081	 1.385749
H	 -1.812473	 -1.089019	 1.756722
C	 0.196029	 0.106276	 0.266738
H	 -1.572494	 0.237270	 -0.957358
H	 -1.089877	 -1.395368	 -0.591635
C	 1.330220	 -0.826136	 -0.155230
H	 0.359542	 1.097229	 -0.145561
H	 0.212134	 0.218135	 1.348778
C	 2.719700	 -0.407669	 0.328325
H	 1.339388	 -0.911200	 -1.239363
H	 1.119001	 -1.821953	 0.224128
C	 3.241564	 0.893452	 -0.276737
H	 3.418299	 -1.204729	 0.093035
H	 2.711776	 -0.323368	 1.411960
H	 3.254204	 0.841071	 -1.360784
H	 2.634460	 1.745075	 0.005842
H	 4.254264	 1.092401	 0.054971

	symmetry c1
}
set optking {
	frozen_dihedral = ("
		8 4 7 10
	")
}

ee,wfn = optimize('scf', return_wfn=True)
oeprop( wfn, 'DIPOLE', 'QUADRUPOLE', 'MULLIKEN_CHARGES')
f=open( 'psi4out.xyz', 'w' )
f.write( "21  " )
f.write( str(ee) + "\n" )
f.write( MOL.save_string_xyz() )
f.close()
--------------------------------------------------------------------------

    Molecular point group: c1
  Charge       = 0
  Multiplicity = 1
  Basis Set: CC-PVTZ
  Basis Set:
  @DF-RHF Final Energy:  -310.32821300365947
    Total Energy =                       -310.3282130036593003
    Molecular point group: c1
  Basis Set: CC-PVTZ
  Basis Set:
  Basis Set: CC-PVTZ
  Basis Set:
  @DF-RHF Final Energy:  -310.32844161021944
    Total Energy =                       -310.3284416102192154
  Basis Set: CC-PVTZ
  Basis Set:
  Basis Set: CC-PVTZ
  Basis Set:
  @DF-RHF Final Energy:  -310.32849518534300
    Total Energy =                       -310.3284951853429448
  Basis Set: CC-PVTZ
  Basis Set:
  Basis Set: CC-PVTZ
  Basis Set:
  @DF-RHF Final Energy:  -310.32848745025308
    Total Energy =                       -310.3284874502530784
  Basis Set: CC-PVTZ
  Basis Set:
  Charge       = 0
  Multiplicity = 1
  Basis Set: CC-PVTZ
  Basis Set:

    Orbital Energies (a.u.)
    -----------------------

    Doubly Occupied:

       1A    -20.545552     2A    -11.265488     3A    -11.213238
       4A    -11.213100     5A    -11.211817     6A    -11.208697
       7A    -11.206029     8A     -1.363679     9A     -1.086201
      10A     -1.033395    11A     -0.955214    12A     -0.876815
      13A     -0.808617    14A     -0.779779    15A     -0.697516
      16A     -0.657025    17A     -0.624141    18A     -0.610270
      19A     -0.592310    20A     -0.556077    21A     -0.553082
      22A     -0.517789    23A     -0.505379    24A     -0.497124
      25A     -0.475764    26A     -0.458814    27A     -0.454313
      28A     -0.446749    29A     -0.434992

  @DF-RHF Final Energy:  -310.32850309902756

   => Energetics <=

    Nuclear Repulsion Energy =            313.1025889289850284
    One-Electron Energy =               -1041.1642502974107174
    Two-Electron Energy =                 417.7331582693982455
    DFT Exchange-Correlation Energy =       0.0000000000000000
    Empirical Dispersion Energy =           0.0000000000000000
    PCM Polarization Energy =               0.0000000000000000
    EFP Energy =                            0.0000000000000000
    Total Energy =                       -310.3285030990274436
    Molecular point group: c1
  Basis Set: CC-PVTZ
  Basis Set:

  -Total Gradient:
     Atom            X                  Y                   Z
    ------   -----------------  -----------------  -----------------
       1       -0.000027618356    -0.000005525871    -0.000007155029
       2       -0.000070544934    -0.000027974847     0.000003217648
       3        0.000066803307     0.000035983091    -0.000014393852
       4        0.001029810704    -0.001648455438    -0.001203731295
       5        0.000003727426    -0.000016197720     0.000004461266
       6        0.000004256596     0.000008839262    -0.000005172084
       7       -0.000003410293     0.001291746249    -0.001368340787
       8       -0.000848428744     0.001118575378     0.001380299330
       9        0.000011616856     0.000000842759     0.000005088045
      10       -0.000140560676    -0.000745088764     0.001210797625
      11       -0.000015643912    -0.000020809409     0.000002129424
      12       -0.000024765338    -0.000004836562    -0.000000719085
      13        0.000010755792     0.000014158595    -0.000020614965
      14       -0.000000491153    -0.000005783296     0.000002895519
      15       -0.000007124986     0.000007039049    -0.000001597180
      16        0.000004863377    -0.000008564941     0.000016043171
      17        0.000006328130     0.000004259318     0.000000592842
      18       -0.000000869293     0.000000556975    -0.000006571940
      19        0.000000742669    -0.000002152286     0.000006783284
      20        0.000001268379     0.000000057353    -0.000001399047
      21       -0.000000715557     0.000003331106    -0.000002612892

  **** Optimization is complete! (in 5 steps) ****
    Final optimized geometry and variables:
    Molecular point group: c1

    Geometry (in Angstrom), charge = 0, multiplicity = 1:

    H           -4.096243139276    -0.617049722948     0.934584875272
    O           -3.457418966426    -0.589263629831     0.246591687404
    C           -2.222752566947    -0.155281097414     0.749717758799
    C           -1.219516728900    -0.121367369136    -0.386972200896
    H           -2.316012833961     0.836079652687     1.188827197654
    H           -1.870814701728    -0.826599275939     1.530692994127
    C            0.166233003115     0.373431450418     0.067007132955
    H           -1.622391383808     0.522454800990    -1.159889059433
    H           -1.153004059714    -1.117179429649    -0.809775690382
    C            1.307114846120    -0.547226043300    -0.365352510819
    H            0.332966577657     1.376268151586    -0.306218339858
    H            0.188040301999     0.452409213855     1.151774817258
    C            2.696064262684    -0.116789672331     0.107907064706
    H            1.308670173972    -0.633532686946    -1.449687616960
    H            1.104580574463    -1.544309698477     0.015740895094
    C            3.209007874914     1.180418594608    -0.513026098960
    H            3.397991493550    -0.912505949212    -0.122048412787
    H            2.692279305269    -0.021196414817     1.190745895100
    H            3.218449129621     1.115817665731    -1.596361113854
    H            2.598453166017     2.031988064039    -0.238188496647
    H            4.221711429463     1.388298032438    -0.186905944429

  Mulliken Charges: (a.u.)
   Center  Symbol    Alpha    Beta     Spin     Total
       1     H     0.39735  0.39735  0.00000  0.20529
       2     O     4.19481  4.19481  0.00000 -0.38962
       3     C     2.96193  2.96193  0.00000  0.07613
       4     C     3.08706  3.08706  0.00000 -0.17413
       5     H     0.47383  0.47383  0.00000  0.05234
       6     H     0.47547  0.47547  0.00000  0.04907
       7     C     3.10989  3.10989  0.00000 -0.21978
       8     H     0.44808  0.44808  0.00000  0.10384
       9     H     0.45096  0.45096  0.00000  0.09807
      10     C     3.09417  3.09417  0.00000 -0.18835
      11     H     0.44665  0.44665  0.00000  0.10671
      12     H     0.45753  0.45753  0.00000  0.08493
      13     C     3.09011  3.09011  0.00000 -0.18022
      14     H     0.45195  0.45195  0.00000  0.09611
      15     H     0.44896  0.44896  0.00000  0.10208
      16     C     3.15201  3.15201  0.00000 -0.30403
      17     H     0.44854  0.44854  0.00000  0.10292
      18     H     0.45534  0.45534  0.00000  0.08932
      19     H     0.45455  0.45455  0.00000  0.09090
      20     H     0.45407  0.45407  0.00000  0.09185
      21     H     0.44672  0.44672  0.00000  0.10655

   Total alpha = 29.00000, Total beta = 29.00000, Total charge = -0.00000

*** Psi4 exiting successfully. Buy a developer a beer!
