  ==> Input File <==

--------------------------------------------------------------------------
set {
	reference rhf
	basis cc-pvtz
}

set_num_threads( 4 )
memory 2 gb

molecule MOL {
0 1

H	 -3.642953	 0.223825	 0.000000
C	 -2.571844	 0.155001	 0.000000
C	 -1.957580	 -1.086132	 0.000000
C	 -1.807160	 1.303787	 0.000000
H	 -2.551493	 -1.979629	 0.000000
C	 -0.582719	 -1.174294	 0.000000
H	 -2.279934	 2.266806	 0.000000
C	 -0.427220	 1.213406	 0.000000
H	 -0.094904	 -2.127556	 0.000000
C	 0.196908	 -0.024061	 0.000000
H	 0.151409	 2.115254	 0.000000
C	 1.690041	 -0.173233	 0.000000
C	 2.420821	 -0.246242	 1.321094
O	 2.291104	 -0.233283	 -1.024929
H	 2.249793	 0.650771	 1.904272
H	 3.475718	 -0.351632	 1.124076
H	 2.075712	 -1.091691	 1.904272

	symmetry c1
}
set optking {
	frozen_dihedral = ("
		13 12 10 8
	")
}

ee = optimize('scf')
oeprop('DIPOLE', 'QUADRUPOLE', 'MULLIKEN_CHARGES')
f=open( 'psi4out.xyz', 'w' )
f.write( "17  " )
f.write( str(ee) + "\n" )
f.write( MOL.save_string_xyz() )
f.close()
--------------------------------------------------------------------------

    Molecular point group: c1
  Charge       = 0
  Multiplicity = 1
  Basis Set: CC-PVTZ
  Basis Set:
  @DF-RHF Final Energy:  -382.59635518073014
    Total Energy =                       -382.5963551807301428
    Molecular point group: c1
  Basis Set: CC-PVTZ
  Basis Set:
  Basis Set: CC-PVTZ
  Basis Set:
  @DF-RHF Final Energy:  -382.59688266873752
    Total Energy =                       -382.5968826687379760
  Basis Set: CC-PVTZ
  Basis Set:
  Basis Set: CC-PVTZ
  Basis Set:
  @DF-RHF Final Energy:  -382.59708634187712
    Total Energy =                       -382.5970863418775707
  Basis Set: CC-PVTZ
  Basis Set:
  Basis Set: CC-PVTZ
  Basis Set:
  @DF-RHF Final Energy:  -382.59713756210004
    Total Energy =                       -382.5971375620999879
  Basis Set: CC-PVTZ
  Basis Set:
  Basis Set: CC-PVTZ
  Basis Set:
  @DF-RHF Final Energy:  -382.59714195717191
    Total Energy =                       -382.5971419571718570
  Basis Set: CC-PVTZ
  Basis Set:
  Charge       = 0
  Multiplicity = 1
  Basis Set: CC-PVTZ
  Basis Set:

    Orbital Energies (a.u.)
    -----------------------

    Doubly Occupied:

       1A    -20.548972     2A    -11.331167     3A    -11.247260
       4A    -11.241414     5A    -11.241284     6A    -11.239443
       7A    -11.239128     8A    -11.236777     9A    -11.231599
      10A     -1.408583    11A     -1.171146    12A     -1.054189
      13A     -1.029666    14A     -1.001733    15A     -0.862308
      16A     -0.841568    17A     -0.765640    18A     -0.706358
      19A     -0.667283    20A     -0.647507    21A     -0.633497
      22A     -0.623372    23A     -0.602107    24A     -0.592992
      25A     -0.565638    26A     -0.525110    27A     -0.515582
      28A     -0.513019    29A     -0.497219    30A     -0.413507
      31A     -0.348873    32A     -0.346397

  @DF-RHF Final Energy:  -382.59714259852802

   => Energetics <=

    Nuclear Repulsion Energy =            403.5129285838523288
    One-Electron Energy =               -1318.4394662686117954
    Two-Electron Energy =                 532.3293950862315569
    DFT Exchange-Correlation Energy =       0.0000000000000000
    Empirical Dispersion Energy =           0.0000000000000000
    PCM Polarization Energy =               0.0000000000000000
    EFP Energy =                            0.0000000000000000
    Total Energy =                       -382.5971425985279666
    Molecular point group: c1
  Basis Set: CC-PVTZ
  Basis Set:

  -Total Gradient:
     Atom            X                  Y                   Z
    ------   -----------------  -----------------  -----------------
       1       -0.000005003207    -0.000005771598    -0.000008040299
       2        0.000015434069     0.000119935802     0.000012536158
       3        0.000101027549    -0.000061234994     0.000007119514
       4       -0.000110572812    -0.000047090570     0.000013984124
       5       -0.000003990248     0.000008430532     0.000006441117
       6       -0.000104021882    -0.000044925162    -0.000041195666
       7        0.000006311438    -0.000000032456     0.000007135920
       8        0.000096975355    -0.000086183785    -0.000079157749
       9        0.000014937157     0.000003333210     0.000008648171
      10       -0.000017914336     0.000109485408     0.000074491299
      11       -0.000009937121     0.000007697545     0.000005288187
      12        0.000083319547     0.000022099762    -0.000012739896
      13       -0.000034974442    -0.000020346854    -0.000030795583
      14       -0.000031540550     0.000000843624     0.000032271434
      15       -0.000002012455     0.000008165272     0.000003394571
      16       -0.000006058159    -0.000005978112     0.000003864205
      17        0.000008020098    -0.000008427623    -0.000003245511

  **** Optimization is complete! (in 6 steps) ****
    Final optimized geometry and variables:
    Molecular point group: c1

    Geometry (in Angstrom), charge = 0, multiplicity = 1:

    H           -3.634115113702     0.276169870825    -0.009244702766
    C           -2.564199499294     0.195074164455    -0.016005648735
    C           -1.963483397888    -1.049465472007    -0.027497971541
    C           -1.782638107231     1.334429486769    -0.016606192492
    H           -2.565870011416    -1.937550382661    -0.031956803412
    C           -0.585840070560    -1.154962045774    -0.037503080162
    H           -2.243797729368     2.303399973071    -0.012622893157
    C           -0.404533375911     1.230711204424    -0.026459899631
    H           -0.124384137367    -2.124563686830    -0.054789958797
    C            0.198430306546    -0.014617391052    -0.038937997853
    H            0.197739263814     2.119856687344    -0.035039551694
    C            1.702379701252    -0.129200688370    -0.061789578773
    C            2.395353670653    -0.184187798050     1.277194673412
    O            2.299430686753    -0.173854359741    -1.085031139466
    H            2.159394222372     0.705896771046     1.849745561748
    H            3.462856005150    -0.264104062600     1.138243076874
    H            2.028977028263    -1.032065144359     1.845218154122

  Mulliken Charges: (a.u.)
   Center  Symbol    Alpha    Beta     Spin     Total
       1     H     0.42168  0.42168  0.00000  0.15664
       2     C     3.08633  3.08633  0.00000 -0.17265
       3     C     3.06296  3.06296  0.00000 -0.12593
       4     C     3.06298  3.06298  0.00000 -0.12597
       5     H     0.42138  0.42138  0.00000  0.15724
       6     C     3.09868  3.09868  0.00000 -0.19737
       7     H     0.42138  0.42138  0.00000  0.15724
       8     C     3.09875  3.09875  0.00000 -0.19750
       9     H     0.42301  0.42301  0.00000  0.15398
      10     C     2.95124  2.95124  0.00000  0.09751
      11     H     0.42304  0.42304  0.00000  0.15391
      12     C     2.88244  2.88244  0.00000  0.23511
      13     C     3.14973  3.14973  0.00000 -0.29946
      14     O     4.16611  4.16611  0.00000 -0.33221
      15     H     0.44704  0.44704  0.00000  0.10592
      16     H     0.43622  0.43622  0.00000  0.12756
      17     H     0.44702  0.44702  0.00000  0.10596

   Total alpha = 32.00000, Total beta = 32.00000, Total charge =  0.00000
