  ==> Input File <==

--------------------------------------------------------------------------
set {
	reference rhf
	basis 6-31G*
}

set_num_threads( 4 )
memory 2 gb

molecule MOL {
0 1

O	 1.294414	 3.818495	 -1.485068
C	 0.427249	 3.957442	 -2.292209
C	 -0.842503	 3.125537	 -2.267655
C	 0.539595	 4.981992	 -3.402538
C	 -0.899083	 2.110765	 -1.129556
H	 -1.688249	 3.809929	 -2.215598
H	 -0.933486	 2.627749	 -3.232192
C	 -2.191476	 1.292583	 -1.137288
H	 -0.797684	 2.631956	 -0.182874
H	 -0.042230	 1.448276	 -1.200689
C	 -2.259874	 0.272531	 0.000494
H	 -3.046757	 1.963333	 -1.069198
H	 -2.287665	 0.773835	 -2.090029
C	 -3.549786	 -0.549746	 -0.000374
H	 -2.164530	 0.790068	 0.953428
H	 -1.405831	 -0.399065	 -0.067079
C	 -4.809590	 0.315458	 -0.000369
H	 -3.560515	 -1.202009	 -0.871156
H	 -3.561123	 -1.202955	 0.869711
H	 -4.844746	 0.956611	 -0.876632
H	 -5.706986	 -0.295590	 -0.001609
H	 -4.845960	 0.954827	 0.877144
H	 -0.281895	 5.690450	 -3.349061
H	 1.478591	 5.510986	 -3.317170
H	 0.483863	 4.496725	 -4.372613

	symmetry c1
}
set optking {
	frozen_dihedral = ("
		15 11 14 18
	")
}

ee = optimize('scf')
oeprop('DIPOLE', 'QUADRUPOLE', 'MULLIKEN_CHARGES')
f=open( 'psi4out.xyz', 'w' )
f.write( "25  " )
f.write( str(ee) + "\n" )
f.write( MOL.save_string_xyz() )
f.close()
--------------------------------------------------------------------------

    Molecular point group: c1
  Charge       = 0
  Multiplicity = 1
  Basis Set: 6-31G*
  Basis Set:
  @DF-RHF Final Energy:  -387.13327533620594
    Total Energy =                       -387.1332753362055428
    Molecular point group: c1
  Basis Set: 6-31G*
  Basis Set:
  Basis Set: 6-31G*
  Basis Set:
  @DF-RHF Final Energy:  -387.13390768652738
    Total Energy =                       -387.1339076865274365
  Basis Set: 6-31G*
  Basis Set:
  Basis Set: 6-31G*
  Basis Set:
  @DF-RHF Final Energy:  -387.13458049516515
    Total Energy =                       -387.1345804951648688
  Basis Set: 6-31G*
  Basis Set:
  Basis Set: 6-31G*
  Basis Set:
  @DF-RHF Final Energy:  -387.13463435791590
    Total Energy =                       -387.1346343579157292
  Basis Set: 6-31G*
  Basis Set:
  @DF-RHF Final Energy:  -387.13458647864422
    Total Energy =                       -387.1345864786443371
  Basis Set: 6-31G*
  Basis Set:
  @DF-RHF Final Energy:  -387.13456828261576
    Total Energy =                       -387.1345682826156462
  Basis Set: 6-31G*
  Basis Set:
  Basis Set: 6-31G*
  Basis Set:
  @DF-RHF Final Energy:  -387.13464025733856
    Total Energy =                       -387.1346402573387877
  Basis Set: 6-31G*
  Basis Set:
  Basis Set: 6-31G*
  Basis Set:
  @DF-RHF Final Energy:  -387.13464279821727
    Total Energy =                       -387.1346427982169871
  Basis Set: 6-31G*
  Basis Set:
  Charge       = 0
  Multiplicity = 1
  Basis Set: 6-31G*
  Basis Set:

    Orbital Energies (a.u.)
    -----------------------

    Doubly Occupied:

       1A    -20.550461     2A    -11.326304     3A    -11.231871
       4A    -11.228347     5A    -11.216966     6A    -11.216291
       7A    -11.215755     8A    -11.213792     9A    -11.209033
      10A     -1.395766    11A     -1.093574    12A     -1.055617
      13A     -1.013517    14A     -0.967077    15A     -0.896517
      16A     -0.824334    17A     -0.777396    18A     -0.729501
      19A     -0.658553    20A     -0.652575    21A     -0.626259
      22A     -0.621581    23A     -0.606484    24A     -0.591376
      25A     -0.565475    26A     -0.556715    27A     -0.544182
      28A     -0.521449    29A     -0.512541    30A     -0.494118
      31A     -0.488947    32A     -0.476607    33A     -0.459620
      34A     -0.456501    35A     -0.451248    36A     -0.399500

  @DF-RHF Final Energy:  -387.13464314262075

   => Energetics <=

    Nuclear Repulsion Energy =            442.7298526763597124
    One-Electron Energy =               -1402.0373016072669543
    Two-Electron Energy =                 572.1728057882867233
    DFT Exchange-Correlation Energy =       0.0000000000000000
    Empirical Dispersion Energy =           0.0000000000000000
    PCM Polarization Energy =               0.0000000000000000
    EFP Energy =                            0.0000000000000000
    Total Energy =                       -387.1346431426204617
    Molecular point group: c1
  Basis Set: 6-31G*
  Basis Set:

  -Total Gradient:
     Atom            X                  Y                   Z
    ------   -----------------  -----------------  -----------------
       1       -0.000005945636     0.000008961932     0.000006002597
       2        0.000014448831    -0.000023349997    -0.000027992409
       3        0.000002560311     0.000010966572     0.000006356323
       4       -0.000001524201     0.000010274674     0.000008087690
       5       -0.000008133760     0.000012638856     0.000004433111
       6       -0.000001095522    -0.000000287095     0.000000221135
       7        0.000001863786     0.000002510999     0.000001109652
       8        0.000012961802    -0.000002233408     0.000008636631
       9        0.000002715207    -0.000001046530    -0.000002198234
      10       -0.000003470700    -0.000001454513     0.000000224341
      11       -0.001018351163     0.001413719759    -0.000645358033
      12        0.000011570626     0.000004158963    -0.000000685425
      13       -0.000007373984    -0.000006512928     0.000007979671
      14       -0.000898461482     0.001270067740    -0.001019031284
      15        0.000992445859    -0.001400831368     0.000679473803
      16        0.000015015280     0.000005481745     0.000000843977
      17       -0.000008151999    -0.000014642162    -0.000009324501
      18        0.000911254567    -0.001269071352     0.000981231653
      19       -0.000009865763    -0.000013018355     0.000003907570
      20       -0.000004554106    -0.000002729085     0.000000497403
      21       -0.000009143889     0.000000593335     0.000002702894
      22        0.000010453189    -0.000005471724    -0.000006096057
      23        0.000000120043     0.000001009377    -0.000001847239
      24        0.000000469057     0.000002093943    -0.000001490525
      25        0.000000193652    -0.000001829384     0.000002315258

  **** Optimization is complete! (in 9 steps) ****
    Final optimized geometry and variables:
    Molecular point group: c1

    Geometry (in Angstrom), charge = 0, multiplicity = 1:

    O            2.717885304220     1.608061004577    -0.216816219043
    C            1.841307115563     1.789509526552    -1.005122531989
    C            0.540558784545     1.007618252856    -0.963744395920
    C            1.972039012438     2.821120738102    -2.106874896255
    C            0.466505012087    -0.016717160633     0.164744226563
    H           -0.276343742060     1.724063850273    -0.887855245575
    H            0.411254265890     0.524396674509    -1.931324198798
    C           -0.856032000052    -0.786006818823     0.172764499664
    H            0.604109919925     0.490080046553     1.114776921983
    H            1.296679165570    -0.709541018532     0.071319389936
    C           -0.935688375512    -1.804667474817     1.311966799345
    H           -1.679396377139    -0.079960885582     0.248379810404
    H           -0.982238451083    -1.301996632970    -0.778575046224
    C           -2.178920968676    -2.701995335131     1.296672616627
    H           -0.875451516037    -1.289998877106     2.269454640545
    H           -0.056734772841    -2.444764466222     1.267621838714
    C           -3.513771736767    -1.957526152996     1.344332674444
    H           -2.146844456018    -3.346693455789     0.420635213904
    H           -2.122195789895    -3.369273617651     2.153593067577
    H           -3.682241214023    -1.366801017617     0.450080248078
    H           -4.340285221203    -2.655818247176     1.433097537473
    H           -3.556350941925    -1.286224180948     2.198071331212
    H            1.180357287571     3.560629661886    -2.029494562658
    H            2.932649957215     3.311920198713    -2.035006151857
    H            1.878048983079     2.349251747965    -3.080604454032

  Mulliken Charges: (a.u.)
   Center  Symbol    Alpha    Beta     Spin     Total
       1     O     4.26115  4.26115  0.00000 -0.52230
       2     C     2.73573  2.73573  0.00000  0.52854
       3     C     3.21076  3.21076  0.00000 -0.42152
       4     C     3.28665  3.28665  0.00000 -0.57330
       5     C     3.14786  3.14786  0.00000 -0.29572
       6     H     0.41007  0.41007  0.00000  0.17986
       7     H     0.41005  0.41005  0.00000  0.17991
       8     C     3.15590  3.15590  0.00000 -0.31180
       9     H     0.41214  0.41214  0.00000  0.17573
      10     H     0.41216  0.41216  0.00000  0.17568
      11     C     3.15268  3.15268  0.00000 -0.30536
      12     H     0.42234  0.42234  0.00000  0.15531
      13     H     0.42538  0.42538  0.00000  0.14923
      14     C     3.15212  3.15212  0.00000 -0.30424
      15     H     0.42265  0.42265  0.00000  0.15470
      16     H     0.42091  0.42091  0.00000  0.15819
      17     C     3.24166  3.24166  0.00000 -0.48331
      18     H     0.42350  0.42350  0.00000  0.15299
      19     H     0.42068  0.42068  0.00000  0.15864
      20     H     0.42063  0.42063  0.00000  0.15873
      21     H     0.41903  0.41903  0.00000  0.16193
      22     H     0.42206  0.42206  0.00000  0.15588
      23     H     0.40873  0.40873  0.00000  0.18253
      24     H     0.39645  0.39645  0.00000  0.20709
      25     H     0.40871  0.40871  0.00000  0.18258

   Total alpha = 36.00000, Total beta = 36.00000, Total charge = -0.00000
