  ==> Input File <==

--------------------------------------------------------------------------
set {
	reference rhf
	basis 6-31G*
}

set_num_threads( 4 )
memory 2 gb

molecule MOL {
0 1

H	 2.741897	 0.250628	 0.910993
C	 1.951159	 -0.223429	 0.317018
C	 0.692068	 0.589600	 0.160137
O	 2.121299	 -1.302907	 -0.149789
C	 -0.558097	 -0.297372	 0.091132
H	 0.791645	 1.202255	 -0.728243
H	 0.616171	 1.253469	 1.020572
C	 -1.850991	 0.512573	 -0.019058
H	 -0.476753	 -0.965681	 -0.762987
H	 -0.604799	 -0.930658	 0.975228
C	 -3.096943	 -0.368295	 -0.099594
H	 -1.800724	 1.150330	 -0.898172
H	 -1.931651	 1.177355	 0.838044
H	 -3.060452	 -1.020287	 -0.967456
H	 -3.996858	 0.233488	 -0.175704
H	 -3.191959	 -0.995686	 0.782074

	symmetry c1
}
set optking {
	frozen_dihedral = ("
		4 2 3 6
	")
}

ee = optimize('scf')
oeprop('DIPOLE', 'QUADRUPOLE', 'MULLIKEN_CHARGES')
f=open( 'psi4out.xyz', 'w' )
f.write( "16  " )
f.write( str(ee) + "\n" )
f.write( MOL.save_string_xyz() )
f.close()
--------------------------------------------------------------------------

    Molecular point group: c1
  Charge       = 0
  Multiplicity = 1
  Basis Set: 6-31G*
  Basis Set:
  @DF-RHF Final Energy:  -270.01927493915287
    Total Energy =                       -270.0192749391528650
    Molecular point group: c1
  Basis Set: 6-31G*
  Basis Set:
  Basis Set: 6-31G*
  Basis Set:
  @DF-RHF Final Energy:  -270.01921463081987
    Total Energy =                       -270.0192146308200449
  Basis Set: 6-31G*
  Basis Set:
  Basis Set: 6-31G*
  Basis Set:
  @DF-RHF Final Energy:  -270.01904008494387
    Total Energy =                       -270.0190400849437538
  Basis Set: 6-31G*
  Basis Set:
  Basis Set: 6-31G*
  Basis Set:
  @DF-RHF Final Energy:  -270.01995088430829
    Total Energy =                       -270.0199508843082867
  Basis Set: 6-31G*
  Basis Set:
  Basis Set: 6-31G*
  Basis Set:
  @DF-RHF Final Energy:  -270.01983647188899
    Total Energy =                       -270.0198364718887092
  Basis Set: 6-31G*
  Basis Set:
  Basis Set: 6-31G*
  Basis Set:
  @DF-RHF Final Energy:  -270.01996201445627
    Total Energy =                       -270.0199620144560981
  Basis Set: 6-31G*
  Basis Set:
  Charge       = 0
  Multiplicity = 1
  Basis Set: 6-31G*
  Basis Set:

    Orbital Energies (a.u.)
    -----------------------

    Doubly Occupied:

       1A    -20.563400     2A    -11.328459     3A    -11.236766
       4A    -11.223932     5A    -11.222891     6A    -11.212887
       7A     -1.403783     8A     -1.088915     9A     -1.014650
      10A     -0.907360    11A     -0.813725    12A     -0.773967
      13A     -0.678084    14A     -0.651880    15A     -0.628456
      16A     -0.598812    17A     -0.583470    18A     -0.539071
      19A     -0.527014    20A     -0.499291    21A     -0.481447
      22A     -0.478821    23A     -0.472281    24A     -0.409944

  @DF-RHF Final Energy:  -270.01996258861044

   => Energetics <=

    Nuclear Repulsion Energy =            231.5823166332344840
    One-Electron Energy =                -824.5259425252878600
    Two-Electron Energy =                 322.9236633034429360
    DFT Exchange-Correlation Energy =       0.0000000000000000
    Empirical Dispersion Energy =           0.0000000000000000
    PCM Polarization Energy =               0.0000000000000000
    EFP Energy =                            0.0000000000000000
    Total Energy =                       -270.0199625886104968
    Molecular point group: c1
  Basis Set: 6-31G*
  Basis Set:

  -Total Gradient:
     Atom            X                  Y                   Z
    ------   -----------------  -----------------  -----------------
       1       -0.000019438297     0.000015652054    -0.000001255905
       2       -0.001219803986    -0.001648541851     0.002392367428
       3        0.001347830777     0.002185441173     0.000501062372
       4        0.000685373396     0.000938919691    -0.001799182842
       5        0.000046247669     0.000024147104     0.000037266728
       6       -0.000831589145    -0.001483133813    -0.001111941068
       7       -0.000003153846    -0.000022636039     0.000044866056
       8       -0.000002734653     0.000000077507    -0.000041120459
       9        0.000020900908     0.000005450797    -0.000036569418
      10       -0.000017627288    -0.000009684190    -0.000016444886
      11       -0.000010668979     0.000003030082     0.000050715744
      12       -0.000013332763    -0.000021114890    -0.000013125014
      13        0.000018081715     0.000010869721    -0.000020164611
      14        0.000005174728     0.000017687510    -0.000003417235
      15       -0.000001526262    -0.000001210679     0.000016783242
      16       -0.000003733977    -0.000014954175     0.000000159867

  **** Optimization is complete! (in 7 steps) ****
    Final optimized geometry and variables:
    Molecular point group: c1

    Geometry (in Angstrom), charge = 0, multiplicity = 1:

    H            2.926400687087     0.465205718363     0.783586162907
    C            2.099724971848    -0.023282724937     0.256051563793
    C            0.813614421103     0.765725363978     0.176383568220
    O            2.262780098482    -1.087985475669    -0.246599178145
    C           -0.435550862508    -0.111198497511     0.075383557153
    H            0.893600765132     1.389646692267    -0.714174432025
    H            0.756629155264     1.441762551298     1.025246687911
    C           -1.719018817582     0.707228749288    -0.071278041424
    H           -0.325737793563    -0.783548125721    -0.768199936054
    H           -0.503949562043    -0.739577825472     0.960096481326
    C           -2.969640117122    -0.166879532942    -0.155180886829
    H           -1.652081733580     1.327301332112    -0.962880655286
    H           -1.813030146139     1.391254178542     0.769690328693
    H           -2.921408017586    -0.837934388132    -1.007719564638
    H           -3.864734136057     0.438177241059    -0.259569958373
    H           -3.083196295098    -0.775129743034     0.737530323641

  Mulliken Charges: (a.u.)
   Center  Symbol    Alpha    Beta     Spin     Total
       1     H     0.42647  0.42647  0.00000  0.14706
       2     C     2.83905  2.83905  0.00000  0.32191
       3     C     3.21029  3.21029  0.00000 -0.42059
       4     O     4.23730  4.23730  0.00000 -0.47459
       5     C     3.15167  3.15167  0.00000 -0.30333
       6     H     0.40303  0.40303  0.00000  0.19394
       7     H     0.41295  0.41295  0.00000  0.17410
       8     C     3.15334  3.15334  0.00000 -0.30668
       9     H     0.40511  0.40511  0.00000  0.18977
      10     H     0.41767  0.41767  0.00000  0.16467
      11     C     3.23973  3.23973  0.00000 -0.47947
      12     H     0.42228  0.42228  0.00000  0.15545
      13     H     0.42330  0.42330  0.00000  0.15340
      14     H     0.41912  0.41912  0.00000  0.16175
      15     H     0.41835  0.41835  0.00000  0.16330
      16     H     0.42035  0.42035  0.00000  0.15930

   Total alpha = 24.00000, Total beta = 24.00000, Total charge =  0.00000
