  ==> Input File <==

--------------------------------------------------------------------------
set {
	reference rhf
	basis 6-31G*
}

set_num_threads( 1 )
memory 2 gb

molecule MOL {
0 1

H	 -6.149177	 -2.810436	 0.826246
O	 -6.278545	 -3.213058	 1.672550
C	 -5.245738	 -4.132228	 1.922529
C	 -3.910411	 -3.465767	 2.234714
H	 -5.570904	 -4.715836	 2.774199
H	 -5.135156	 -4.818555	 1.083776
C	 -3.335482	 -2.650201	 1.074035
H	 -4.039692	 -2.824392	 3.102638
H	 -3.201607	 -4.242495	 2.516952
C	 -1.969860	 -2.039010	 1.400135
H	 -4.033630	 -1.859857	 0.812669
H	 -3.240558	 -3.288215	 0.195247
C	 -1.309753	 -1.282496	 0.241564
H	 -2.070986	 -1.371890	 2.254284
H	 -1.300506	 -2.836283	 1.716395
C	 -2.037799	 -0.007733	 -0.193645
H	 -0.296805	 -1.018896	 0.538665
H	 -1.209398	 -1.950182	 -0.612814
C	 -3.489788	 0.042957	 0.286558
H	 -2.017067	 0.064384	 -1.280144
H	 -1.513726	 0.868678	 0.179924
C	 -4.216917	 1.317354	 -0.141063
H	 -4.025645	 -0.823308	 -0.095450
H	 -3.513059	 -0.038752	 1.371301
H	 -4.239342	 1.411634	 -1.223113
H	 -5.243387	 1.322503	 0.212445
H	 -3.726170	 2.201406	 0.256408

	symmetry c1
}
set optking {
	frozen_dihedral = ("
		14 10 7 4,
		14 10 13 16,
		10 7 4 8,
		8 4 3 2,
		20 16 19 22,
		4 3 2 1
	")
}

ee = energy('scf')
oeprop('DIPOLE', 'QUADRUPOLE', 'MULLIKEN_CHARGES')
f=open( 'psi4out.xyz', 'w' )
f.write( "27  " )
f.write( str(ee) + "\n" )
f.write( MOL.save_string_xyz() )
f.close()
--------------------------------------------------------------------------

    Molecular point group: c1

    Geometry (in Angstrom), charge = 0, multiplicity = 1:

       Center              X                  Y                   Z               Mass
    ------------   -----------------  -----------------  -----------------  -----------------
           H         -2.555897275773    -1.081950867610    -0.121950858631     1.007825032070
           O         -2.685265275773    -1.484572867610     0.724353141369    15.994914619560
           C         -1.652458275773    -2.403742867610     0.974332141369    12.000000000000
           C         -0.317131275773    -1.737281867610     1.286517141369    12.000000000000
           H         -1.977624275773    -2.987350867610     1.826002141369     1.007825032070
           H         -1.541876275773    -3.090069867610     0.135579141369     1.007825032070
           C          0.257797724227    -0.921715867610     0.125838141369    12.000000000000
           H         -0.446412275773    -1.095906867610     2.154441141369     1.007825032070
           H          0.391672724227    -2.514009867610     1.568755141369     1.007825032070
           C          1.623419724227    -0.310524867610     0.451938141369    12.000000000000
           H         -0.440350275773    -0.131371867610    -0.135527858631     1.007825032070
           H          0.352721724227    -1.559729867610    -0.752949858631     1.007825032070
           C          2.283526724227     0.445989132390    -0.706632858631    12.000000000000
           H          1.522293724227     0.356595132390     1.306087141369     1.007825032070
           H          2.292773724227    -1.107797867610     0.768198141369     1.007825032070
           C          1.555480724227     1.720752132390    -1.141841858631    12.000000000000
           H          3.296474724227     0.709589132390    -0.409531858631     1.007825032070
           H          2.383881724227    -0.221696867610    -1.561010858631     1.007825032070
           C          0.103491724227     1.771442132390    -0.661638858631    12.000000000000
           H          1.576212724227     1.792869132390    -2.228340858631     1.007825032070
           H          2.079553724227     2.597163132390    -0.768272858631     1.007825032070
           C         -0.623637275773     3.045839132390    -1.089259858631    12.000000000000
           H         -0.432365275773     0.905177132390    -1.043646858631     1.007825032070
           H          0.080220724227     1.689733132390     0.423104141369     1.007825032070
           H         -0.646062275773     3.140119132390    -2.171309858631     1.007825032070
           H         -1.650107275773     3.050988132390    -0.735751858631     1.007825032070
           H         -0.132890275773     3.929891132390    -0.691788858631     1.007825032070

  Charge       = 0
  Multiplicity = 1
  Basis Set: 6-31G*
  Basis Set:

    Orbital Energies (a.u.)
    -----------------------

    Doubly Occupied:

       1A    -20.552442     2A    -11.265945     3A    -11.216746
       4A    -11.215250     5A    -11.214723     6A    -11.214103
       7A    -11.212251     8A    -11.209609     9A    -11.208282
      10A     -1.358944    11A     -1.103405    12A     -1.054790
      13A     -1.009396    14A     -0.952007    15A     -0.892020
      16A     -0.838690    17A     -0.789524    18A     -0.776168
      19A     -0.693366    20A     -0.654691    21A     -0.639091
      22A     -0.617992    23A     -0.598865    24A     -0.589076
      25A     -0.574606    26A     -0.569208    27A     -0.536825
      28A     -0.521307    29A     -0.505041    30A     -0.503921
      31A     -0.495927    32A     -0.480891    33A     -0.462232
      34A     -0.451144    35A     -0.444611    36A     -0.426004
      37A     -0.418948

  @DF-RHF Final Energy:  -388.24362627643376

   => Energetics <=

    Nuclear Repulsion Energy =            484.4110688172305004
    One-Electron Energy =               -1486.7739757555698361
    Two-Electron Energy =                 614.1192806619071689
    DFT Exchange-Correlation Energy =       0.0000000000000000
    Empirical Dispersion Energy =           0.0000000000000000
    PCM Polarization Energy =               0.0000000000000000
    EFP Energy =                            0.0000000000000000
    Total Energy =                       -388.2436262764322237

  Mulliken Charges: (a.u.)
   Center  Symbol    Alpha    Beta     Spin     Total
       1     H     0.27983  0.27983  0.00000  0.44033
       2     O     4.37073  4.37073  0.00000 -0.74147
       3     C     2.99769  2.99769  0.00000  0.00463
       4     C     3.15867  3.15867  0.00000 -0.31734
       5     H     0.41459  0.41459  0.00000  0.17081
       6     H     0.43219  0.43219  0.00000  0.13561
       7     C     3.16427  3.16427  0.00000 -0.32854
       8     H     0.41718  0.41718  0.00000  0.16564
       9     H     0.42571  0.42571  0.00000  0.14858
      10     C     3.15999  3.15999  0.00000 -0.31998
      11     H     0.41998  0.41998  0.00000  0.16004
      12     H     0.42759  0.42759  0.00000  0.14482
      13     C     3.15637  3.15637  0.00000 -0.31275
      14     H     0.42066  0.42066  0.00000  0.15868
      15     H     0.41925  0.41925  0.00000  0.16150
      16     C     3.15006  3.15006  0.00000 -0.30013
      17     H     0.41855  0.41855  0.00000  0.16290
      18     H     0.42220  0.42220  0.00000  0.15559
      19     C     3.16746  3.16746  0.00000 -0.33492
      20     H     0.42091  0.42091  0.00000  0.15817
      21     H     0.42053  0.42053  0.00000  0.15893
      22     C     3.23618  3.23618  0.00000 -0.47236
      23     H     0.41881  0.41881  0.00000  0.16238
      24     H     0.41617  0.41617  0.00000  0.16766
      25     H     0.42267  0.42267  0.00000  0.15467
      26     H     0.41967  0.41967  0.00000  0.16066
      27     H     0.42206  0.42206  0.00000  0.15589

   Total alpha = 37.00000, Total beta = 37.00000, Total charge = -0.00000
