  ==> Input File <==

--------------------------------------------------------------------------
set {
	reference rhf
	basis 6-31G*
}

set_num_threads( 4 )
memory 2 gb

molecule MOL {
0 1

H	 -3.417878	 0.329358	 -0.381068
C	 -3.032894	 0.674307	 -1.348756
C	 -2.084600	 1.844010	 -1.277020
O	 -3.368772	 0.133795	 -2.352142
C	 -0.930889	 1.606897	 -0.292650
H	 -1.719715	 2.050382	 -2.276509
H	 -2.664151	 2.705921	 -0.948562
C	 0.029978	 0.499864	 -0.733684
H	 -0.381433	 2.536354	 -0.176493
H	 -1.336965	 1.370728	 0.689736
C	 1.180775	 0.282413	 0.250794
H	 0.432338	 0.747461	 -1.713811
H	 -0.515296	 -0.433610	 -0.859553
C	 2.148627	 -0.814315	 -0.201312
H	 1.715135	 1.220169	 0.380430
H	 0.775219	 0.023061	 1.227853
C	 3.580890	 -0.659131	 0.322722
H	 2.166869	 -0.852443	 -1.289387
H	 1.762857	 -1.776509	 0.128956
C	 4.324889	 0.564933	 -0.213704
H	 4.142010	 -1.551473	 0.056605
H	 3.564836	 -0.624694	 1.410140
H	 4.342616	 0.565491	 -1.300421
H	 3.866655	 1.493402	 0.110242
H	 5.353900	 0.572371	 0.132816

	symmetry c1
}
set optking {
	frozen_dihedral = ("
		8 11 14 18
	")
}

ee = optimize('scf')
oeprop('DIPOLE', 'QUADRUPOLE', 'MULLIKEN_CHARGES')
f=open( 'psi4out.xyz', 'w' )
f.write( "25  " )
f.write( str(ee) + "\n" )
f.write( MOL.save_string_xyz() )
f.close()
--------------------------------------------------------------------------

    Molecular point group: c1
  Charge       = 0
  Multiplicity = 1
  Basis Set: 6-31G*
  Basis Set:
  @DF-RHF Final Energy:  -387.11925852444898
    Total Energy =                       -387.1192585244482416
    Molecular point group: c1
  Basis Set: 6-31G*
  Basis Set:
  Basis Set: 6-31G*
  Basis Set:
  @DF-RHF Final Energy:  -387.11933096539104
    Total Energy =                       -387.1193309653911001
  Basis Set: 6-31G*
  Basis Set:
  Basis Set: 6-31G*
  Basis Set:
  @DF-RHF Final Energy:  -387.11953351712134
    Total Energy =                       -387.1195335171212264
  Basis Set: 6-31G*
  Basis Set:
  Basis Set: 6-31G*
  Basis Set:
  @DF-RHF Final Energy:  -387.11963441522471
    Total Energy =                       -387.1196344152244819
  Basis Set: 6-31G*
  Basis Set:
  @DF-RHF Final Energy:  -387.11967428488526
    Total Energy =                       -387.1196742848856047
  Basis Set: 6-31G*
  Basis Set:
  @DF-RHF Final Energy:  -387.11969076294787
    Total Energy =                       -387.1196907629475845
  Basis Set: 6-31G*
  Basis Set:
  Basis Set: 6-31G*
  Basis Set:
  @DF-RHF Final Energy:  -387.11971149537919
    Total Energy =                       -387.1197114953783966
  Basis Set: 6-31G*
  Basis Set:
  Basis Set: 6-31G*
  Basis Set:
  @DF-RHF Final Energy:  -387.11970978617359
    Total Energy =                       -387.1197097861734164
  Basis Set: 6-31G*
  Basis Set:
  Charge       = 0
  Multiplicity = 1
  Basis Set: 6-31G*
  Basis Set:

    Orbital Energies (a.u.)
    -----------------------

    Doubly Occupied:

       1A    -20.561971     2A    -11.326137     3A    -11.235272
       4A    -11.234635     5A    -11.224108     6A    -11.219770
       7A    -11.218406     8A    -11.216770     9A    -11.210800
      10A     -1.401915    11A     -1.103534    12A     -1.069260
      13A     -1.013347    14A     -0.942646    15A     -0.874778
      16A     -0.819628    17A     -0.788482    18A     -0.783432
      19A     -0.664172    20A     -0.661565    21A     -0.630648
      22A     -0.625915    23A     -0.605287    24A     -0.592131
      25A     -0.574701    26A     -0.550452    27A     -0.535554
      28A     -0.523087    29A     -0.509914    30A     -0.495800
      31A     -0.489847    32A     -0.481460    33A     -0.464824
      34A     -0.456580    35A     -0.441029    36A     -0.409533

  @DF-RHF Final Energy:  -387.11971039085159

   => Energetics <=

    Nuclear Repulsion Energy =            439.7262252012171189
    One-Electron Energy =               -1395.7770907475880904
    Two-Electron Energy =                 568.9311551555194910
    DFT Exchange-Correlation Energy =       0.0000000000000000
    Empirical Dispersion Energy =           0.0000000000000000
    PCM Polarization Energy =               0.0000000000000000
    EFP Energy =                            0.0000000000000000
    Total Energy =                       -387.1197103908514237
    Molecular point group: c1
  Basis Set: 6-31G*
  Basis Set:

  -Total Gradient:
     Atom            X                  Y                   Z
    ------   -----------------  -----------------  -----------------
       1       -0.000029919570     0.000015549498    -0.000001705644
       2        0.000000586793    -0.000017423455     0.000069015126
       3       -0.000020108391     0.000023087549    -0.000041783212
       4       -0.000018101168     0.000032458112    -0.000003349265
       5       -0.000036647788    -0.000090084031     0.000097817024
       6        0.000025175793    -0.000050197737    -0.000012926280
       7        0.000053796390     0.000017695595    -0.000011237497
       8        0.001586501713     0.001919114541    -0.001387844155
       9       -0.000040585907     0.000021645970     0.000005102188
      10       -0.000013965385    -0.000039049242    -0.000025129539
      11       -0.002678697551    -0.003137262362     0.001805416498
      12       -0.000011819668     0.000005929057    -0.000028292703
      13        0.000045635397    -0.000002557088     0.000003838613
      14        0.003935942823     0.003773390543    -0.000476228244
      15        0.000017424784    -0.000024132176    -0.000017497017
      16       -0.000018303468    -0.000022586899     0.000014812640
      17       -0.000011416706     0.000036957472    -0.000050446590
      18       -0.002750512900    -0.002434232186     0.000015581090
      19        0.000020478345    -0.000009909322     0.000060509025
      20       -0.000015256073     0.000018824592     0.000031200027
      21       -0.000020606283    -0.000016286856    -0.000034481357
      22       -0.000010672380     0.000007435180    -0.000011085381
      23       -0.000007199095    -0.000010786212     0.000000066830
      24        0.000000156772    -0.000010964873    -0.000018706386
      25       -0.000001886464    -0.000006615670     0.000017354215

  **** Optimization is complete! (in 9 steps) ****
    Final optimized geometry and variables:
    Molecular point group: c1

    Geometry (in Angstrom), charge = 0, multiplicity = 1:

    H           -3.648034158619    -0.206102293638     0.214063924056
    C           -3.249786603078     0.194159089787    -0.726673130147
    C           -2.331406653965     1.380280983676    -0.576528978667
    O           -3.555952708438    -0.300244948057    -1.762850098546
    C           -1.192041310900     1.120937657368     0.419047786207
    H           -1.951592421614     1.644781707044    -1.556639319590
    H           -2.938049821035     2.210976567427    -0.218249989166
    C           -0.183304176442     0.076836045381    -0.065542972900
    H           -0.678124455819     2.059450532654     0.606298316073
    H           -1.611266467767     0.810058932807     1.374491876905
    C            0.967945844054    -0.142692431590     0.917770662485
    H            0.222352713677     0.390120023261    -1.024877557585
    H           -0.690316289694    -0.869557013739    -0.247858798010
    C            1.946348067459    -1.238593348061     0.466335968347
    H            1.494443134944     0.800931323065     1.038991018454
    H            0.574535043410    -0.393914498865     1.900350413541
    C            3.367096452547    -1.100674036474     1.023780533116
    H            1.975251334384    -1.282438351992    -0.620812106275
    H            1.544046800268    -2.201341130238     0.774589960091
    C            4.180958605057     0.032086721209     0.395624548653
    H            3.896481618728    -2.036518310440     0.864353248474
    H            3.318024146666    -0.960460299146     2.101878676802
    H            4.281669617273    -0.112242526182    -0.676470061671
    H            3.722962172737     1.002752266479     0.555885193974
    H            5.180085263252     0.070553009575     0.818664860931

  Mulliken Charges: (a.u.)
   Center  Symbol    Alpha    Beta     Spin     Total
       1     H     0.43259  0.43259  0.00000  0.13481
       2     C     2.83077  2.83077  0.00000  0.33846
       3     C     3.20822  3.20822  0.00000 -0.41645
       4     O     4.23774  4.23774  0.00000 -0.47548
       5     C     3.16693  3.16693  0.00000 -0.33387
       6     H     0.39971  0.39971  0.00000  0.20059
       7     H     0.40658  0.40658  0.00000  0.18684
       8     C     3.15597  3.15597  0.00000 -0.31194
       9     H     0.41299  0.41299  0.00000  0.17402
      10     H     0.41952  0.41952  0.00000  0.16096
      11     C     3.15427  3.15427  0.00000 -0.30855
      12     H     0.41757  0.41757  0.00000  0.16487
      13     H     0.41844  0.41844  0.00000  0.16312
      14     C     3.15533  3.15533  0.00000 -0.31067
      15     H     0.42170  0.42170  0.00000  0.15661
      16     H     0.42168  0.42168  0.00000  0.15664
      17     C     3.15380  3.15380  0.00000 -0.30760
      18     H     0.42134  0.42134  0.00000  0.15732
      19     H     0.42004  0.42004  0.00000  0.15992
      20     C     3.24039  3.24039  0.00000 -0.48078
      21     H     0.41997  0.41997  0.00000  0.16006
      22     H     0.42301  0.42301  0.00000  0.15399
      23     H     0.42123  0.42123  0.00000  0.15754
      24     H     0.42151  0.42151  0.00000  0.15698
      25     H     0.41870  0.41870  0.00000  0.16261

   Total alpha = 36.00000, Total beta = 36.00000, Total charge =  0.00000
