  ==> Input File <==

--------------------------------------------------------------------------
set {
	reference rhf
	basis 6-31G*
}

set_num_threads( 1 )
memory 2 gb

molecule MOL {
0 1

H	 -3.420663	 1.227371	 -1.044276
O	 -3.452007	 0.283848	 -0.965577
C	 -3.181085	 -0.079926	 0.364119
C	 -1.765924	 0.277073	 0.805136
H	 -3.327791	 -1.152017	 0.410903
H	 -3.905698	 0.375695	 1.036898
C	 -0.677594	 -0.417312	 -0.014550
H	 -1.637766	 1.358238	 0.744969
H	 -1.659588	 0.017670	 1.857098
C	 0.738335	 -0.034840	 0.421385
H	 -0.814977	 -0.178223	 -1.064632
H	 -0.802730	 -1.495410	 0.071702
C	 1.207345	 1.291284	 -0.183190
H	 0.771609	 0.019353	 1.506915
H	 1.431514	 -0.824378	 0.133746
C	 2.653221	 1.673990	 0.153167
H	 0.540931	 2.089480	 0.140028
H	 1.108535	 1.234478	 -1.265237
C	 2.904695	 1.970822	 1.632713
H	 2.920825	 2.552849	 -0.428455
H	 3.320949	 0.879578	 -0.174325
H	 2.241655	 2.753589	 1.991591
H	 3.925361	 2.305692	 1.790641
H	 2.750368	 1.095480	 2.254905

	symmetry c1
}
set optking {
	frozen_dihedral = ("
		20 16 13 17,
		17 13 10 7,
		11 7 4 3,
		1 2 3 5,
		7 4 3 2
	")
}

ee = energy('scf')
oeprop('DIPOLE', 'QUADRUPOLE', 'MULLIKEN_CHARGES')
f=open( 'psi4out.xyz', 'w' )
f.write( "24  " )
f.write( str(ee) + "\n" )
f.write( MOL.save_string_xyz() )
f.close()
--------------------------------------------------------------------------

    Molecular point group: c1

    Geometry (in Angstrom), charge = 0, multiplicity = 1:

       Center              X                  Y                   Z               Mass
    ------------   -----------------  -----------------  -----------------  -----------------
           H         -3.169223623981     0.598120917086    -1.308879732800     1.007825032070
           O         -3.200567623981    -0.345402082914    -1.230180732800    15.994914619560
           C         -2.929645623981    -0.709176082914     0.099515267200    12.000000000000
           C         -1.514484623981    -0.352177082914     0.540532267200    12.000000000000
           H         -3.076351623981    -1.781267082914     0.146299267200     1.007825032070
           H         -3.654258623981    -0.253555082914     0.772294267200     1.007825032070
           C         -0.426154623981    -1.046562082914    -0.279153732800    12.000000000000
           H         -1.386326623981     0.728987917086     0.480365267200     1.007825032070
           H         -1.408148623981    -0.611580082914     1.592494267200     1.007825032070
           C          0.989774376019    -0.664090082914     0.156781267200    12.000000000000
           H         -0.563537623981    -0.807473082914    -1.329235732800     1.007825032070
           H         -0.551290623981    -2.124660082914    -0.192901732800     1.007825032070
           C          1.458784376019     0.662033917086    -0.447793732800    12.000000000000
           H          1.023048376019    -0.609897082914     1.242311267200     1.007825032070
           H          1.682953376019    -1.453628082914    -0.130857732800     1.007825032070
           C          2.904660376019     1.044739917086    -0.111436732800    12.000000000000
           H          0.792370376019     1.460229917086    -0.124575732800     1.007825032070
           H          1.359974376019     0.605227917086    -1.529840732800     1.007825032070
           C          3.156134376019     1.341571917086     1.368109267200    12.000000000000
           H          3.172264376019     1.923598917086    -0.693058732800     1.007825032070
           H          3.572388376019     0.250327917086    -0.438928732800     1.007825032070
           H          2.493094376019     2.124338917086     1.726987267200     1.007825032070
           H          4.176800376019     1.676441917086     1.526037267200     1.007825032070
           H          3.001807376019     0.466229917086     1.990301267200     1.007825032070

  Charge       = 0
  Multiplicity = 1
  Basis Set: 6-31G*
  Basis Set:

    Orbital Energies (a.u.)
    -----------------------

    Doubly Occupied:

       1A    -20.553424     2A    -11.267515     3A    -11.217153
       4A    -11.214917     5A    -11.212952     6A    -11.211843
       7A    -11.210590     8A    -11.208214     9A     -1.360010
      10A     -1.090153    11A     -1.047507    12A     -0.985091
      13A     -0.915736    14A     -0.852220    15A     -0.805899
      16A     -0.772212    17A     -0.679693    18A     -0.644249
      19A     -0.631921    20A     -0.615322    21A     -0.601598
      22A     -0.583488    23A     -0.566865    24A     -0.533339
      25A     -0.523692    26A     -0.510326    27A     -0.493507
      28A     -0.482547    29A     -0.468184    30A     -0.458704
      31A     -0.452940    32A     -0.443087    33A     -0.421069

  @DF-RHF Final Energy:  -349.24502718043846

   => Energetics <=

    Nuclear Repulsion Energy =            389.9429398283721184
    One-Electron Energy =               -1246.3040007044135109
    Two-Electron Energy =                 507.1160336956019137
    DFT Exchange-Correlation Energy =       0.0000000000000000
    Empirical Dispersion Energy =           0.0000000000000000
    PCM Polarization Energy =               0.0000000000000000
    EFP Energy =                            0.0000000000000000
    Total Energy =                       -349.2450271804394788

  Mulliken Charges: (a.u.)
   Center  Symbol    Alpha    Beta     Spin     Total
       1     H     0.28336  0.28336  0.00000  0.43327
       2     O     4.36833  4.36833  0.00000 -0.73665
       3     C     2.99598  2.99598  0.00000  0.00804
       4     C     3.17013  3.17013  0.00000 -0.34026
       5     H     0.41636  0.41636  0.00000  0.16728
       6     H     0.42835  0.42835  0.00000  0.14330
       7     C     3.15459  3.15459  0.00000 -0.30918
       8     H     0.42715  0.42715  0.00000  0.14570
       9     H     0.42225  0.42225  0.00000  0.15551
      10     C     3.15638  3.15638  0.00000 -0.31277
      11     H     0.41159  0.41159  0.00000  0.17682
      12     H     0.42134  0.42134  0.00000  0.15731
      13     C     3.15369  3.15369  0.00000 -0.30738
      14     H     0.42259  0.42259  0.00000  0.15482
      15     H     0.42114  0.42114  0.00000  0.15772
      16     C     3.15189  3.15189  0.00000 -0.30378
      17     H     0.42573  0.42573  0.00000  0.14855
      18     H     0.42123  0.42123  0.00000  0.15753
      19     C     3.24101  3.24101  0.00000 -0.48203
      20     H     0.42150  0.42150  0.00000  0.15700
      21     H     0.42300  0.42300  0.00000  0.15401
      22     H     0.42313  0.42313  0.00000  0.15375
      23     H     0.41932  0.41932  0.00000  0.16135
      24     H     0.41995  0.41995  0.00000  0.16010

   Total alpha = 33.00000, Total beta = 33.00000, Total charge =  0.00000
