                              Psi4 1.0.54 Driver

  ==> Input File <==

--------------------------------------------------------------------------
set {
	reference rhf
	basis cc-pvtz
}

set_num_threads( 4 )
memory 2 gb

molecule MOL {
0 1

O	 -2.749026	 1.208724	 -0.709634
C	 -2.628700	 0.079861	 -0.372569
C	 -3.764931	 -0.905925	 -0.333984
O	 -1.481217	 -0.452708	 0.001092
H	 -4.194322	 -0.975026	 -1.324403
H	 -3.442244	 -1.880150	 -0.003228
H	 -4.528854	 -0.524237	 0.329951
C	 -0.332055	 0.384012	 -0.000250
C	 0.892252	 -0.506059	 -0.000295
H	 -0.360822	 1.020205	 -0.874146
H	 -0.359817	 1.021310	 0.872861
C	 2.188199	 0.299473	 -0.001416
H	 0.857046	 -1.152781	 -0.871031
H	 0.857910	 -1.151798	 0.871202
C	 3.437151	 -0.577593	 -0.000991
H	 2.209565	 0.950707	 -0.871712
H	 2.210062	 0.952234	 0.867721
C	 4.732399	 0.226982	 -0.000914
H	 3.417321	 -1.229122	 -0.869998
H	 3.416993	 -1.228707	 0.868337
H	 4.797903	 0.863451	 -0.876963
H	 5.598517	 -0.424436	 -0.000420
H	 4.797415	 0.864118	 0.874691

	symmetry c1
}
set optking {
	frozen_dihedral = ("
		2 4 8 10
	")
}

ee,wfn = optimize('scf', return_wfn=True)
oeprop( wfn, 'DIPOLE', 'QUADRUPOLE', 'MULLIKEN_CHARGES')
f=open( 'psi4out.xyz', 'w' )
f.write( "23  " )
f.write( str(ee) + "\n" )
f.write( MOL.save_string_xyz() )
f.close()
--------------------------------------------------------------------------

    Molecular point group: c1
  Charge       = 0
  Multiplicity = 1
  Basis Set: CC-PVTZ
  Basis Set:
  @DF-RHF Final Energy:  -423.13421680362688
    Total Energy =                       -423.1342168036271687
    Molecular point group: c1
  Basis Set: CC-PVTZ
  Basis Set:
  Basis Set: CC-PVTZ
  Basis Set:
  @DF-RHF Final Energy:  -423.13391281192065
    Total Energy =                       -423.1339128119208226
  Basis Set: CC-PVTZ
  Basis Set:
  Basis Set: CC-PVTZ
  Basis Set:
  @DF-RHF Final Energy:  -423.13398649380326
    Total Energy =                       -423.1339864938032633
  Basis Set: CC-PVTZ
  Basis Set:
  Basis Set: CC-PVTZ
  Basis Set:
  @DF-RHF Final Energy:  -423.13430846339458
    Total Energy =                       -423.1343084633945182
  Basis Set: CC-PVTZ
  Basis Set:
  Charge       = 0
  Multiplicity = 1
  Basis Set: CC-PVTZ
  Basis Set:

    Orbital Energies (a.u.)
    -----------------------

    Doubly Occupied:

       1A    -20.595703     2A    -20.529342     3A    -11.366726
       4A    -11.279128     5A    -11.230534     6A    -11.222459
       7A    -11.221424     8A    -11.219525     9A    -11.210936
      10A     -1.470495    11A     -1.364099    12A     -1.095342
      13A     -1.043268    14A     -1.004171    15A     -0.931915
      16A     -0.843075    17A     -0.802890    18A     -0.776034
      19A     -0.695964    20A     -0.686785    21A     -0.670250
      22A     -0.648372    23A     -0.606828    24A     -0.589181
      25A     -0.584565    26A     -0.568271    27A     -0.558771
      28A     -0.538322    29A     -0.524111    30A     -0.506129
      31A     -0.491644    32A     -0.478348    33A     -0.471585
      34A     -0.468623    35A     -0.453232    36A     -0.438231

  @DF-RHF Final Energy:  -423.13431202027340

   => Energetics <=

    Nuclear Repulsion Energy =            450.4901352643993846
    One-Electron Energy =               -1468.8763374306861351
    Two-Electron Energy =                 595.2518901460133520
    DFT Exchange-Correlation Energy =       0.0000000000000000
    Empirical Dispersion Energy =           0.0000000000000000
    PCM Polarization Energy =               0.0000000000000000
    EFP Energy =                            0.0000000000000000
    Total Energy =                       -423.1343120202733417
    Molecular point group: c1
  Basis Set: CC-PVTZ
  Basis Set:

  -Total Gradient:
     Atom            X                  Y                   Z
    ------   -----------------  -----------------  -----------------
       1       -0.000001370048     0.000053956771    -0.000017571653
       2        0.000224284250    -0.000428984486    -0.001176592195
       3        0.000010496274     0.000023400146     0.000005168952
       4       -0.000503270484     0.000732842317     0.001878813299
       5       -0.000022750823    -0.000011464550    -0.000016894274
       6       -0.000003339379     0.000016492515    -0.000004413524
       7       -0.000035696685    -0.000009482012     0.000011347590
       8        0.001026172812    -0.001369615495    -0.001413946198
       9        0.000021813374     0.000005805888    -0.000002664952
      10       -0.000725223522     0.000971986320     0.000758053618
      11        0.000007001343     0.000006821617    -0.000007584013
      12       -0.000001794741    -0.000008989974    -0.000005137231
      13       -0.000001399029    -0.000001012143    -0.000001443168
      14       -0.000013927967     0.000013505126    -0.000001832944
      15        0.000007131172     0.000008292970    -0.000011800674
      16        0.000002049835     0.000002604499     0.000000283530
      17        0.000001059248    -0.000001990815     0.000000915558
      18        0.000005364293    -0.000005890540     0.000007020291
      19       -0.000000718992    -0.000001747986    -0.000002620035
      20       -0.000000046863     0.000001792069    -0.000000790835
      21       -0.000001562271    -0.000002587269    -0.000000440367
      22        0.000005211383     0.000001421809     0.000001477455
      23        0.000000516821     0.000002843224     0.000000651769

  **** Optimization is complete! (in 5 steps) ****
    Final optimized geometry and variables:
    Molecular point group: c1

    Geometry (in Angstrom), charge = 0, multiplicity = 1:

    O           -2.797921616639     1.218177830907    -0.523814622245
    C           -2.651137155066     0.085083215512    -0.212270582853
    C           -3.769372668946    -0.921710453636    -0.179776653305
    O           -1.492569297264    -0.433599032249     0.146922078292
    H           -4.208594909405    -0.979468087912    -1.166721961585
    H           -3.425818214208    -1.896100529092     0.128683881346
    H           -4.532542205461    -0.566424715517     0.499649060683
    C           -0.344428506664     0.404887317453     0.132000522454
    C            0.884809641466    -0.478144621199     0.144417555369
    H           -0.378994076512     1.041447549421    -0.739072918277
    H           -0.376253298193     1.045532535284     1.004663646892
    C            2.175975151239     0.334947133430     0.160120004091
    H            0.862690310593    -1.122215681245    -0.728872336710
    H            0.844648146828    -1.126929508003     1.013393086262
    C            3.429959682138    -0.534777083619     0.168455375827
    H            2.201835935583     0.990883391313    -0.706549919973
    H            2.185467041032     0.983245274877     1.032936136891
    C            4.720310056937     0.277449317261     0.185466048401
    H            3.422636406284    -1.181897055411    -0.704109110683
    H            3.405125932411    -1.190558288557     1.034226490202
    H            4.790652866529     0.918920351804    -0.686602565657
    H            5.590175300943    -0.368999409041     0.191081527797
    H            4.773031185404     0.910368138324     1.065026515337

  Mulliken Charges: (a.u.)
   Center  Symbol    Alpha    Beta     Spin     Total
       1     O     4.20288  4.20288  0.00000 -0.40576
       2     C     2.81327  2.81327  0.00000  0.37345
       3     C     3.14104  3.14104  0.00000 -0.28208
       4     O     4.14587  4.14587  0.00000 -0.29174
       5     H     0.44218  0.44218  0.00000  0.11563
       6     H     0.44192  0.44192  0.00000  0.11616
       7     H     0.44211  0.44211  0.00000  0.11578
       8     C     2.98047  2.98047  0.00000  0.03906
       9     C     3.08112  3.08112  0.00000 -0.16223
      10     H     0.44948  0.44948  0.00000  0.10104
      11     H     0.45617  0.45617  0.00000  0.08766
      12     C     3.09793  3.09793  0.00000 -0.19587
      13     H     0.45115  0.45115  0.00000  0.09770
      14     H     0.45045  0.45045  0.00000  0.09911
      15     C     3.08498  3.08498  0.00000 -0.16996
      16     H     0.45239  0.45239  0.00000  0.09522
      17     H     0.45325  0.45325  0.00000  0.09350
      18     C     3.14959  3.14959  0.00000 -0.29919
      19     H     0.45342  0.45342  0.00000  0.09316
      20     H     0.45353  0.45353  0.00000  0.09294
      21     H     0.45443  0.45443  0.00000  0.09113
      22     H     0.44768  0.44768  0.00000  0.10464
      23     H     0.45467  0.45467  0.00000  0.09067

   Total alpha = 36.00000, Total beta = 36.00000, Total charge =  0.00000

*** Psi4 exiting successfully. Buy a developer a beer!
