  ==> Input File <==

--------------------------------------------------------------------------
set {
	reference rhf
	basis 6-31G*
}

set_num_threads( 1 )
memory 2 gb

molecule MOL {
0 1

H	 1.436926	 -1.417607	 0.581422
O	 1.586534	 -0.678666	 -0.000226
C	 0.489431	 0.077273	 0.000046
C	 -0.764129	 -0.759190	 0.000191
O	 0.537743	 1.263962	 0.000257
C	 -2.038368	 0.075731	 -0.000248
H	 -0.717284	 -1.412404	 -0.866059
H	 -0.717458	 -1.411724	 0.866967
H	 -2.086483	 0.712501	 -0.875098
H	 -2.908485	 -0.571682	 -0.000042
H	 -2.086576	 0.713280	 0.874068

	symmetry c1
}
set optking {
	frozen_dihedral = ("
		2 3 4 7
	")
}

ee = energy('scf')
oeprop('DIPOLE', 'QUADRUPOLE', 'MULLIKEN_CHARGES')
f=open( 'psi4out.xyz', 'w' )
f.write( "11  " )
f.write( str(ee) + "\n" )
f.write( MOL.save_string_xyz() )
f.close()
--------------------------------------------------------------------------

    Molecular point group: c1

    Geometry (in Angstrom), charge = 0, multiplicity = 1:

       Center              X                  Y                   Z               Mass
    ------------   -----------------  -----------------  -----------------  -----------------
           H          1.449270121162    -1.399688651534     0.573504716059     1.007825032070
           O          1.598878121162    -0.660747651534    -0.008143283941    15.994914619560
           C          0.501775121162     0.095191348466    -0.007871283941    12.000000000000
           C         -0.751784878838    -0.741271651534    -0.007726283941    12.000000000000
           O          0.550087121162     1.281880348466    -0.007660283941    15.994914619560
           C         -2.026023878838     0.093649348466    -0.008165283941    12.000000000000
           H         -0.704939878838    -1.394485651534    -0.873976283941     1.007825032070
           H         -0.705113878838    -1.393805651534     0.859049716059     1.007825032070
           H         -2.074138878838     0.730419348466    -0.883015283941     1.007825032070
           H         -2.896140878838    -0.553763651534    -0.007959283941     1.007825032070
           H         -2.074231878838     0.731198348466     0.866150716059     1.007825032070

  Charge       = 0
  Multiplicity = 1
  Basis Set: 6-31G*
  Basis Set:

    Orbital Energies (a.u.)
    -----------------------

    Doubly Occupied:

       1A    -20.610329     2A    -20.555129     3A    -11.381705
       4A    -11.253464     5A    -11.225868     6A     -1.471149
       7A     -1.372216     8A     -1.070204     9A     -0.910232
      10A     -0.824185    11A     -0.718547    12A     -0.673659
      13A     -0.660342    14A     -0.618702    15A     -0.584777
      16A     -0.534905    17A     -0.524820    18A     -0.511320
      19A     -0.481151    20A     -0.444365

  @DF-RHF Final Energy:  -266.82861224971879

   => Energetics <=

    Nuclear Repulsion Energy =            180.0042709754534940
    One-Electron Energy =                -720.8116190294452963
    Two-Electron Energy =                 273.9787358042735832
    DFT Exchange-Correlation Energy =       0.0000000000000000
    Empirical Dispersion Energy =           0.0000000000000000
    PCM Polarization Energy =               0.0000000000000000
    EFP Energy =                            0.0000000000000000
    Total Energy =                       -266.8286122497181623

  Mulliken Charges: (a.u.)
   Center  Symbol    Alpha    Beta     Spin     Total
       1     H     0.26888  0.26888  0.00000  0.46223
       2     O     4.34920  4.34920  0.00000 -0.69840
       3     C     2.61776  2.61776  0.00000  0.76449
       4     C     3.22595  3.22595  0.00000 -0.45189
       5     O     4.26074  4.26074  0.00000 -0.52148
       6     C     3.23861  3.23861  0.00000 -0.47721
       7     H     0.39586  0.39586  0.00000  0.20828
       8     H     0.41255  0.41255  0.00000  0.17490
       9     H     0.40559  0.40559  0.00000  0.18883
      10     H     0.41708  0.41708  0.00000  0.16583
      11     H     0.40779  0.40779  0.00000  0.18443

   Total alpha = 20.00000, Total beta = 20.00000, Total charge =  0.00000
