                              Psi4 1.0.54 Driver

  ==> Input File <==

--------------------------------------------------------------------------
set {
	reference rhf
	basis cc-pvtz
}

set_num_threads( 4 )
memory 2 gb

molecule MOL {
0 1

H	 3.164730	 0.610698	 -1.384928
O	 2.241458	 0.460740	 -1.247897
C	 2.076458	 -0.067370	 -0.038225
C	 0.626018	 -0.337582	 0.258241
O	 2.988255	 -0.281554	 0.683296
C	 -0.267326	 0.883135	 0.076490
H	 0.325620	 -1.161483	 -0.378003
H	 0.574537	 -0.713685	 1.275261
C	 -1.726822	 0.642622	 0.463839
H	 -0.210803	 1.217591	 -0.953497
H	 0.129920	 1.693110	 0.675679
C	 -2.480891	 -0.340606	 -0.429852
H	 -2.243098	 1.597649	 0.438609
H	 -1.776542	 0.301208	 1.495542
C	 -3.955933	 -0.460128	 -0.060472
H	 -2.393755	 -0.020485	 -1.464726
H	 -2.024244	 -1.323637	 -0.374360
H	 -4.467673	 -1.160944	 -0.709827
H	 -4.458917	 0.497287	 -0.144505
H	 -4.076458	 -0.806900	 0.960497

	symmetry c1
}
set optking {
	frozen_dihedral = ("
		5 3 4 7
	")
}

ee,wfn = optimize('scf', return_wfn=True)
oeprop( wfn, 'DIPOLE', 'QUADRUPOLE', 'MULLIKEN_CHARGES')
f=open( 'psi4out.xyz', 'w' )
f.write( "20  " )
f.write( str(ee) + "\n" )
f.write( MOL.save_string_xyz() )
f.close()
--------------------------------------------------------------------------

    Molecular point group: c1
  Charge       = 0
  Multiplicity = 1
  Basis Set: CC-PVTZ
  Basis Set:
  @DF-RHF Final Energy:  -384.09324121023457
    Total Energy =                       -384.0932412102346802
    Molecular point group: c1
  Basis Set: CC-PVTZ
  Basis Set:
  Basis Set: CC-PVTZ
  Basis Set:
  @DF-RHF Final Energy:  -384.09269899874255
    Total Energy =                       -384.0926989987419802
  Basis Set: CC-PVTZ
  Basis Set:
  Basis Set: CC-PVTZ
  Basis Set:
  @DF-RHF Final Energy:  -384.09338015619676
    Total Energy =                       -384.0933801561967584
  Basis Set: CC-PVTZ
  Basis Set:
  Basis Set: CC-PVTZ
  Basis Set:
  @DF-RHF Final Energy:  -384.09354599305146
    Total Energy =                       -384.0935459930511229
  Basis Set: CC-PVTZ
  Basis Set:
  Basis Set: CC-PVTZ
  Basis Set:
  @DF-RHF Final Energy:  -384.09354744526712
    Total Energy =                       -384.0935474452677454
  Basis Set: CC-PVTZ
  Basis Set:
  Charge       = 0
  Multiplicity = 1
  Basis Set: CC-PVTZ
  Basis Set:

    Orbital Energies (a.u.)
    -----------------------

    Doubly Occupied:

       1A    -20.604357     2A    -20.538536     3A    -11.372343
       4A    -11.237582     5A    -11.229156     6A    -11.221871
       7A    -11.220448     8A    -11.212096     9A     -1.477003
      10A     -1.367389    11A     -1.100613    12A     -1.043481
      13A     -0.961968    14A     -0.864944    15A     -0.825918
      16A     -0.792269    17A     -0.703557    18A     -0.687291
      19A     -0.658315    20A     -0.632261    21A     -0.615297
      22A     -0.594503    23A     -0.577340    24A     -0.553205
      25A     -0.551216    26A     -0.517871    27A     -0.502194
      28A     -0.483982    29A     -0.479454    30A     -0.470629
      31A     -0.461029    32A     -0.437264

  @DF-RHF Final Energy:  -384.09354818883423

   => Energetics <=

    Nuclear Repulsion Energy =            377.3882522991608539
    One-Electron Energy =               -1270.9728320883818924
    Two-Electron Energy =                 509.4910316003868616
    DFT Exchange-Correlation Energy =       0.0000000000000000
    Empirical Dispersion Energy =           0.0000000000000000
    PCM Polarization Energy =               0.0000000000000000
    EFP Energy =                            0.0000000000000000
    Total Energy =                       -384.0935481888341769
    Molecular point group: c1
  Basis Set: CC-PVTZ
  Basis Set:

  -Total Gradient:
     Atom            X                  Y                   Z
    ------   -----------------  -----------------  -----------------
       1        0.000151033389     0.000096635716    -0.000168563388
       2       -0.000002050569    -0.000074492155     0.000207990214
       3       -0.000292792388     0.000860644641     0.000200391207
       4       -0.000145895850     0.000190117232    -0.000658284260
       5        0.000219451134    -0.000650033577    -0.000138289725
       6        0.000041177150     0.000049670198     0.000138394707
       7        0.000120873039    -0.000450528641     0.000520682880
       8       -0.000082430679    -0.000048980334    -0.000007913612
       9       -0.000044643442     0.000028495853    -0.000016607583
      10        0.000037515030     0.000022769201    -0.000001810354
      11       -0.000045799102    -0.000027477554    -0.000060340394
      12        0.000002431357     0.000012083563    -0.000030850748
      13       -0.000026360149     0.000015484858    -0.000005287108
      14        0.000012119150     0.000012467871     0.000004963267
      15        0.000024210917    -0.000014317786     0.000025040975
      16       -0.000004461525     0.000008565436    -0.000020521149
      17        0.000026394805    -0.000026774863     0.000004261204
      18        0.000011241694    -0.000008306344    -0.000004154587
      19        0.000009382844     0.000006249191    -0.000007002583
      20       -0.000011396794    -0.000002272505     0.000017901036

  **** Optimization is complete! (in 6 steps) ****
    Final optimized geometry and variables:
    Molecular point group: c1

    Geometry (in Angstrom), charge = 0, multiplicity = 1:

    H            3.231099649369     0.522189316262    -1.316694612501
    O            2.301258221566     0.399102706045    -1.197480815893
    C            2.098656349854    -0.135976976336     0.003096645936
    C            0.644242896908    -0.396946840589     0.287098458990
    O            2.992831497360    -0.387417913481     0.735744221674
    C           -0.249440090794     0.832376288493     0.095712711543
    H            0.336460491536    -1.200578233651    -0.372414121733
    H            0.585432578432    -0.763709181827     1.301930332891
    C           -1.702852825147     0.602410928703     0.511421806553
    H           -0.209764399760     1.150222912753    -0.939191225233
    H            0.153828030757     1.649459349276     0.685555179876
    C           -2.467541734626    -0.403001451211    -0.347581707032
    H           -2.219287511551     1.556975233552     0.470286486293
    H           -1.735240468215     0.286321850393     1.551261650294
    C           -3.935246669903    -0.519824715228     0.051000388569
    H           -2.399673229965    -0.106295508294    -1.390880470406
    H           -2.005567934430    -1.382408641241    -0.277222752872
    H           -4.453941554814    -1.240376902239    -0.570530311106
    H           -4.445109169812     0.432346303434    -0.049709413484
    H           -4.035991653787    -0.839992570348     1.082696937827

  Mulliken Charges: (a.u.)
   Center  Symbol    Alpha    Beta     Spin     Total
       1     H     0.38075  0.38075  0.00000  0.23850
       2     O     4.16253  4.16253  0.00000 -0.32506
       3     C     2.81091  2.81091  0.00000  0.37818
       4     C     3.08817  3.08817  0.00000 -0.17633
       5     O     4.19350  4.19350  0.00000 -0.38701
       6     C     3.10703  3.10703  0.00000 -0.21406
       7     H     0.44427  0.44427  0.00000  0.11147
       8     H     0.43561  0.43561  0.00000  0.12878
       9     C     3.09722  3.09722  0.00000 -0.19445
      10     H     0.44137  0.44137  0.00000  0.11725
      11     H     0.44262  0.44262  0.00000  0.11476
      12     C     3.08763  3.08763  0.00000 -0.17526
      13     H     0.44609  0.44609  0.00000  0.10781
      14     H     0.45152  0.45152  0.00000  0.09695
      15     C     3.14965  3.14965  0.00000 -0.29930
      16     H     0.45219  0.45219  0.00000  0.09562
      17     H     0.45350  0.45350  0.00000  0.09300
      18     H     0.44741  0.44741  0.00000  0.10518
      19     H     0.45378  0.45378  0.00000  0.09244
      20     H     0.45423  0.45423  0.00000  0.09153

   Total alpha = 32.00000, Total beta = 32.00000, Total charge = -0.00000

*** Psi4 exiting successfully. Buy a developer a beer!
