                              Psi4 1.0.54 Driver

  ==> Input File <==

--------------------------------------------------------------------------
set {
	reference rhf
	basis cc-pvtz
}

set_num_threads( 4 )
memory 2 gb

molecule MOL {
0 1

H	 2.025894	 -0.025717	 -1.109409
O	 1.675515	 -0.612943	 -0.465627
C	 1.135873	 0.113391	 0.608264
C	 0.027642	 1.012027	 0.090274
H	 1.902972	 0.727968	 1.072615
H	 0.756163	 -0.561896	 1.370018
C	 -1.138737	 0.285728	 -0.581921
H	 0.464661	 1.708096	 -0.618252
H	 -0.340737	 1.603071	 0.925246
C	 -1.933983	 -0.631436	 0.343653
H	 -0.763151	 -0.285569	 -1.422081
H	 -1.808359	 1.035291	 -0.992333
H	 -2.789188	 -1.049673	 -0.174718
H	 -1.335629	 -1.461368	 0.700418
H	 -2.305435	 -0.092167	 1.209725

	symmetry c1
}
set optking {
	frozen_dihedral = ("
		1 2 3 4
	")
}

ee,wfn = optimize('scf', return_wfn=True)
oeprop( wfn, 'DIPOLE', 'QUADRUPOLE', 'MULLIKEN_CHARGES')
f=open( 'psi4out.xyz', 'w' )
f.write( "15  " )
f.write( str(ee) + "\n" )
f.write( MOL.save_string_xyz() )
f.close()
--------------------------------------------------------------------------

    Molecular point group: c1
  Charge       = 0
  Multiplicity = 1
  Basis Set: CC-PVTZ
  Basis Set:
  @DF-RHF Final Energy:  -232.23557081334152
    Total Energy =                       -232.2355708133416101
    Molecular point group: c1
  Basis Set: CC-PVTZ
  Basis Set:
  Basis Set: CC-PVTZ
  Basis Set:
  @DF-RHF Final Energy:  -232.11392887056812
    Total Energy =                       -232.1139288705681452
  Basis Set: CC-PVTZ
  Basis Set:
  Basis Set: CC-PVTZ
  Basis Set:
  @DF-RHF Final Energy:  -232.20799493643023
    Total Energy =                       -232.2079949364302252
  Basis Set: CC-PVTZ
  Basis Set:
  Basis Set: CC-PVTZ
  Basis Set:
  @DF-RHF Final Energy:  -232.23644909033109
    Total Energy =                       -232.2364490903311207
  Basis Set: CC-PVTZ
  Basis Set:
  @DF-RHF Final Energy:  -232.23718168697886
    Total Energy =                       -232.2371816869787722
  Basis Set: CC-PVTZ
  Basis Set:
  @DF-RHF Final Energy:  -232.23734762427844
    Total Energy =                       -232.2373476242786410
  Basis Set: CC-PVTZ
  Basis Set:
  Basis Set: CC-PVTZ
  Basis Set:
  @DF-RHF Final Energy:  -232.23734339429402
    Total Energy =                       -232.2373433942938163
  Basis Set: CC-PVTZ
  Basis Set:
  Basis Set: CC-PVTZ
  Basis Set:
  @DF-RHF Final Energy:  -232.23736174521386
    Total Energy =                       -232.2373617452137751
  Basis Set: CC-PVTZ
  Basis Set:
  Charge       = 0
  Multiplicity = 1
  Basis Set: CC-PVTZ
  Basis Set:

    Orbital Energies (a.u.)
    -----------------------

    Doubly Occupied:

       1A    -20.546717     2A    -11.265185     3A    -11.216650
       4A    -11.212981     5A    -11.205465     6A     -1.364596
       7A     -1.068503     8A     -0.972465     9A     -0.877338
      10A     -0.789702    11A     -0.680296    12A     -0.642799
      13A     -0.633745    14A     -0.582825    15A     -0.566385
      16A     -0.540609    17A     -0.505990    18A     -0.486987
      19A     -0.472671    20A     -0.456243    21A     -0.430320

  @DF-RHF Final Energy:  -232.23736193040455

   => Energetics <=

    Nuclear Repulsion Energy =            191.6248040819178016
    One-Electron Energy =                -694.6873869465466669
    Two-Electron Energy =                 270.8252209342243191
    DFT Exchange-Correlation Energy =       0.0000000000000000
    Empirical Dispersion Energy =           0.0000000000000000
    PCM Polarization Energy =               0.0000000000000000
    EFP Energy =                            0.0000000000000000
    Total Energy =                       -232.2373619304045747
    Molecular point group: c1
  Basis Set: CC-PVTZ
  Basis Set:

  -Total Gradient:
     Atom            X                  Y                   Z
    ------   -----------------  -----------------  -----------------
       1       -0.000239512177    -0.000085890601    -0.000195014465
       2        0.000253835867     0.000197796624     0.000257135575
       3       -0.000174094915    -0.000207692343    -0.000025494177
       4        0.000149715689     0.000120559769    -0.000033146310
       5       -0.000004324596     0.000011561492     0.000015357859
       6        0.000010931252    -0.000020272806    -0.000015318211
       7       -0.000010813313     0.000018409973    -0.000020798827
       8        0.000009528625     0.000003434342     0.000004897534
       9        0.000013305809    -0.000025462694    -0.000003965667
      10       -0.000002310160    -0.000004761020     0.000019430334
      11       -0.000009597890     0.000014085552     0.000008634790
      12        0.000004787763    -0.000013348421     0.000007915483
      13       -0.000006283552    -0.000012095095    -0.000000219927
      14       -0.000003401361     0.000012702279    -0.000008302913
      15        0.000008232961    -0.000009027053    -0.000011111077

  **** Optimization is complete! (in 9 steps) ****
    Final optimized geometry and variables:
    Molecular point group: c1

    Geometry (in Angstrom), charge = 0, multiplicity = 1:

    H            2.307762829668    -0.165684507835    -0.400122228616
    O            1.792258000051    -0.520992411558     0.301257512316
    C            0.912579441939     0.456461106794     0.790228788117
    C           -0.055326337534     0.977420001604    -0.263324640124
    H            1.469474107900     1.290993454038     1.209160783408
    H            0.378805724449    -0.009263432202     1.606673615968
    C           -0.945402983365    -0.083174058782    -0.913469092625
    H            0.518208676731     1.480721010710    -1.039405031464
    H           -0.674286201602     1.743022988605     0.198480820068
    C           -1.932151767786    -0.750029995468     0.041245463270
    H           -0.321265543033    -0.842023736098    -1.371280297074
    H           -1.499620392767     0.387510638185    -1.719579423315
    H           -2.579136861122    -1.434758702863    -0.494745777668
    H           -1.425452346377    -1.319306073378     0.810860611769
    H           -2.563539467042    -0.014842770816     0.530441495009

  Mulliken Charges: (a.u.)
   Center  Symbol    Alpha    Beta     Spin     Total
       1     H     0.39440  0.39440  0.00000  0.21120
       2     O     4.20476  4.20476  0.00000 -0.40951
       3     C     2.97802  2.97802  0.00000  0.04397
       4     C     3.10872  3.10872  0.00000 -0.21744
       5     H     0.45982  0.45982  0.00000  0.08036
       6     H     0.45676  0.45676  0.00000  0.08648
       7     C     3.08035  3.08035  0.00000 -0.16069
       8     H     0.45314  0.45314  0.00000  0.09372
       9     H     0.45304  0.45304  0.00000  0.09393
      10     C     3.15476  3.15476  0.00000 -0.30952
      11     H     0.45239  0.45239  0.00000  0.09522
      12     H     0.45005  0.45005  0.00000  0.09989
      13     H     0.44664  0.44664  0.00000  0.10672
      14     H     0.45067  0.45067  0.00000  0.09867
      15     H     0.45649  0.45649  0.00000  0.08701

   Total alpha = 21.00000, Total beta = 21.00000, Total charge = -0.00000

*** Psi4 exiting successfully. Buy a developer a beer!
