  ==> Input File <==

--------------------------------------------------------------------------
set {
	reference rhf
	basis 6-31G*
}

set_num_threads( 4 )
memory 2 gb

molecule MOL {
0 1

H	 3.280409	 -0.507888	 -1.017400
N	 3.092854	 -0.246221	 -0.068770
C	 1.865559	 0.531981	 0.018834
H	 3.875945	 0.297054	 0.241796
C	 0.645745	 -0.382037	 -0.029944
H	 1.841966	 1.207024	 -0.831236
H	 1.815756	 1.155410	 0.915079
C	 -0.679275	 0.379305	 0.025956
H	 0.698998	 -0.976915	 -0.937203
H	 0.693479	 -1.083846	 0.802235
C	 -1.903357	 -0.536963	 -0.023547
H	 -0.726309	 1.082987	 -0.803784
H	 -0.717680	 0.977832	 0.934877
C	 -3.225172	 0.228290	 0.028445
H	 -1.867824	 -1.134999	 -0.931459
H	 -1.860449	 -1.239604	 0.805977
H	 -3.313397	 0.915643	 -0.808262
H	 -4.073500	 -0.448134	 -0.008893
H	 -3.306061	 0.809945	 0.942516

	symmetry c1
}
set optking {
	frozen_dihedral = ("
		1 2 3 6
	")
}

ee = optimize('scf')
oeprop('DIPOLE', 'QUADRUPOLE', 'MULLIKEN_CHARGES')
f=open( 'psi4out.xyz', 'w' )
f.write( "19  " )
f.write( str(ee) + "\n" )
f.write( MOL.save_string_xyz() )
f.close()
--------------------------------------------------------------------------

    Molecular point group: c1
  Charge       = 0
  Multiplicity = 1
  Basis Set: 6-31G*
  Basis Set:
  @DF-RHF Final Energy:  -251.34902263421174
    Total Energy =                       -251.3490226342118490
    Molecular point group: c1
  Basis Set: 6-31G*
  Basis Set:
  Basis Set: 6-31G*
  Basis Set:
  @DF-RHF Final Energy:  -251.35074180884695
    Total Energy =                       -251.3507418088469194
  Basis Set: 6-31G*
  Basis Set:
  Basis Set: 6-31G*
  Basis Set:
  @DF-RHF Final Energy:  -251.35104084971155
    Total Energy =                       -251.3510408497112394
  Basis Set: 6-31G*
  Basis Set:
  Basis Set: 6-31G*
  Basis Set:
  @DF-RHF Final Energy:  -251.35104375876466
    Total Energy =                       -251.3510437587646038
  Basis Set: 6-31G*
  Basis Set:
  Basis Set: 6-31G*
  Basis Set:
  @DF-RHF Final Energy:  -251.35104536581568
    Total Energy =                       -251.3510453658157076
  Basis Set: 6-31G*
  Basis Set:
  Charge       = 0
  Multiplicity = 1
  Basis Set: 6-31G*
  Basis Set:

    Orbital Energies (a.u.)
    -----------------------

    Doubly Occupied:

       1A    -15.533175     2A    -11.240279     3A    -11.212895
       4A    -11.211329     5A    -11.206765     6A    -11.206374
       7A     -1.176297     8A     -1.071775     9A     -0.997601
      10A     -0.899907    11A     -0.811354    12A     -0.787196
      13A     -0.669696    14A     -0.637517    15A     -0.616183
      16A     -0.584351    17A     -0.565687    18A     -0.550117
      19A     -0.525016    20A     -0.500661    21A     -0.477296
      22A     -0.463622    23A     -0.459413    24A     -0.451477
      25A     -0.381319

  @DF-RHF Final Energy:  -251.35104543881647

   => Energetics <=

    Nuclear Repulsion Energy =            245.4592568175112888
    One-Electron Energy =                -825.1459987998537144
    Two-Electron Energy =                 328.3356965435259553
    DFT Exchange-Correlation Energy =       0.0000000000000000
    Empirical Dispersion Energy =           0.0000000000000000
    PCM Polarization Energy =               0.0000000000000000
    EFP Energy =                            0.0000000000000000
    Total Energy =                       -251.3510454388165272
    Molecular point group: c1
  Basis Set: 6-31G*
  Basis Set:

  -Total Gradient:
     Atom            X                  Y                   Z
    ------   -----------------  -----------------  -----------------
       1        0.001278911972     0.002038767088    -0.000238717300
       2       -0.001893257982    -0.002971261694    -0.000074542362
       3        0.001647878025     0.002481281734     0.001586409304
       4        0.000009398082    -0.000002003083     0.000002430796
       5        0.000005598438     0.000011184143    -0.000007646402
       6       -0.001041499450    -0.001561141145    -0.001267864296
       7       -0.000004924355     0.000004535916     0.000003150968
       8       -0.000002838556    -0.000000726926    -0.000009497316
       9       -0.000002426015     0.000004810822     0.000004911615
      10        0.000001808022    -0.000003497100     0.000003230951
      11       -0.000001682500     0.000000703215    -0.000001169895
      12        0.000006075700    -0.000002114619    -0.000004029823
      13       -0.000003396442    -0.000000124855    -0.000004858997
      14       -0.000000170333    -0.000000845490     0.000009660767
      15       -0.000000844977     0.000004716957    -0.000001989200
      16        0.000001368745    -0.000004428649    -0.000002420671
      17        0.000001587717    -0.000002493837    -0.000000002790
      18        0.000000169277    -0.000000069366     0.000002427781
      19       -0.000001755365     0.000002706885     0.000000516871

  **** Optimization is complete! (in 6 steps) ****
    Final optimized geometry and variables:
    Molecular point group: c1

    Geometry (in Angstrom), charge = 0, multiplicity = 1:

    H            3.313441044612    -0.503339381535    -0.979710705877
    N            3.094945941071    -0.253126343165    -0.034152975450
    C            1.865106798027     0.529919989098     0.015190997664
    H            3.869417960270     0.291550546198     0.293365405310
    C            0.643866143805    -0.384635098016    -0.021269355918
    H            1.789679642754     1.250105825139    -0.802092687047
    H            1.862766664165     1.096487677385     0.940840207357
    C           -0.681001153363     0.377252445600     0.029663539060
    H            0.681455514737    -0.987621296382    -0.927474308109
    H            0.711061869566    -1.079238213951     0.810967375023
    C           -1.905628452671    -0.539091246604    -0.002784955908
    H           -0.734063510093     1.073499785473    -0.806237720077
    H           -0.714187291514     0.984879468638     0.933037081726
    C           -3.227154131105     0.226368401822     0.053330071377
    H           -1.877488583614    -1.144670196013    -0.906148558786
    H           -1.855665882961    -1.234874548879     0.831803837614
    H           -3.322465567608     0.906805708596    -0.788319299608
    H           -4.075757582379    -0.450398368234     0.028714682465
    H           -3.300641272994     0.815613857228     0.963131355604

  Mulliken Charges: (a.u.)
   Center  Symbol    Alpha    Beta     Spin     Total
       1     H     0.33466  0.33466  0.00000  0.33068
       2     N     3.92116  3.92116  0.00000 -0.84232
       3     C     3.06521  3.06521  0.00000 -0.13042
       4     H     0.33249  0.33249  0.00000  0.33502
       5     C     3.14572  3.14572  0.00000 -0.29143
       6     H     0.43305  0.43305  0.00000  0.13390
       7     H     0.42159  0.42159  0.00000  0.15683
       8     C     3.15573  3.15573  0.00000 -0.31146
       9     H     0.42662  0.42662  0.00000  0.14677
      10     H     0.41471  0.41471  0.00000  0.17058
      11     C     3.15052  3.15052  0.00000 -0.30104
      12     H     0.42549  0.42549  0.00000  0.14901
      13     H     0.42464  0.42464  0.00000  0.15071
      14     C     3.23921  3.23921  0.00000 -0.47841
      15     H     0.42319  0.42319  0.00000  0.15362
      16     H     0.42202  0.42202  0.00000  0.15596
      17     H     0.42243  0.42243  0.00000  0.15514
      18     H     0.41953  0.41953  0.00000  0.16094
      19     H     0.42203  0.42203  0.00000  0.15593

   Total alpha = 25.00000, Total beta = 25.00000, Total charge = -0.00000
