  ==> Input File <==

--------------------------------------------------------------------------
set {
	reference rhf
	basis 6-31G*
}

set_num_threads( 1 )
memory 2 gb

molecule MOL {
0 1

H	 -3.066676	 2.620693	 -1.451982
O	 -2.361513	 2.033699	 -1.684549
C	 -1.708992	 1.594948	 -0.520804
C	 -0.587090	 0.657409	 -0.930809
H	 -1.304384	 2.440704	 0.033540
H	 -2.405758	 1.077220	 0.137082
C	 0.198102	 0.111031	 0.262842
H	 0.077815	 1.193232	 -1.602764
H	 -1.016704	 -0.160125	 -1.503126
C	 1.331804	 -0.827780	 -0.158768
H	 0.600023	 0.942329	 0.836930
H	 -0.478057	 -0.423485	 0.928890
C	 2.723619	 -0.410569	 0.329459
H	 1.342964	 -0.912588	 -1.244120
H	 1.116806	 -1.824343	 0.220779
C	 3.243875	 0.895854	 -0.272975
H	 3.424222	 -1.207124	 0.091250
H	 2.714788	 -0.329854	 1.414619
H	 3.251977	 0.848779	 -1.358681
H	 2.637085	 1.747371	 0.016682
H	 4.259473	 1.094070	 0.055697

	symmetry c1
}
set optking {
	frozen_dihedral = ("
		2 3 4 8,
		8 4 7 10,
		16 13 10 14,
		1 2 3 5
	")
}

ee = energy('scf')
oeprop('DIPOLE', 'QUADRUPOLE', 'MULLIKEN_CHARGES')
f=open( 'psi4out.xyz', 'w' )
f.write( "21  " )
f.write( str(ee) + "\n" )
f.write( MOL.save_string_xyz() )
f.close()
--------------------------------------------------------------------------

    Molecular point group: c1

    Geometry (in Angstrom), charge = 0, multiplicity = 1:

       Center              X                  Y                   Z               Mass
    ------------   -----------------  -----------------  -----------------  -----------------
           H         -3.418124570267     1.994451548365    -1.002551275028     1.007825032070
           O         -2.712961570267     1.407457548365    -1.235118275028    15.994914619560
           C         -2.060440570267     0.968706548365    -0.071373275028    12.000000000000
           C         -0.938538570267     0.031167548365    -0.481378275028    12.000000000000
           H         -1.655832570267     1.814462548365     0.482970724972     1.007825032070
           H         -2.757206570267     0.450978548365     0.586512724972     1.007825032070
           C         -0.153346570267    -0.515210451635     0.712272724972    12.000000000000
           H         -0.273633570267     0.566990548365    -1.153333275028     1.007825032070
           H         -1.368152570267    -0.786366451635    -1.053695275028     1.007825032070
           C          0.980355429733    -1.454021451635     0.290662724972    12.000000000000
           H          0.248574429733     0.316087548365     1.286360724972     1.007825032070
           H         -0.829505570267    -1.049726451635     1.378320724972     1.007825032070
           C          2.372170429733    -1.036810451635     0.778889724972    12.000000000000
           H          0.991515429733    -1.538829451635    -0.794689275028     1.007825032070
           H          0.765357429733    -2.450584451635     0.670209724972     1.007825032070
           C          2.892426429733     0.269612548365     0.176455724972    12.000000000000
           H          3.072773429733    -1.833365451635     0.540680724972     1.007825032070
           H          2.363339429733    -0.956095451635     1.864049724972     1.007825032070
           H          2.900528429733     0.222537548365    -0.909250275028     1.007825032070
           H          2.285636429733     1.121129548365     0.466112724972     1.007825032070
           H          3.908024429733     0.467828548365     0.505127724972     1.007825032070

  Charge       = 0
  Multiplicity = 1
  Basis Set: 6-31G*
  Basis Set:

    Orbital Energies (a.u.)
    -----------------------

    Doubly Occupied:

       1A    -20.551488     2A    -11.266282     3A    -11.214986
       4A    -11.214218     5A    -11.211883     6A    -11.210540
       7A    -11.207913     8A     -1.358307     9A     -1.086512
      10A     -1.031735    11A     -0.954822    12A     -0.875330
      13A     -0.807187    14A     -0.778867    15A     -0.692165
      16A     -0.660157    17A     -0.619057    18A     -0.612013
      19A     -0.586788    20A     -0.556229    21A     -0.551029
      22A     -0.520841    23A     -0.500370    24A     -0.493297
      25A     -0.481114    26A     -0.459524    27A     -0.450008
      28A     -0.441713    29A     -0.433866

  @DF-RHF Final Energy:  -310.20733658155405

   => Energetics <=

    Nuclear Repulsion Energy =            316.4128072740159041
    One-Electron Energy =               -1047.5845488123406994
    Two-Electron Energy =                 420.9644049567710908
    DFT Exchange-Correlation Energy =       0.0000000000000000
    Empirical Dispersion Energy =           0.0000000000000000
    PCM Polarization Energy =               0.0000000000000000
    EFP Energy =                            0.0000000000000000
    Total Energy =                       -310.2073365815537045

  Mulliken Charges: (a.u.)
   Center  Symbol    Alpha    Beta     Spin     Total
       1     H     0.28127  0.28127  0.00000  0.43747
       2     O     4.37179  4.37179  0.00000 -0.74359
       3     C     2.99033  2.99033  0.00000  0.01933
       4     C     3.16229  3.16229  0.00000 -0.32458
       5     H     0.43316  0.43316  0.00000  0.13367
       6     H     0.43298  0.43298  0.00000  0.13403
       7     C     3.16342  3.16342  0.00000 -0.32685
       8     H     0.41386  0.41386  0.00000  0.17227
       9     H     0.41424  0.41424  0.00000  0.17152
      10     C     3.15500  3.15500  0.00000 -0.31000
      11     H     0.42091  0.42091  0.00000  0.15818
      12     H     0.42075  0.42075  0.00000  0.15850
      13     C     3.15389  3.15389  0.00000 -0.30777
      14     H     0.41920  0.41920  0.00000  0.16160
      15     H     0.41970  0.41970  0.00000  0.16059
      16     C     3.24079  3.24079  0.00000 -0.48158
      17     H     0.42159  0.42159  0.00000  0.15681
      18     H     0.42357  0.42357  0.00000  0.15287
      19     H     0.42109  0.42109  0.00000  0.15783
      20     H     0.42105  0.42105  0.00000  0.15791
      21     H     0.41911  0.41911  0.00000  0.16179

   Total alpha = 29.00000, Total beta = 29.00000, Total charge =  0.00000
