  ==> Input File <==

--------------------------------------------------------------------------
set {
	reference rhf
	basis 6-31G*
}

set_num_threads( 4 )
memory 2 gb

molecule MOL {
0 1

H	 3.893188	 0.355400	 -0.101367
N	 3.092854	 -0.246221	 -0.068770
C	 1.865559	 0.531981	 0.018834
H	 3.199514	 -0.826043	 0.741946
C	 0.645745	 -0.382037	 -0.029944
H	 1.841966	 1.207024	 -0.831236
H	 1.815756	 1.155410	 0.915079
C	 -0.679275	 0.379305	 0.025956
H	 0.698998	 -0.976915	 -0.937203
H	 0.693479	 -1.083846	 0.802235
C	 -1.130897	 0.903939	 -1.338291
H	 -0.585883	 1.215722	 0.716995
H	 -1.454349	 -0.267495	 0.434314
C	 -2.453266	 1.667548	 -1.277037
H	 -0.358651	 1.551455	 -1.747649
H	 -1.227618	 0.070005	 -2.030284
H	 -2.378699	 2.528437	 -0.618533
H	 -2.746264	 2.026940	 -2.258665
H	 -3.254280	 1.035614	 -0.903639

	symmetry c1
}
set optking {
	frozen_dihedral = ("
		12 8 5 9
	")
}

ee = optimize('scf')
oeprop('DIPOLE', 'QUADRUPOLE', 'MULLIKEN_CHARGES')
f=open( 'psi4out.xyz', 'w' )
f.write( "19  " )
f.write( str(ee) + "\n" )
f.write( MOL.save_string_xyz() )
f.close()
--------------------------------------------------------------------------

    Molecular point group: c1
  Charge       = 0
  Multiplicity = 1
  Basis Set: 6-31G*
  Basis Set:
  @DF-RHF Final Energy:  -251.34917646697227
    Total Energy =                       -251.3491764669723239
    Molecular point group: c1
  Basis Set: 6-31G*
  Basis Set:
  Basis Set: 6-31G*
  Basis Set:
  @DF-RHF Final Energy:  -251.34930217967641
    Total Energy =                       -251.3493021796764424
  Basis Set: 6-31G*
  Basis Set:
  Basis Set: 6-31G*
  Basis Set:
  @DF-RHF Final Energy:  -251.34933443617760
    Total Energy =                       -251.3493344361775712
  Basis Set: 6-31G*
  Basis Set:
  Basis Set: 6-31G*
  Basis Set:
  @DF-RHF Final Energy:  -251.34933791718979
    Total Energy =                       -251.3493379171898141
  Basis Set: 6-31G*
  Basis Set:
  Charge       = 0
  Multiplicity = 1
  Basis Set: 6-31G*
  Basis Set:

    Orbital Energies (a.u.)
    -----------------------

    Doubly Occupied:

       1A    -15.532503     2A    -11.239591     3A    -11.213484
       4A    -11.212757     5A    -11.209603     6A    -11.207331
       7A     -1.176695     8A     -1.071907     9A     -0.996436
      10A     -0.899040    11A     -0.823907    12A     -0.780652
      13A     -0.661492    14A     -0.635269    15A     -0.621647
      16A     -0.589977    17A     -0.570254    18A     -0.548516
      19A     -0.525179    20A     -0.499154    21A     -0.488360
      22A     -0.463957    23A     -0.454583    24A     -0.447578
      25A     -0.381152

  @DF-RHF Final Energy:  -251.34933810222191

   => Energetics <=

    Nuclear Repulsion Energy =            248.3748725488837295
    One-Electron Energy =                -830.9463725705110164
    Two-Electron Energy =                 331.2221619194054369
    DFT Exchange-Correlation Energy =       0.0000000000000000
    Empirical Dispersion Energy =           0.0000000000000000
    PCM Polarization Energy =               0.0000000000000000
    EFP Energy =                            0.0000000000000000
    Total Energy =                       -251.3493381022219069
    Molecular point group: c1
  Basis Set: 6-31G*
  Basis Set:

  -Total Gradient:
     Atom            X                  Y                   Z
    ------   -----------------  -----------------  -----------------
       1       -0.000005156369     0.000003010288     0.000003368924
       2       -0.000010394413     0.000001416493     0.000017000004
       3        0.000003130113     0.000011394676    -0.000028043173
       4        0.000005012635    -0.000004620421     0.000000887000
       5       -0.000987684373    -0.001833286455     0.000899607078
       6        0.000004361926    -0.000000693521     0.000005604856
       7        0.000006502174    -0.000002236179     0.000002237154
       8       -0.000598539941    -0.001133559181     0.001773937466
       9        0.000929373289     0.001679431220    -0.001041183866
      10       -0.000002444672     0.000004121297    -0.000003382262
      11        0.000015123763     0.000016677968     0.000001601755
      12        0.000652818320     0.001277258878    -0.001611364453
      13        0.000016951087    -0.000002678593    -0.000005475549
      14       -0.000009991179    -0.000018236695    -0.000007357302
      15        0.000001487905    -0.000007397314    -0.000009914440
      16       -0.000018164287     0.000011447620     0.000004032406
      17        0.000009319506    -0.000009608649    -0.000000948134
      18       -0.000000988111     0.000003877630    -0.000001060331
      19       -0.000010717369     0.000003680936     0.000000452866

  **** Optimization is complete! (in 5 steps) ****
    Final optimized geometry and variables:
    Molecular point group: c1

    Geometry (in Angstrom), charge = 0, multiplicity = 1:

    H            3.640523940067    -0.123952883371     0.332707260914
    N            2.838744397142    -0.723935185375     0.358541914088
    C            1.613680158981     0.054797242687     0.466427601078
    H            2.948090829060    -1.319435743600     1.157526400456
    C            0.392955258884    -0.862211693384     0.418935901732
    H            1.589640316325     0.743813555703    -0.371496353191
    H            1.570251003080     0.662740768065     1.373551169497
    C           -0.943776538207    -0.107432456032     0.456979802032
    H            0.462433423190    -1.459526041521    -0.485363892272
    H            0.447422521566    -1.552448460459     1.258479291571
    C           -1.394939505234     0.419801054699    -0.909224335460
    H           -0.868080747656     0.732559600146     1.145980284410
    H           -1.718912572809    -0.760188633687     0.850367279276
    C           -2.711202771071     1.193400302503    -0.840535595593
    H           -0.625298935148     1.061076472826    -1.331770473242
    H           -1.503723786614    -0.417105178251    -1.595282472861
    H           -2.623973685943     2.059842192979    -0.190814710002
    H           -3.012792482971     1.545674986733    -1.822187940786
    H           -3.512234758509     0.570371599342    -0.452362812808

  Mulliken Charges: (a.u.)
   Center  Symbol    Alpha    Beta     Spin     Total
       1     H     0.33248  0.33248  0.00000  0.33503
       2     N     3.92194  3.92194  0.00000 -0.84387
       3     C     3.06142  3.06142  0.00000 -0.12283
       4     H     0.33540  0.33540  0.00000  0.32919
       5     C     3.15439  3.15439  0.00000 -0.30878
       6     H     0.42007  0.42007  0.00000  0.15985
       7     H     0.43472  0.43472  0.00000  0.13056
       8     C     3.15754  3.15754  0.00000 -0.31507
       9     H     0.41228  0.41228  0.00000  0.17543
      10     H     0.42529  0.42529  0.00000  0.14942
      11     C     3.15230  3.15230  0.00000 -0.30461
      12     H     0.42469  0.42469  0.00000  0.15061
      13     H     0.42053  0.42053  0.00000  0.15895
      14     C     3.23933  3.23933  0.00000 -0.47867
      15     H     0.42246  0.42246  0.00000  0.15509
      16     H     0.42148  0.42148  0.00000  0.15703
      17     H     0.42238  0.42238  0.00000  0.15524
      18     H     0.41932  0.41932  0.00000  0.16136
      19     H     0.42197  0.42197  0.00000  0.15606

   Total alpha = 25.00000, Total beta = 25.00000, Total charge =  0.00000
