                              Psi4 1.0.54 Driver

  ==> Input File <==

--------------------------------------------------------------------------
set {
	reference rhf
	basis cc-pvtz
}

set_num_threads( 4 )
memory 2 gb

molecule MOL {
0 1

H	 -3.436473	 1.252944	 -1.023892
O	 -3.458596	 0.315260	 -0.960865
C	 -3.176635	 -0.080824	 0.355601
C	 -1.763371	 0.265266	 0.799691
H	 -3.321825	 -1.153438	 0.379502
H	 -3.895468	 0.357385	 1.043382
C	 -0.673390	 -0.426948	 -0.013392
H	 -1.631049	 1.344913	 0.747560
H	 -1.664587	 -0.001624	 1.849167
C	 0.737842	 -0.043159	 0.423759
H	 -0.806103	 -0.190518	 -1.063345
H	 -0.797221	 -1.503753	 0.074146
C	 1.824000	 -0.743224	 -0.390623
H	 0.850588	 1.033777	 0.343840
H	 0.868587	 -0.286314	 1.476203
C	 3.255957	 -0.453067	 0.062319
H	 1.718250	 -0.470599	 -1.438164
H	 1.658105	 -1.815850	 -0.339904
C	 4.265903	 -0.300483	 -1.072525
H	 3.581168	 -1.261587	 0.709860
H	 3.263308	 0.445360	 0.674034
H	 4.276397	 -1.182365	 -1.705179
H	 5.267374	 -0.164935	 -0.680195
H	 4.044856	 0.554148	 -1.700497

	symmetry c1
}
set optking {
	frozen_dihedral = ("
		20 16 13 17
	")
}

ee,wfn = optimize('scf', return_wfn=True)
oeprop( wfn, 'DIPOLE', 'QUADRUPOLE', 'MULLIKEN_CHARGES')
f=open( 'psi4out.xyz', 'w' )
f.write( "24  " )
f.write( str(ee) + "\n" )
f.write( MOL.save_string_xyz() )
f.close()
--------------------------------------------------------------------------

    Molecular point group: c1
  Charge       = 0
  Multiplicity = 1
  Basis Set: CC-PVTZ
  Basis Set:
  @DF-RHF Final Energy:  -349.37770812422968
    Total Energy =                       -349.3777081242293434
    Molecular point group: c1
  Basis Set: CC-PVTZ
  Basis Set:
  Basis Set: CC-PVTZ
  Basis Set:
  @DF-RHF Final Energy:  -349.37810342738140
    Total Energy =                       -349.3781034273809496
  Basis Set: CC-PVTZ
  Basis Set:
  Basis Set: CC-PVTZ
  Basis Set:
  @DF-RHF Final Energy:  -349.37816016420959
    Total Energy =                       -349.3781601642098167
  Basis Set: CC-PVTZ
  Basis Set:
  Charge       = 0
  Multiplicity = 1
  Basis Set: CC-PVTZ
  Basis Set:

    Orbital Energies (a.u.)
    -----------------------

    Doubly Occupied:

       1A    -20.546343     2A    -11.265582     3A    -11.215288
       4A    -11.211514     5A    -11.211109     6A    -11.209019
       7A    -11.208854     8A    -11.205334     9A     -1.364198
      10A     -1.089102    11A     -1.049289    12A     -0.989149
      13A     -0.914367    14A     -0.843262    15A     -0.798690
      16A     -0.788533    17A     -0.681856    18A     -0.656181
      19A     -0.629738    20A     -0.616273    21A     -0.596649
      22A     -0.585533    23A     -0.551228    24A     -0.539383
      25A     -0.532253    26A     -0.503273    27A     -0.494573
      28A     -0.471788    29A     -0.469659    30A     -0.459818
      31A     -0.457054    32A     -0.454092    33A     -0.420566

  @DF-RHF Final Energy:  -349.37816001170773

   => Energetics <=

    Nuclear Repulsion Energy =            381.1893368486686882
    One-Electron Energy =               -1229.0758872237317973
    Two-Electron Energy =                 498.5083903633553746
    DFT Exchange-Correlation Energy =       0.0000000000000000
    Empirical Dispersion Energy =           0.0000000000000000
    PCM Polarization Energy =               0.0000000000000000
    EFP Energy =                            0.0000000000000000
    Total Energy =                       -349.3781600117076778
    Molecular point group: c1
  Basis Set: CC-PVTZ
  Basis Set:

  -Total Gradient:
     Atom            X                  Y                   Z
    ------   -----------------  -----------------  -----------------
       1        0.000000826527    -0.000012544141     0.000003234968
       2       -0.000006417741     0.000012073980    -0.000014756428
       3        0.000009701455     0.000012664404     0.000003572208
       4       -0.000011003276     0.000032326177    -0.000044614934
       5        0.000007293871     0.000009309861     0.000002928092
       6        0.000003760106    -0.000002159471    -0.000001293533
       7       -0.000038068055     0.000037455627    -0.000002239331
       8       -0.000007979575     0.000003201354     0.000012325470
       9        0.000010824147    -0.000013984039    -0.000021890225
      10       -0.000042100925    -0.000059234495     0.000095545359
      11       -0.000012600842    -0.000022393391    -0.000000840881
      12        0.000034133017     0.000025671580     0.000029884060
      13       -0.001052415488     0.004199853651     0.000572767430
      14        0.000021043512    -0.000015785388     0.000033044309
      15        0.000007711384    -0.000036937577    -0.000031946998
      16       -0.001665015944     0.001619127908     0.003676271522
      17        0.001227758218    -0.003755787513    -0.001032666664
      18        0.000058271943     0.000005330953     0.000029016142
      19        0.000081765222     0.000063762085    -0.000053433018
      20        0.001422077175    -0.002014291323    -0.003192601511
      21       -0.000038148797    -0.000063426380    -0.000064311704
      22        0.000016806559     0.000103481484     0.000054165465
      23       -0.000075465561    -0.000013557633    -0.000099647929
      24        0.000047243076    -0.000114157716     0.000047488131

  **** Optimization is complete! (in 4 steps) ****
    Final optimized geometry and variables:
    Molecular point group: c1

    Geometry (in Angstrom), charge = 0, multiplicity = 1:

    H           -3.487576668528     1.451804380424    -0.898575179046
    O           -3.519434438831     0.513631301280    -0.848796087036
    C           -3.249283619586     0.096654635049     0.463606077410
    C           -1.835171178005     0.422017447737     0.920426444010
    H           -3.405539109896    -0.974631549558     0.471514100683
    H           -3.967694661014     0.532530191596     1.153299842334
    C           -0.747498925414    -0.268123734262     0.102493451318
    H           -1.692053055964     1.500975442631     0.885746121052
    H           -1.744572599460     0.137981341972     1.966104358688
    C            0.664356177333     0.094534362777     0.552685320164
    H           -0.872089584147    -0.014491082146    -0.944457026396
    H           -0.881807303512    -1.344919231108     0.172968038641
    C            1.755716334296    -0.585137932328    -0.267654582465
    H            0.795252436574     1.172684672073     0.494154235308
    H            0.789839244699    -0.168478237920     1.600866645505
    C            3.183530383028    -0.263524929998     0.202947224645
    H            1.649006516260    -0.327671408988    -1.317767629350
    H            1.606042987397    -1.661114303305    -0.229763781722
    C            4.179535046559    -0.144659713612    -0.948635188631
    H            3.531536719951    -1.050434992938     0.864193234549
    H            3.189006773242     0.658783428572     0.774489925162
    H            4.207253190188    -1.056863654436    -1.535624120010
    H            5.183187816337     0.043876408949    -0.584699191093
    H            3.910112248819     0.666748124000    -1.616283132838

  Mulliken Charges: (a.u.)
   Center  Symbol    Alpha    Beta     Spin     Total
       1     H     0.39530  0.39530  0.00000  0.20939
       2     O     4.20367  4.20367  0.00000 -0.40734
       3     C     2.97773  2.97773  0.00000  0.04454
       4     C     3.10215  3.10215  0.00000 -0.20430
       5     H     0.45889  0.45889  0.00000  0.08221
       6     H     0.46027  0.46027  0.00000  0.07945
       7     C     3.08845  3.08845  0.00000 -0.17689
       8     H     0.45909  0.45909  0.00000  0.08183
       9     H     0.45329  0.45329  0.00000  0.09341
      10     C     3.08914  3.08914  0.00000 -0.17828
      11     H     0.44616  0.44616  0.00000  0.10769
      12     H     0.45526  0.45526  0.00000  0.08947
      13     C     3.09053  3.09053  0.00000 -0.18106
      14     H     0.45535  0.45535  0.00000  0.08930
      15     H     0.45471  0.45471  0.00000  0.09059
      16     C     3.08579  3.08579  0.00000 -0.17157
      17     H     0.45389  0.45389  0.00000  0.09223
      18     H     0.45356  0.45356  0.00000  0.09287
      19     C     3.14867  3.14867  0.00000 -0.29733
      20     H     0.45290  0.45290  0.00000  0.09420
      21     H     0.45501  0.45501  0.00000  0.08998
      22     H     0.45442  0.45442  0.00000  0.09115
      23     H     0.44989  0.44989  0.00000  0.10022
      24     H     0.45588  0.45588  0.00000  0.08824

   Total alpha = 33.00000, Total beta = 33.00000, Total charge =  0.00000

*** Psi4 exiting successfully. Buy a developer a beer!
