  ==> Input File <==

--------------------------------------------------------------------------
set {
	reference rhf
	basis 6-31G*
}

set_num_threads( 1 )
memory 2 gb

molecule MOL {
0 1

H	 -4.233122	 0.555804	 0.009411
O	 -3.513806	 -0.008705	 -0.235167
C	 -2.305144	 0.541400	 0.222120
C	 -1.176190	 -0.388251	 -0.186487
H	 -2.147751	 1.530155	 -0.206712
H	 -2.321271	 0.654616	 1.305292
C	 0.198102	 0.111031	 0.262842
H	 -1.199186	 -0.499594	 -1.267136
H	 -1.373788	 -1.370919	 0.232790
C	 1.331804	 -0.827780	 -0.158768
H	 0.368616	 1.104137	 -0.145619
H	 0.209244	 0.218858	 1.346709
C	 2.723619	 -0.410569	 0.329459
H	 1.342964	 -0.912588	 -1.244120
H	 1.116806	 -1.824343	 0.220779
C	 3.243875	 0.895854	 -0.272975
H	 3.424222	 -1.207124	 0.091250
H	 2.714788	 -0.329854	 1.414619
H	 3.251977	 0.848779	 -1.358681
H	 2.637085	 1.747371	 0.016682
H	 4.259473	 1.094070	 0.055697

	symmetry c1
}
set optking {
	frozen_dihedral = ("
		2 3 4 8,
		8 4 7 10,
		16 13 10 14,
		1 2 3 5
	")
}

ee = energy('scf')
oeprop('DIPOLE', 'QUADRUPOLE', 'MULLIKEN_CHARGES')
f=open( 'psi4out.xyz', 'w' )
f.write( "21  " )
f.write( str(ee) + "\n" )
f.write( MOL.save_string_xyz() )
f.close()
--------------------------------------------------------------------------

    Molecular point group: c1

    Geometry (in Angstrom), charge = 0, multiplicity = 1:

       Center              X                  Y                   Z               Mass
    ------------   -----------------  -----------------  -----------------  -----------------
           H         -4.234128949054     0.550486449743     0.018544173567     1.007825032070
           O         -3.514812949054    -0.014022550257    -0.226033826433    15.994914619560
           C         -2.306150949054     0.536082449743     0.231253173567    12.000000000000
           C         -1.177196949054    -0.393568550257    -0.177353826433    12.000000000000
           H         -2.148757949054     1.524837449743    -0.197578826433     1.007825032070
           H         -2.322277949054     0.649298449743     1.314425173567     1.007825032070
           C          0.197095050946     0.105713449743     0.271975173567    12.000000000000
           H         -1.200192949054    -0.504911550257    -1.258002826433     1.007825032070
           H         -1.374794949054    -1.376236550257     0.241923173567     1.007825032070
           C          1.330797050946    -0.833097550257    -0.149634826433    12.000000000000
           H          0.367609050946     1.098819449743    -0.136485826433     1.007825032070
           H          0.208237050946     0.213540449743     1.355842173567     1.007825032070
           C          2.722612050946    -0.415886550257     0.338592173567    12.000000000000
           H          1.341957050946    -0.917905550257    -1.234986826433     1.007825032070
           H          1.115799050946    -1.829660550257     0.229912173567     1.007825032070
           C          3.242868050946     0.890536449743    -0.263841826433    12.000000000000
           H          3.423215050946    -1.212441550257     0.100383173567     1.007825032070
           H          2.713781050946    -0.335171550257     1.423752173567     1.007825032070
           H          3.250970050946     0.843461449743    -1.349547826433     1.007825032070
           H          2.636078050946     1.742053449743     0.025815173567     1.007825032070
           H          4.258466050946     1.088752449743     0.064830173567     1.007825032070

  Charge       = 0
  Multiplicity = 1
  Basis Set: 6-31G*
  Basis Set:

    Orbital Energies (a.u.)
    -----------------------

    Doubly Occupied:

       1A    -20.551843     2A    -11.267059     3A    -11.215694
       4A    -11.215158     5A    -11.213601     6A    -11.210670
       7A    -11.208206     8A     -1.358667     9A     -1.086258
      10A     -1.033209    11A     -0.954426    12A     -0.875678
      13A     -0.807184    14A     -0.779055    15A     -0.692447
      16A     -0.661489    17A     -0.622051    18A     -0.607468
      19A     -0.586498    20A     -0.569359    21A     -0.536447
      22A     -0.519937    23A     -0.510721    24A     -0.486771
      25A     -0.479613    26A     -0.460672    27A     -0.455864
      28A     -0.443127    29A     -0.433991

  @DF-RHF Final Energy:  -310.21283573809256

   => Energetics <=

    Nuclear Repulsion Energy =            312.4606869785447429
    One-Electron Energy =               -1039.6607226946091487
    Two-Electron Energy =                 416.9871999779735461
    DFT Exchange-Correlation Energy =       0.0000000000000000
    Empirical Dispersion Energy =           0.0000000000000000
    PCM Polarization Energy =               0.0000000000000000
    EFP Energy =                            0.0000000000000000
    Total Energy =                       -310.2128357380908028

  Mulliken Charges: (a.u.)
   Center  Symbol    Alpha    Beta     Spin     Total
       1     H     0.28118  0.28118  0.00000  0.43765
       2     O     4.37179  4.37179  0.00000 -0.74358
       3     C     2.98973  2.98973  0.00000  0.02055
       4     C     3.15895  3.15895  0.00000 -0.31790
       5     H     0.43293  0.43293  0.00000  0.13413
       6     H     0.43287  0.43287  0.00000  0.13425
       7     C     3.16190  3.16190  0.00000 -0.32379
       8     H     0.41477  0.41477  0.00000  0.17046
       9     H     0.41483  0.41483  0.00000  0.17035
      10     C     3.15178  3.15178  0.00000 -0.30356
      11     H     0.42155  0.42155  0.00000  0.15689
      12     H     0.42406  0.42406  0.00000  0.15187
      13     C     3.15251  3.15251  0.00000 -0.30503
      14     H     0.42301  0.42301  0.00000  0.15399
      15     H     0.42097  0.42097  0.00000  0.15807
      16     C     3.24117  3.24117  0.00000 -0.48235
      17     H     0.42061  0.42061  0.00000  0.15879
      18     H     0.42356  0.42356  0.00000  0.15289
      19     H     0.42196  0.42196  0.00000  0.15608
      20     H     0.42065  0.42065  0.00000  0.15870
      21     H     0.41923  0.41923  0.00000  0.16154

   Total alpha = 29.00000, Total beta = 29.00000, Total charge =  0.00000
