  ==> Input File <==

--------------------------------------------------------------------------
set {
	reference rhf
	basis cc-pvtz
}

set_num_threads( 4 )
memory 2 gb

molecule MOL {
0 1

H	 -3.421045	 -0.856178	 -0.497368
O	 -3.111620	 -0.160824	 0.054985
C	 -1.774486	 -0.064349	 0.015462
C	 -0.995994	 -0.912689	 -0.762166
C	 -1.180904	 0.922197	 0.785249
H	 -1.463804	 -1.675647	 -1.356705
C	 0.371256	 -0.770196	 -0.765999
H	 -1.799495	 1.565853	 1.377762
C	 0.189509	 1.051690	 0.770287
H	 0.982973	 -1.418355	 -1.361652
C	 0.981121	 0.213562	 0.000000
H	 0.651079	 1.816719	 1.367113
C	 2.447402	 0.371303	 0.000000
O	 3.227427	 -0.521847	 0.000000
H	 2.796538	 1.409525	 0.000000

	symmetry c1
}
set optking {
	frozen_dihedral = ("
		7 11 13 14
	")
}

ee = optimize('scf')
oeprop('DIPOLE', 'QUADRUPOLE', 'MULLIKEN_CHARGES')
f=open( 'psi4out.xyz', 'w' )
f.write( "15  " )
f.write( str(ee) + "\n" )
f.write( MOL.save_string_xyz() )
f.close()
--------------------------------------------------------------------------

    Molecular point group: c1
  Charge       = 0
  Multiplicity = 1
  Basis Set: CC-PVTZ
  Basis Set:
  @DF-RHF Final Energy:  -418.43635212600554
    Total Energy =                       -418.4363521260056586
    Molecular point group: c1
  Basis Set: CC-PVTZ
  Basis Set:
  Basis Set: CC-PVTZ
  Basis Set:
  @DF-RHF Final Energy:  -418.43510051000408
    Total Energy =                       -418.4351005100043039
  Basis Set: CC-PVTZ
  Basis Set:
  Basis Set: CC-PVTZ
  Basis Set:
  @DF-RHF Final Energy:  -418.43691383332009
    Total Energy =                       -418.4369138333198634
  Basis Set: CC-PVTZ
  Basis Set:
  Basis Set: CC-PVTZ
  Basis Set:
  @DF-RHF Final Energy:  -418.43708322587872
    Total Energy =                       -418.4370832258791779
  Basis Set: CC-PVTZ
  Basis Set:
  @DF-RHF Final Energy:  -418.43708610851104
    Total Energy =                       -418.4370861085110391
  @DF-RHF Final Energy:  -418.43708810067704
    Total Energy =                       -418.4370881006767604
  Basis Set: CC-PVTZ
  Basis Set:
  @DF-RHF Final Energy:  -418.43671808681228
    Total Energy =                       -418.4367180868124478
  Basis Set: CC-PVTZ
  Basis Set:
  Basis Set: CC-PVTZ
  Basis Set:
  @DF-RHF Final Energy:  -418.43678501946420
    Total Energy =                       -418.4367850194644234
  Basis Set: CC-PVTZ
  Basis Set:
  Basis Set: CC-PVTZ
  Basis Set:
  @DF-RHF Final Energy:  -418.43708669908159
    Total Energy =                       -418.4370866990814193
  Basis Set: CC-PVTZ
  Basis Set:
  Charge       = 0
  Multiplicity = 1
  Basis Set: CC-PVTZ
  Basis Set:

    Orbital Energies (a.u.)
    -----------------------

    Doubly Occupied:

       1A    -20.602106     2A    -20.551023     3A    -11.325294
       4A    -11.318938     5A    -11.256075     6A    -11.254503
       7A    -11.241370     8A    -11.238872     9A    -11.236573
      10A     -1.434821    11A     -1.406315    12A     -1.174634
      13A     -1.043502    14A     -1.041890    15A     -0.891226
      16A     -0.869405    17A     -0.798886    18A     -0.760543
      19A     -0.716691    20A     -0.672999    21A     -0.650821
      22A     -0.631702    23A     -0.612933    24A     -0.609947
      25A     -0.591274    26A     -0.565307    27A     -0.545189
      28A     -0.508359    29A     -0.492927    30A     -0.423380
      31A     -0.360996    32A     -0.330479

  @DF-RHF Final Energy:  -418.43708830086075

   => Energetics <=

    Nuclear Repulsion Energy =            401.8465364334017522
    One-Electron Energy =               -1366.2492942252008561
    Two-Electron Energy =                 545.9656694909383532
    DFT Exchange-Correlation Energy =       0.0000000000000000
    Empirical Dispersion Energy =           0.0000000000000000
    PCM Polarization Energy =               0.0000000000000000
    EFP Energy =                            0.0000000000000000
    Total Energy =                       -418.4370883008607507
    Molecular point group: c1
  Basis Set: CC-PVTZ
  Basis Set:

  -Total Gradient:
     Atom            X                  Y                   Z
    ------   -----------------  -----------------  -----------------
       1        0.000005028996    -0.000001746374     0.000003877136
       2        0.000000956047     0.000015873331    -0.000012695142
       3       -0.000002246903     0.000005909500     0.000042197654
       4        0.000039854156    -0.000011444316    -0.000009067771
       5       -0.000025790643    -0.000021134166     0.000002962417
       6        0.000002634801     0.000000765963    -0.000002698333
       7       -0.000714772066     0.004201828050    -0.004712562809
       8        0.000002984808     0.000001874707     0.000005087999
       9        0.000022488060     0.000011121762    -0.000030135125
      10       -0.000002529515     0.000012222198    -0.000018345986
      11        0.001109685841    -0.006348370493     0.010504429048
      12       -0.000003399829    -0.000004701619     0.000014110209
      13       -0.000718950510     0.002413628241    -0.013632803354
      14        0.000271439190    -0.000279485567     0.007832786141
      15        0.000012617563     0.000003658783     0.000012857916

  **** Optimization is complete! (in 10 steps) ****
    Final optimized geometry and variables:
    Molecular point group: c1

    Geometry (in Angstrom), charge = 0, multiplicity = 1:

    H           -3.428554727057    -0.850776281776    -0.496303809218
    O           -3.118072018909    -0.151562727220     0.050604544578
    C           -1.778537493458    -0.064300412115     0.015637576441
    C           -1.001596407427    -0.909042778502    -0.761667301703
    C           -1.181729209304     0.923062977854     0.783475990100
    H           -1.468683785309    -1.659582027486    -1.372462276640
    C            0.370158920251    -0.779094239108    -0.750190267230
    H           -1.799305233773     1.574614622187     1.368704498092
    C            0.187447457046     1.057667724964     0.763407900511
    H            0.976719010627    -1.435307346296    -1.343355214672
    C            0.981334094296     0.188026846406     0.030026454893
    H            0.645593825211     1.841920301030     1.337797734869
    C            2.450319814747     0.378350229168    -0.014025997599
    O            3.241729728888    -0.500617754432    -0.073314441240
    H            2.785479833911     1.417704550302     0.072280548539

  Mulliken Charges: (a.u.)
   Center  Symbol    Alpha    Beta     Spin     Total
       1     H     0.38572  0.38572  0.00000  0.22855
       2     O     4.16776  4.16776  0.00000 -0.33552
       3     C     2.84928  2.84928  0.00000  0.30144
       4     C     3.12847  3.12847  0.00000 -0.25695
       5     C     3.10416  3.10416  0.00000 -0.20833
       6     H     0.43152  0.43152  0.00000  0.13697
       7     C     3.07874  3.07874  0.00000 -0.15748
       8     H     0.41665  0.41665  0.00000  0.16671
       9     C     3.07257  3.07257  0.00000 -0.14515
      10     H     0.41089  0.41089  0.00000  0.17822
      11     C     2.97807  2.97807  0.00000  0.04385
      12     H     0.42216  0.42216  0.00000  0.15568
      13     C     2.92054  2.92054  0.00000  0.15893
      14     O     4.17201  4.17201  0.00000 -0.34402
      15     H     0.46146  0.46146  0.00000  0.07709

   Total alpha = 32.00000, Total beta = 32.00000, Total charge = -0.00000
