  ==> Input File <==

--------------------------------------------------------------------------
set {
	reference rhf
	basis 6-31G*
}

set_num_threads( 1 )
memory 2 gb

molecule MOL {
0 1

H	 3.729471	 -0.928294	 -0.070608
O	 2.826016	 -1.159218	 0.122261
C	 2.077727	 -0.067559	 -0.035091
C	 0.624473	 -0.343591	 0.253101
O	 2.542965	 0.974826	 -0.363729
C	 -0.265902	 0.883932	 0.072916
H	 0.324016	 -1.163849	 -0.390541
H	 0.565024	 -0.726111	 1.268924
C	 -1.728698	 0.646073	 0.462102
H	 -0.209144	 1.219470	 -0.958188
H	 0.135059	 1.692851	 0.673903
C	 -2.113018	 -0.822398	 0.664212
H	 -2.357949	 1.064223	 -0.320174
H	 -1.959932	 1.206880	 1.366637
C	 -3.603833	 -1.005447	 0.947833
H	 -1.842484	 -1.388904	 -0.224566
H	 -1.543365	 -1.250093	 1.485160
H	 -3.851469	 -2.052857	 1.088978
H	 -4.207910	 -0.629925	 0.126917
H	 -3.900161	 -0.471585	 1.846398

	symmetry c1
}
set optking {
	frozen_dihedral = ("
		16 12 9 6,
		7 4 6 10,
		5 3 4 7,
		1 2 3 5
	")
}

ee = energy('scf')
oeprop('DIPOLE', 'QUADRUPOLE', 'MULLIKEN_CHARGES')
f=open( 'psi4out.xyz', 'w' )
f.write( "20  " )
f.write( str(ee) + "\n" )
f.write( MOL.save_string_xyz() )
f.close()
--------------------------------------------------------------------------

    Molecular point group: c1

    Geometry (in Angstrom), charge = 0, multiplicity = 1:

       Center              X                  Y                   Z               Mass
    ------------   -----------------  -----------------  -----------------  -----------------
           H          3.638775850180    -0.799832982484    -0.332983853337     1.007825032070
           O          2.735320850180    -1.030756982484    -0.140114853337    15.994914619560
           C          1.987031850180     0.060902017516    -0.297466853337    12.000000000000
           C          0.533777850180    -0.215129982484    -0.009274853337    12.000000000000
           O          2.452269850180     1.103287017516    -0.626104853337    15.994914619560
           C         -0.356597149820     1.012393017516    -0.189459853337    12.000000000000
           H          0.233320850180    -1.035387982484    -0.652916853337     1.007825032070
           H          0.474328850180    -0.597649982484     1.006548146663     1.007825032070
           C         -1.819393149820     0.774534017516     0.199726146663    12.000000000000
           H         -0.299839149820     1.347931017516    -1.220563853337     1.007825032070
           H          0.044363850180     1.821312017516     0.411527146663     1.007825032070
           C         -2.203713149820    -0.693936982484     0.401836146663    12.000000000000
           H         -2.448644149820     1.192684017516    -0.582549853337     1.007825032070
           H         -2.050627149820     1.335341017516     1.104261146663     1.007825032070
           C         -3.694528149820    -0.876985982484     0.685457146663    12.000000000000
           H         -1.933179149820    -1.260442982484    -0.486941853337     1.007825032070
           H         -1.634060149820    -1.121631982484     1.222784146663     1.007825032070
           H         -3.942164149820    -1.924395982484     0.826602146663     1.007825032070
           H         -4.298605149820    -0.501463982484    -0.135458853337     1.007825032070
           H         -3.990856149820    -0.343123982484     1.584022146663     1.007825032070

  Charge       = 0
  Multiplicity = 1
  Basis Set: 6-31G*
  Basis Set:

    Orbital Energies (a.u.)
    -----------------------

    Doubly Occupied:

       1A    -20.611892     2A    -20.550648     3A    -11.380011
       4A    -11.239251     5A    -11.221450     6A    -11.221322
       7A    -11.218864     8A    -11.212399     9A     -1.473837
      10A     -1.364830    11A     -1.098467    12A     -1.037953
      13A     -0.961790    14A     -0.869151    15A     -0.824907
      16A     -0.764825    17A     -0.698958    18A     -0.688380
      19A     -0.671870    20A     -0.636954    21A     -0.596085
      22A     -0.591731    23A     -0.582555    24A     -0.548751
      25A     -0.543470    26A     -0.518813    27A     -0.500933
      28A     -0.478138    29A     -0.471169    30A     -0.458903
      31A     -0.452306    32A     -0.443045

  @DF-RHF Final Energy:  -383.93916314221178

   => Energetics <=

    Nuclear Repulsion Energy =            379.3142619852595772
    One-Electron Energy =               -1274.6394326655879468
    Two-Electron Energy =                 511.3860075381163028
    DFT Exchange-Correlation Energy =       0.0000000000000000
    Empirical Dispersion Energy =           0.0000000000000000
    PCM Polarization Energy =               0.0000000000000000
    EFP Energy =                            0.0000000000000000
    Total Energy =                       -383.9391631422120668

  Mulliken Charges: (a.u.)
   Center  Symbol    Alpha    Beta     Spin     Total
       1     H     0.26787  0.26787  0.00000  0.46426
       2     O     4.35155  4.35155  0.00000 -0.70310
       3     C     2.62098  2.62098  0.00000  0.75803
       4     C     3.21817  3.21817  0.00000 -0.43635
       5     O     4.27923  4.27923  0.00000 -0.55846
       6     C     3.15576  3.15576  0.00000 -0.31152
       7     H     0.39660  0.39660  0.00000  0.20680
       8     H     0.39767  0.39767  0.00000  0.20467
       9     C     3.15619  3.15619  0.00000 -0.31238
      10     H     0.41002  0.41002  0.00000  0.17995
      11     H     0.40720  0.40720  0.00000  0.18561
      12     C     3.15918  3.15918  0.00000 -0.31837
      13     H     0.41837  0.41837  0.00000  0.16326
      14     H     0.41912  0.41912  0.00000  0.16176
      15     C     3.23745  3.23745  0.00000 -0.47490
      16     H     0.42250  0.42250  0.00000  0.15501
      17     H     0.42162  0.42162  0.00000  0.15675
      18     H     0.41864  0.41864  0.00000  0.16273
      19     H     0.42090  0.42090  0.00000  0.15820
      20     H     0.42099  0.42099  0.00000  0.15803

   Total alpha = 32.00000, Total beta = 32.00000, Total charge = -0.00000
