  ==> Input File <==

--------------------------------------------------------------------------
set {
	reference rhf
	basis 6-31G*
}

set_num_threads( 4 )
memory 2 gb

molecule MOL {
0 1

H	 -4.031818	 -0.453427	 -0.000094
C	 -2.967712	 -0.297022	 -0.000064
C	 -2.458620	 0.992929	 0.000032
C	 -2.109895	 -1.385637	 -0.000122
H	 -3.124998	 1.836319	 0.000077
C	 -1.090278	 1.193236	 0.000070
H	 -2.506361	 -2.384847	 -0.000198
C	 -0.739812	 -1.187531	 -0.000085
H	 -0.678594	 2.184290	 0.000146
C	 -0.226438	 0.104061	 0.000012
H	 -0.072310	 -2.027032	 -0.000131
C	 1.239129	 0.373821	 0.000060
O	 1.956987	 -0.658414	 -0.416801
O	 1.725635	 1.407241	 0.338018
C	 3.362997	 -0.488757	 -0.448802
H	 3.631692	 0.317383	 -1.115687
H	 3.763487	 -1.423323	 -0.809422
H	 3.740880	 -0.274710	 0.540292

	symmetry c1
}
set optking {
	frozen_dihedral = ("
		13 12 10 6
	")
}

ee = optimize('scf')
oeprop('DIPOLE', 'QUADRUPOLE', 'MULLIKEN_CHARGES')
f=open( 'psi4out.xyz', 'w' )
f.write( "18  " )
f.write( str(ee) + "\n" )
f.write( MOL.save_string_xyz() )
f.close()
--------------------------------------------------------------------------

    Molecular point group: c1
  Charge       = 0
  Multiplicity = 1
  Basis Set: 6-31G*
  Basis Set:
  @DF-RHF Final Energy:  -457.34952566396129
    Total Energy =                       -457.3495256639610034
    Molecular point group: c1
  Basis Set: 6-31G*
  Basis Set:
  Basis Set: 6-31G*
  Basis Set:
  @DF-RHF Final Energy:  -457.34836139047422
    Total Energy =                       -457.3483613904742242
  Basis Set: 6-31G*
  Basis Set:
  Basis Set: 6-31G*
  Basis Set:
  @DF-RHF Final Energy:  -457.34962201614172
    Total Energy =                       -457.3496220161414385
  Basis Set: 6-31G*
  Basis Set:
  Basis Set: 6-31G*
  Basis Set:
  @DF-RHF Final Energy:  -457.34964565489514
    Total Energy =                       -457.3496456548950846
  Basis Set: 6-31G*
  Basis Set:
  Charge       = 0
  Multiplicity = 1
  Basis Set: 6-31G*
  Basis Set:

    Orbital Energies (a.u.)
    -----------------------

    Doubly Occupied:

       1A    -20.608022     2A    -20.544945     3A    -11.377963
       4A    -11.283024     5A    -11.246059     6A    -11.244853
       7A    -11.244335     8A    -11.242133     9A    -11.237812
      10A    -11.237076    11A     -1.472972    12A     -1.364248
      13A     -1.165551    14A     -1.048307    15A     -1.025043
      16A     -0.978301    17A     -0.860215    18A     -0.834918
      19A     -0.778025    20A     -0.739532    21A     -0.683470
      22A     -0.677579    23A     -0.672624    24A     -0.630934
      25A     -0.624799    26A     -0.597698    27A     -0.585829
      28A     -0.559589    29A     -0.530244    30A     -0.516489
      31A     -0.504174    32A     -0.499719    33A     -0.458871
      34A     -0.444485    35A     -0.344606    36A     -0.341249

  @DF-RHF Final Energy:  -457.34964619042421

   => Energetics <=

    Nuclear Repulsion Energy =            492.9445567602878100
    One-Electron Energy =               -1600.1770199579723339
    Two-Electron Energy =                 649.8828170072602006
    DFT Exchange-Correlation Energy =       0.0000000000000000
    Empirical Dispersion Energy =           0.0000000000000000
    PCM Polarization Energy =               0.0000000000000000
    EFP Energy =                            0.0000000000000000
    Total Energy =                       -457.3496461904242096
    Molecular point group: c1
  Basis Set: 6-31G*
  Basis Set:

  -Total Gradient:
     Atom            X                  Y                   Z
    ------   -----------------  -----------------  -----------------
       1       -0.000001011229     0.000002459832    -0.000012340455
       2        0.000004606750    -0.000028883456     0.000039395824
       3        0.000025624717     0.000019570541    -0.000017115344
       4       -0.000024910806     0.000005282785     0.000001366129
       5        0.000000149070    -0.000000654137     0.000006266932
       6       -0.000035809940    -0.000007363105    -0.002525570108
       7        0.000002569445    -0.000000730989    -0.000003118247
       8        0.000017666893     0.000004546338    -0.000030655552
       9        0.000004346857    -0.000002204377    -0.000004213725
      10        0.000000726684     0.000288958717     0.002785827630
      11       -0.000007008922     0.000004750411     0.000027641269
      12        0.000231160228    -0.001125224341     0.002128660860
      13       -0.000186369327     0.000828782724    -0.002455638777
      14       -0.000020950847     0.000022930385     0.000010177879
      15       -0.000002615280    -0.000031454666     0.000119916361
      16       -0.000024983714     0.000017344644    -0.000018361744
      17       -0.000003905601     0.000003631156    -0.000020619055
      18        0.000020715011    -0.000001742460    -0.000031619878

  **** Optimization is complete! (in 5 steps) ****
    Final optimized geometry and variables:
    Molecular point group: c1

    Geometry (in Angstrom), charge = 0, multiplicity = 1:

    H           -4.027318729439    -0.469996649254     0.049534907824
    C           -2.963637325470    -0.311334728137     0.056253272944
    C           -2.457280464329     0.979541516717     0.060106029676
    C           -2.103415881612    -1.398186400740     0.057599663674
    H           -3.125362329712     1.821605233672     0.053451535248
    C           -1.089231626648     1.183070667613     0.073524266101
    H           -2.497731388190    -2.398224413337     0.053408580891
    C           -0.733881022489    -1.196782800723     0.057361651087
    H           -0.680655487614     2.175556890637     0.085509209012
    C           -0.223941704823     0.095695675226     0.076917367753
    H           -0.064052370707    -2.034804902473     0.045536465432
    C            1.241573397928     0.366056902832     0.064379080343
    O            1.953719168764    -0.671430405242    -0.348902660408
    O            1.728478509710     1.411131214720     0.363000190332
    C            3.360235366603    -0.507075983391    -0.387653980360
    H            3.628199553297     0.288812065352    -1.066972091362
    H            3.756140849026    -1.447731122755    -0.737163054193
    H            3.743559529805    -0.280137508851     0.596557545804

  Mulliken Charges: (a.u.)
   Center  Symbol    Alpha    Beta     Spin     Total
       1     H     0.39549  0.39549  0.00000  0.20902
       2     C     3.09063  3.09063  0.00000 -0.18125
       3     C     3.10645  3.10645  0.00000 -0.21290
       4     C     3.10683  3.10683  0.00000 -0.21366
       5     H     0.39538  0.39538  0.00000  0.20924
       6     C     3.08850  3.08850  0.00000 -0.17700
       7     H     0.39619  0.39619  0.00000  0.20761
       8     C     3.08782  3.08782  0.00000 -0.17564
       9     H     0.37742  0.37742  0.00000  0.24517
      10     C     3.06546  3.06546  0.00000 -0.13092
      11     H     0.38214  0.38214  0.00000  0.23572
      12     C     2.59075  2.59075  0.00000  0.81849
      13     O     4.31082  4.31082  0.00000 -0.62165
      14     O     4.29035  4.29035  0.00000 -0.58070
      15     C     3.09304  3.09304  0.00000 -0.18608
      16     H     0.40710  0.40710  0.00000  0.18580
      17     H     0.40776  0.40776  0.00000  0.18447
      18     H     0.40786  0.40786  0.00000  0.18429

   Total alpha = 36.00000, Total beta = 36.00000, Total charge = -0.00000
