                              Psi4 1.0.54 Driver

  ==> Input File <==

--------------------------------------------------------------------------
set {
	reference rhf
	basis cc-pvtz
}

set_num_threads( 4 )
memory 2 gb

molecule MOL {
0 1

O	 1.847685	 1.294399	 -0.000190
C	 1.704209	 0.119472	 -0.000093
C	 0.380337	 -0.600947	 -0.000234
O	 2.715427	 -0.733672	 0.000025
C	 -0.824290	 0.329213	 -0.000115
H	 0.371455	 -1.255476	 -0.865660
H	 0.371410	 -1.255787	 0.864952
C	 -2.075448	 -0.341331	 0.559342
H	 -1.011138	 0.671982	 -1.011486
H	 -0.591262	 1.215521	 0.579063
C	 -3.294436	 0.576527	 0.568008
H	 -2.302191	 -1.230778	 -0.024372
H	 -1.880314	 -0.685573	 1.572584
C	 -4.545047	 -0.093743	 1.126687
H	 -3.490835	 0.920190	 -0.443664
H	 -3.069661	 1.464489	 1.152095
H	 -4.815891	 -0.966812	 0.542197
H	 -5.390576	 0.584304	 1.118355
H	 -4.391527	 -0.417857	 2.150706
C	 4.020999	 -0.192556	 0.000019
H	 4.182809	 0.412891	 -0.879449
H	 4.692590	 -1.035653	 0.000152
H	 4.182726	 0.413087	 0.879368

	symmetry c1
}
set optking {
	frozen_dihedral = ("
		9 5 3 6
	")
}

ee,wfn = optimize('scf', return_wfn=True)
oeprop( wfn, 'DIPOLE', 'QUADRUPOLE', 'MULLIKEN_CHARGES')
f=open( 'psi4out.xyz', 'w' )
f.write( "23  " )
f.write( str(ee) + "\n" )
f.write( MOL.save_string_xyz() )
f.close()
--------------------------------------------------------------------------

    Molecular point group: c1
  Charge       = 0
  Multiplicity = 1
  Basis Set: CC-PVTZ
  Basis Set:
  @DF-RHF Final Energy:  -423.12943631673608
    Total Energy =                       -423.1294363167360189
    Molecular point group: c1
  Basis Set: CC-PVTZ
  Basis Set:
  Basis Set: CC-PVTZ
  Basis Set:
  @DF-RHF Final Energy:  -423.12961083340394
    Total Energy =                       -423.1296108334036035
  Basis Set: CC-PVTZ
  Basis Set:
  Basis Set: CC-PVTZ
  Basis Set:
  @DF-RHF Final Energy:  -423.12957170046803
    Total Energy =                       -423.1295717004675225
  Basis Set: CC-PVTZ
  Basis Set:
  Basis Set: CC-PVTZ
  Basis Set:
  @DF-RHF Final Energy:  -423.12964191818537
    Total Energy =                       -423.1296419181853707
  Basis Set: CC-PVTZ
  Basis Set:
  Basis Set: CC-PVTZ
  Basis Set:
  @DF-RHF Final Energy:  -423.12965262227203
    Total Energy =                       -423.1296526222719194
  Basis Set: CC-PVTZ
  Basis Set:
  Charge       = 0
  Multiplicity = 1
  Basis Set: CC-PVTZ
  Basis Set:

    Orbital Energies (a.u.)
    -----------------------

    Doubly Occupied:

       1A    -20.596198     2A    -20.534198     3A    -11.364544
       4A    -11.278451     5A    -11.233995     6A    -11.216812
       7A    -11.215543     8A    -11.214277     9A    -11.207633
      10A     -1.472172    11A     -1.365725    12A     -1.093841
      13A     -1.044463    14A     -0.987881    15A     -0.932477
      16A     -0.844152    17A     -0.795275    18A     -0.768984
      19A     -0.699288    20A     -0.686334    21A     -0.675412
      22A     -0.651778    23A     -0.610793    24A     -0.600767
      25A     -0.572995    26A     -0.559203    27A     -0.558300
      28A     -0.525851    29A     -0.523653    30A     -0.506248
      31A     -0.485871    32A     -0.469015    33A     -0.466570
      34A     -0.462478    35A     -0.459411    36A     -0.438263

  @DF-RHF Final Energy:  -423.12965307661227

   => Energetics <=

    Nuclear Repulsion Energy =            453.0028826878422024
    One-Electron Energy =               -1474.0273755976190841
    Two-Electron Energy =                 597.8948398331644967
    DFT Exchange-Correlation Energy =       0.0000000000000000
    Empirical Dispersion Energy =           0.0000000000000000
    PCM Polarization Energy =               0.0000000000000000
    EFP Energy =                            0.0000000000000000
    Total Energy =                       -423.1296530766123851
    Molecular point group: c1
  Basis Set: CC-PVTZ
  Basis Set:

  -Total Gradient:
     Atom            X                  Y                   Z
    ------   -----------------  -----------------  -----------------
       1        0.000006278206    -0.000011354107     0.000017519442
       2       -0.000000948242    -0.000033742522    -0.000035904203
       3       -0.002640001059    -0.003395501817     0.001999788659
       4        0.000018771165     0.000008729397     0.000007936143
       5        0.002885541451     0.003679595178     0.000277847185
       6        0.001759374979     0.002237819250    -0.001688932756
       7        0.000003525299    -0.000013130705     0.000002476436
       8        0.000001540065     0.000023422421    -0.000086828238
       9       -0.002022242741    -0.002556171738    -0.000482211103
      10        0.000002082551     0.000060712697    -0.000008690795
      11       -0.000041975037    -0.000020617808    -0.000006336712
      12       -0.000017012290    -0.000036848862    -0.000021410319
      13        0.000036984570     0.000008669553    -0.000000727932
      14        0.000003059733     0.000029484886     0.000017061664
      15       -0.000007670211    -0.000001020776    -0.000020032279
      16       -0.000002773917     0.000021954976     0.000011582324
      17        0.000001711712    -0.000010746147    -0.000021430182
      18       -0.000032142568     0.000016274516     0.000010787887
      19        0.000002184916    -0.000010559926     0.000026421326
      20        0.000025097354    -0.000004787536    -0.000010211548
      21        0.000002594874    -0.000002948409     0.000001332254
      22        0.000009310760     0.000001423546    -0.000001799579
      23        0.000006708426     0.000009343935     0.000011762325

  **** Optimization is complete! (in 6 steps) ****
    Final optimized geometry and variables:
    Molecular point group: c1

    Geometry (in Angstrom), charge = 0, multiplicity = 1:

    O            1.840967878091     1.254375808270    -0.242518994577
    C            1.682559851058     0.081437996115    -0.234634966657
    C            0.351251299529    -0.628812804468    -0.200211487784
    O            2.683865432538    -0.783429044812    -0.258087611061
    C           -0.849915083972     0.311852729953    -0.191859619247
    H            0.337451497964    -1.276546627832    -1.070005932207
    H            0.359130295955    -1.277456338095     0.668741312475
    C           -2.115221064715    -0.372588816446     0.321806584262
    H           -1.034065685922     0.662802641056    -1.201638172087
    H           -0.628089337226     1.182229132310     0.411177783766
    C           -3.343164765281     0.532384513807     0.286046093650
    H           -2.312152490980    -1.265799531861    -0.267487338191
    H           -1.951179026287    -0.712443424700     1.341886324247
    C           -4.602940494983    -0.145367417437     0.814428991963
    H           -3.513874193458     0.864854798980    -0.734128604410
    H           -3.144150683819     1.427943124389     0.867979195220
    H           -4.847939640668    -1.026494365270     0.230507484344
    H           -5.454619867498     0.523945855135     0.775250173131
    H           -4.476065459141    -0.458537027436     1.845486524030
    C            3.995198680068    -0.257767456563    -0.293087109704
    H            4.141570285303     0.343424086521    -1.178168526327
    H            4.656735570843    -1.108692190171    -0.307710618940
    H            4.186755501519     0.348221900257     0.580056183611

  Mulliken Charges: (a.u.)
   Center  Symbol    Alpha    Beta     Spin     Total
       1     O     4.19634  4.19634  0.00000 -0.39269
       2     C     2.80506  2.80506  0.00000  0.38987
       3     C     3.10310  3.10310  0.00000 -0.20620
       4     O     4.14710  4.14710  0.00000 -0.29421
       5     C     3.08659  3.08659  0.00000 -0.17318
       6     H     0.43845  0.43845  0.00000  0.12309
       7     H     0.43992  0.43992  0.00000  0.12017
       8     C     3.08982  3.08982  0.00000 -0.17964
       9     H     0.45151  0.45151  0.00000  0.09698
      10     H     0.43963  0.43963  0.00000  0.12073
      11     C     3.08443  3.08443  0.00000 -0.16886
      12     H     0.45568  0.45568  0.00000  0.08864
      13     H     0.45553  0.45553  0.00000  0.08895
      14     C     3.15008  3.15008  0.00000 -0.30016
      15     H     0.45377  0.45377  0.00000  0.09245
      16     H     0.45275  0.45275  0.00000  0.09449
      17     H     0.45551  0.45551  0.00000  0.08898
      18     H     0.44785  0.44785  0.00000  0.10430
      19     H     0.45517  0.45517  0.00000  0.08966
      20     C     3.03741  3.03741  0.00000 -0.07482
      21     H     0.45445  0.45445  0.00000  0.09111
      22     H     0.44545  0.44545  0.00000  0.10909
      23     H     0.45439  0.45439  0.00000  0.09122

   Total alpha = 36.00000, Total beta = 36.00000, Total charge = -0.00000

*** Psi4 exiting successfully. Buy a developer a beer!
