  ==> Input File <==

--------------------------------------------------------------------------
set {
	reference rhf
	basis 6-31G*
}

set_num_threads( 1 )
memory 2 gb

molecule MOL {
0 1

H	 -2.742729	 -0.369434	 -0.776942
O	 -2.347518	 -0.290803	 0.079804
C	 -1.184022	 0.487508	 -0.006784
C	 0.062599	 -0.378592	 0.031606
H	 -1.176523	 1.099369	 -0.904519
H	 -1.187323	 1.153111	 0.844927
O	 1.171513	 0.459272	 -0.058250
H	 0.050699	 -1.089204	 -0.797170
H	 0.078739	 -0.954914	 0.954740
C	 2.397842	 -0.198080	 -0.002151
H	 2.508049	 -0.905315	 -0.822092
H	 3.173794	 0.550865	 -0.078850
H	 2.517602	 -0.735921	 0.936026

	symmetry c1
}
set optking {
	frozen_dihedral = ("
		8 4 3 5,
		10 7 4 8,
		4 7 10 13
	")
}

ee = energy('scf')
oeprop('DIPOLE', 'QUADRUPOLE', 'MULLIKEN_CHARGES')
f=open( 'psi4out.xyz', 'w' )
f.write( "13  " )
f.write( str(ee) + "\n" )
f.write( MOL.save_string_xyz() )
f.close()
--------------------------------------------------------------------------

    Molecular point group: c1

    Geometry (in Angstrom), charge = 0, multiplicity = 1:

       Center              X                  Y                   Z               Mass
    ------------   -----------------  -----------------  -----------------  -----------------
           H         -2.739500320714    -0.374212857057    -0.776519765074     1.007825032070
           O         -2.344289320714    -0.295581857057     0.080226234926    15.994914619560
           C         -1.180793320714     0.482729142943    -0.006361765074    12.000000000000
           C          0.065827679286    -0.383370857057     0.032028234926    12.000000000000
           H         -1.173294320714     1.094590142943    -0.904096765074     1.007825032070
           H         -1.184094320714     1.148332142943     0.845349234926     1.007825032070
           O          1.174741679286     0.454493142943    -0.057827765074    15.994914619560
           H          0.053927679286    -1.093982857057    -0.796747765074     1.007825032070
           H          0.081967679286    -0.959692857057     0.955162234926     1.007825032070
           C          2.401070679286    -0.202858857057    -0.001728765074    12.000000000000
           H          2.511277679286    -0.910093857057    -0.821669765074     1.007825032070
           H          3.177022679286     0.546086142943    -0.078427765074     1.007825032070
           H          2.520830679286    -0.740699857057     0.936448234926     1.007825032070

  Charge       = 0
  Multiplicity = 1
  Basis Set: 6-31G*
  Basis Set:

    Orbital Energies (a.u.)
    -----------------------

    Doubly Occupied:

       1A    -20.560345     2A    -20.559065     3A    -11.268871
       4A    -11.268742     5A    -11.267693     6A     -1.386851
       7A     -1.364425     8A     -1.017382     9A     -0.912189
      10A     -0.836635    11A     -0.712237    12A     -0.674695
      13A     -0.652848    14A     -0.639907    15A     -0.599993
      16A     -0.558109    17A     -0.546344    18A     -0.487671
      19A     -0.482436    20A     -0.436695    21A     -0.419581

  @DF-RHF Final Energy:  -267.94974478164841

   => Energetics <=

    Nuclear Repulsion Energy =            190.0612680480436438
    One-Electron Energy =                -742.7165270916125337
    Two-Electron Energy =                 284.7055142619204844
    DFT Exchange-Correlation Energy =       0.0000000000000000
    Empirical Dispersion Energy =           0.0000000000000000
    PCM Polarization Energy =               0.0000000000000000
    EFP Energy =                            0.0000000000000000
    Total Energy =                       -267.9497447816484055

  Mulliken Charges: (a.u.)
   Center  Symbol    Alpha    Beta     Spin     Total
       1     H     0.27866  0.27866  0.00000  0.44267
       2     O     4.37293  4.37293  0.00000 -0.74586
       3     C     3.00655  3.00655  0.00000 -0.01311
       4     C     2.99302  2.99302  0.00000  0.01395
       5     H     0.42299  0.42299  0.00000  0.15402
       6     H     0.41201  0.41201  0.00000  0.17597
       7     O     4.30826  4.30826  0.00000 -0.61651
       8     H     0.43377  0.43377  0.00000  0.13246
       9     H     0.42394  0.42394  0.00000  0.15212
      10     C     3.07956  3.07956  0.00000 -0.15913
      11     H     0.42921  0.42921  0.00000  0.14159
      12     H     0.41127  0.41127  0.00000  0.17747
      13     H     0.42782  0.42782  0.00000  0.14436

   Total alpha = 21.00000, Total beta = 21.00000, Total charge = -0.00000
