  ==> Input File <==

--------------------------------------------------------------------------
set {
	reference rhf
	basis 6-31G*
}

set_num_threads( 1 )
memory 2 gb

molecule MOL {
0 1

H	 -3.135461	 -1.215070	 0.001379
O	 -2.310168	 -0.871793	 -0.309793
C	 -2.026376	 0.340750	 0.341611
C	 -0.673256	 0.843270	 -0.132153
H	 -2.792215	 1.080697	 0.115987
H	 -2.013526	 0.200402	 1.421792
C	 0.486613	 -0.083066	 0.235839
H	 -0.715586	 0.970948	 -1.210718
H	 -0.508072	 1.829858	 0.297090
C	 0.765248	 -0.120712	 1.739421
H	 1.378736	 0.236967	 -0.292564
H	 0.264762	 -1.091045	 -0.112873
C	 1.920541	 -1.050924	 2.107764
H	 0.987784	 0.885304	 2.088889
H	 -0.132858	 -0.435074	 2.267650
H	 2.841580	 -0.741695	 1.622012
H	 2.096720	 -1.055752	 3.179157
H	 1.713915	 -2.072847	 1.802004

	symmetry c1
}
set optking {
	frozen_dihedral = ("
		14 10 7 11,
		2 3 4 8,
		1 2 3 4
	")
}

ee = energy('scf')
oeprop('DIPOLE', 'QUADRUPOLE', 'MULLIKEN_CHARGES')
f=open( 'psi4out.xyz', 'w' )
f.write( "18  " )
f.write( str(ee) + "\n" )
f.write( MOL.save_string_xyz() )
f.close()
--------------------------------------------------------------------------

    Molecular point group: c1

    Geometry (in Angstrom), charge = 0, multiplicity = 1:

       Center              X                  Y                   Z               Mass
    ------------   -----------------  -----------------  -----------------  -----------------
           H         -2.780228247748    -1.031042574696    -0.655026228576     1.007825032070
           O         -1.954935247748    -0.687765574696    -0.966198228576    15.994914619560
           C         -1.671143247748     0.524777425304    -0.314794228576    12.000000000000
           C         -0.318023247748     1.027297425304    -0.788558228576    12.000000000000
           H         -2.436982247748     1.264724425304    -0.540418228576     1.007825032070
           H         -1.658293247748     0.384429425304     0.765386771424     1.007825032070
           C          0.841845752252     0.100961425304    -0.420566228576    12.000000000000
           H         -0.360353247748     1.154975425304    -1.867123228576     1.007825032070
           H         -0.152839247748     2.013885425304    -0.359315228576     1.007825032070
           C          1.120480752252     0.063315425304     1.083015771424    12.000000000000
           H          1.733968752252     0.420994425304    -0.948969228576     1.007825032070
           H          0.619994752252    -0.907017574696    -0.769278228576     1.007825032070
           C          2.275773752252    -0.866896574696     1.451358771424    12.000000000000
           H          1.343016752252     1.069331425304     1.432483771424     1.007825032070
           H          0.222374752252    -0.251046574696     1.611244771424     1.007825032070
           H          3.196812752252    -0.557667574696     0.965606771424     1.007825032070
           H          2.451952752252    -0.871724574696     2.522751771424     1.007825032070
           H          2.069147752252    -1.888819574696     1.145598771424     1.007825032070

  Charge       = 0
  Multiplicity = 1
  Basis Set: 6-31G*
  Basis Set:

    Orbital Energies (a.u.)
    -----------------------

    Doubly Occupied:

       1A    -20.553182     2A    -11.267194     3A    -11.211831
       4A    -11.211231     5A    -11.206118     6A    -11.205201
       7A     -1.359888     8A     -1.076385     9A     -1.006622
      10A     -0.912814    11A     -0.830176    12A     -0.772240
      13A     -0.703225    14A     -0.650181    15A     -0.620601
      16A     -0.583940    17A     -0.563242    18A     -0.555718
      19A     -0.534554    20A     -0.502500    21A     -0.487767
      22A     -0.466256    23A     -0.453924    24A     -0.449441
      25A     -0.427800

  @DF-RHF Final Energy:  -271.17787952303468

   => Energetics <=

    Nuclear Repulsion Energy =            253.7005339043242884
    One-Electron Energy =                -870.5327876968975715
    Two-Electron Energy =                 345.6543742695379251
    DFT Exchange-Correlation Energy =       0.0000000000000000
    Empirical Dispersion Energy =           0.0000000000000000
    PCM Polarization Energy =               0.0000000000000000
    EFP Energy =                            0.0000000000000000
    Total Energy =                       -271.1778795230353580

  Mulliken Charges: (a.u.)
   Center  Symbol    Alpha    Beta     Spin     Total
       1     H     0.28064  0.28064  0.00000  0.43871
       2     O     4.36969  4.36969  0.00000 -0.73937
       3     C     2.99943  2.99943  0.00000  0.00114
       4     C     3.16235  3.16235  0.00000 -0.32470
       5     H     0.42884  0.42884  0.00000  0.14231
       6     H     0.43100  0.43100  0.00000  0.13800
       7     C     3.15569  3.15569  0.00000 -0.31138
       8     H     0.41293  0.41293  0.00000  0.17414
       9     H     0.42414  0.42414  0.00000  0.15172
      10     C     3.15490  3.15490  0.00000 -0.30980
      11     H     0.42229  0.42229  0.00000  0.15541
      12     H     0.40806  0.40806  0.00000  0.18388
      13     C     3.23836  3.23836  0.00000 -0.47671
      14     H     0.42550  0.42550  0.00000  0.14900
      15     H     0.42254  0.42254  0.00000  0.15491
      16     H     0.42214  0.42214  0.00000  0.15572
      17     H     0.42087  0.42087  0.00000  0.15826
      18     H     0.42062  0.42062  0.00000  0.15875

   Total alpha = 25.00000, Total beta = 25.00000, Total charge =  0.00000
