  ==> Input File <==

--------------------------------------------------------------------------
set {
	reference rhf
	basis cc-pvtz
}

set_num_threads( 4 )
memory 2 gb

molecule MOL {
0 1

H	 3.083659	 -1.378387	 0.000000
O	 2.179005	 -1.633391	 0.000000
C	 1.366950	 -0.558201	 0.000000
C	 1.083063	 0.155438	 1.154473
C	 0.810479	 -0.173247	 -1.202568
H	 1.517416	 -0.145832	 2.090424
C	 0.244709	 1.250687	 1.104018
H	 1.027785	 -0.722342	 -2.095942
C	 -0.028646	 0.925620	 -1.244145
H	 0.032265	 1.795159	 2.003597
C	 -0.316026	 1.642329	 -0.094987
C	 -0.634502	 1.350660	 -2.533198
H	 -0.968303	 2.493581	 -0.137323
O	 -0.457222	 0.812167	 -3.571474
H	 -1.283271	 2.229381	 -2.465765

	symmetry c1
}
set optking {
	frozen_dihedral = ("
		4 3 2 1
	")
}

ee = optimize('scf')
oeprop('DIPOLE', 'QUADRUPOLE', 'MULLIKEN_CHARGES')
f=open( 'psi4out.xyz', 'w' )
f.write( "15  " )
f.write( str(ee) + "\n" )
f.write( MOL.save_string_xyz() )
f.close()
--------------------------------------------------------------------------

    Molecular point group: c1
  Charge       = 0
  Multiplicity = 1
  Basis Set: CC-PVTZ
  Basis Set:
  @DF-RHF Final Energy:  -418.43457608470737
    Total Energy =                       -418.4345760847074871
    Molecular point group: c1
  Basis Set: CC-PVTZ
  Basis Set:
  Basis Set: CC-PVTZ
  Basis Set:
  @DF-RHF Final Energy:  -418.43525362604913
    Total Energy =                       -418.4352536260493025
  Basis Set: CC-PVTZ
  Basis Set:
  Basis Set: CC-PVTZ
  Basis Set:
  @DF-RHF Final Energy:  -418.43462336859216
    Total Energy =                       -418.4346233685923835
  Basis Set: CC-PVTZ
  Basis Set:
  Basis Set: CC-PVTZ
  Basis Set:
  @DF-RHF Final Energy:  -418.43536464179067
    Total Energy =                       -418.4353646417908976
  Basis Set: CC-PVTZ
  Basis Set:
  Basis Set: CC-PVTZ
  Basis Set:
  @DF-RHF Final Energy:  -418.43537259004620
    Total Energy =                       -418.4353725900461995
  Basis Set: CC-PVTZ
  Basis Set:
  Charge       = 0
  Multiplicity = 1
  Basis Set: CC-PVTZ
  Basis Set:

    Orbital Energies (a.u.)
    -----------------------

    Doubly Occupied:

       1A    -20.582150     2A    -20.554997     3A    -11.328775
       4A    -11.303237     5A    -11.251088     6A    -11.249988
       7A    -11.249053     8A    -11.247609     9A    -11.241982
      10A     -1.411139    11A     -1.409845    12A     -1.175269
      13A     -1.052646    14A     -1.030436    15A     -0.900439
      16A     -0.849968    17A     -0.806274    18A     -0.745240
      19A     -0.701956    20A     -0.686776    21A     -0.654757
      22A     -0.639954    23A     -0.623088    24A     -0.610585
      25A     -0.562102    26A     -0.549185    27A     -0.536529
      28A     -0.503817    29A     -0.492389    30A     -0.427283
      31A     -0.357208    32A     -0.346483

  @DF-RHF Final Energy:  -418.43537411553910

   => Energetics <=

    Nuclear Repulsion Energy =            403.5271091059323112
    One-Electron Energy =               -1369.7604662121100318
    Two-Electron Energy =                 547.7979829906385021
    DFT Exchange-Correlation Energy =       0.0000000000000000
    Empirical Dispersion Energy =           0.0000000000000000
    PCM Polarization Energy =               0.0000000000000000
    EFP Energy =                            0.0000000000000000
    Total Energy =                       -418.4353741155391617
    Molecular point group: c1
  Basis Set: CC-PVTZ
  Basis Set:

  -Total Gradient:
     Atom            X                  Y                   Z
    ------   -----------------  -----------------  -----------------
       1        0.000013413944     0.000019903709    -0.000559602173
       2       -0.000152010706    -0.000239052217     0.000673895651
       3        0.000436735456     0.000583981921    -0.000013767474
       4       -0.000239755343    -0.000413250639     0.000001363145
       5       -0.000030214842    -0.000004946953    -0.000079928533
       6        0.000002609359    -0.000015093915     0.000004373824
       7       -0.000099997254     0.000169548192    -0.000129666515
       8       -0.000011328373     0.000001953100     0.000007342760
       9        0.000085507620    -0.000098317488    -0.000089161001
      10        0.000008179862    -0.000013020628    -0.000009613873
      11        0.000009747341    -0.000019773651     0.000203802607
      12       -0.000010759744     0.000029728123     0.000016341777
      13       -0.000013721919     0.000002205464    -0.000030664536
      14        0.000004549986    -0.000003767430     0.000009715183
      15       -0.000002955390    -0.000000097590    -0.000004430850

  **** Optimization is complete! (in 6 steps) ****
    Final optimized geometry and variables:
    Molecular point group: c1

    Geometry (in Angstrom), charge = 0, multiplicity = 1:

    H            2.584254807724    -1.787724230315     0.818400368094
    O            1.675833910742    -2.031926451623     0.783877771926
    C            0.877759137002    -0.925900377266     0.734001139053
    C            0.590568205108    -0.223024289171     1.894793482319
    C            0.313824160708    -0.546474103924    -0.461230350380
    H            1.024329606865    -0.547318290769     2.821179833169
    C           -0.250532853265     0.868639006963     1.853205212514
    H            0.523407200175    -1.096642041359    -1.356208090235
    C           -0.536745847061     0.549880919365    -0.500262182155
    H           -0.468579794829     1.409173308499     2.753652362732
    C           -0.817337478767     1.257833547232     0.652839267103
    C           -1.151668059471     0.973540924598    -1.783226515220
    H           -1.476698023494     2.104589258096     0.616558715351
    O           -0.968551317977     0.444311638801    -2.825603643299
    H           -1.812970206250     1.842676575801    -1.708661973807

  Mulliken Charges: (a.u.)
   Center  Symbol    Alpha    Beta     Spin     Total
       1     H     0.38730  0.38730  0.00000  0.22541
       2     O     4.18763  4.18763  0.00000 -0.37525
       3     C     2.86216  2.86216  0.00000  0.27568
       4     C     3.10596  3.10596  0.00000 -0.21193
       5     C     3.11830  3.11830  0.00000 -0.23660
       6     H     0.41481  0.41481  0.00000  0.17038
       7     C     3.06738  3.06738  0.00000 -0.13476
       8     H     0.40202  0.40202  0.00000  0.19596
       9     C     2.98009  2.98009  0.00000  0.03981
      10     H     0.41870  0.41870  0.00000  0.16259
      11     C     3.09754  3.09754  0.00000 -0.19507
      12     C     2.90890  2.90890  0.00000  0.18220
      13     H     0.42232  0.42232  0.00000  0.15537
      14     O     4.17036  4.17036  0.00000 -0.34071
      15     H     0.45653  0.45653  0.00000  0.08694

   Total alpha = 32.00000, Total beta = 32.00000, Total charge = -0.00000
