  ==> Input File <==

--------------------------------------------------------------------------
set {
	reference rhf
	basis 6-31G*
}

set_num_threads( 4 )
memory 2 gb

molecule MOL {
0 1

H	 -4.236494	 0.538104	 0.039757
O	 -3.517110	 -0.026191	 -0.205115
C	 -2.306886	 0.532354	 0.237577
C	 -1.177863	 -0.397191	 -0.171080
H	 -2.156308	 1.517575	 -0.201710
H	 -2.315015	 0.655684	 1.319734
C	 0.198102	 0.111031	 0.262842
H	 -1.208843	 -0.518759	 -1.250427
H	 -1.368741	 -1.376554	 0.258909
C	 1.331804	 -0.827780	 -0.158768
H	 0.361943	 1.100838	 -0.156218
H	 0.217265	 0.229072	 1.345532
C	 2.723619	 -0.410569	 0.329459
H	 1.342964	 -0.912588	 -1.244120
H	 1.116806	 -1.824343	 0.220779
C	 3.664470	 -1.576094	 0.640400
H	 2.606513	 0.191405	 1.227235
H	 3.185158	 0.238553	 -0.412018
H	 3.223342	 -2.249435	 1.370508
H	 3.899358	 -2.156720	 -0.245533
H	 4.602800	 -1.214963	 1.050126

	symmetry c1
}
set optking {
	frozen_dihedral = ("
		16 13 10 14
	")
}

ee = optimize('scf')
oeprop('DIPOLE', 'QUADRUPOLE', 'MULLIKEN_CHARGES')
f=open( 'psi4out.xyz', 'w' )
f.write( "21  " )
f.write( str(ee) + "\n" )
f.write( MOL.save_string_xyz() )
f.close()
--------------------------------------------------------------------------

    Molecular point group: c1
  Charge       = 0
  Multiplicity = 1
  Basis Set: 6-31G*
  Basis Set:
  @DF-RHF Final Energy:  -310.21077249425548
    Total Energy =                       -310.2107724942558207
    Molecular point group: c1
  Basis Set: 6-31G*
  Basis Set:
  Basis Set: 6-31G*
  Basis Set:
  @DF-RHF Final Energy:  -310.21143507974767
    Total Energy =                       -310.2114350797475595
  Basis Set: 6-31G*
  Basis Set:
  Basis Set: 6-31G*
  Basis Set:
  @DF-RHF Final Energy:  -310.21149637967142
    Total Energy =                       -310.2114963796717007
  Basis Set: 6-31G*
  Basis Set:
  Basis Set: 6-31G*
  Basis Set:
  @DF-RHF Final Energy:  -310.21149530394376
    Total Energy =                       -310.2114953039438205
  Basis Set: 6-31G*
  Basis Set:
  Basis Set: 6-31G*
  Basis Set:
  @DF-RHF Final Energy:  -310.21150318440579
    Total Energy =                       -310.2115031844060695
  Basis Set: 6-31G*
  Basis Set:
  Charge       = 0
  Multiplicity = 1
  Basis Set: 6-31G*
  Basis Set:

    Orbital Energies (a.u.)
    -----------------------

    Doubly Occupied:

       1A    -20.551805     2A    -11.267043     3A    -11.216060
       4A    -11.214671     5A    -11.213252     6A    -11.210478
       7A    -11.208178     8A     -1.358624     9A     -1.085475
      10A     -1.033867    11A     -0.956734    12A     -0.866931
      13A     -0.802342    14A     -0.790454    15A     -0.691935
      16A     -0.663017    17A     -0.630142    18A     -0.596931
      19A     -0.583356    20A     -0.562549    21A     -0.545554
      22A     -0.522179    23A     -0.506607    24A     -0.485038
      25A     -0.477138    26A     -0.462644    27A     -0.458888
      28A     -0.441596    29A     -0.433962

  @DF-RHF Final Energy:  -310.21150331457739

   => Energetics <=

    Nuclear Repulsion Energy =            308.9769420714884518
    One-Electron Energy =               -1032.7019874919858466
    Two-Electron Energy =                 413.5135421059201803
    DFT Exchange-Correlation Energy =       0.0000000000000000
    Empirical Dispersion Energy =           0.0000000000000000
    PCM Polarization Energy =               0.0000000000000000
    EFP Energy =                            0.0000000000000000
    Total Energy =                       -310.2115033145772145
    Molecular point group: c1
  Basis Set: 6-31G*
  Basis Set:

  -Total Gradient:
     Atom            X                  Y                   Z
    ------   -----------------  -----------------  -----------------
       1        0.000001490709     0.000000673330     0.000001325753
       2        0.000005035346    -0.000005788631     0.000001824204
       3        0.000011547399     0.000011566055    -0.000011871623
       4        0.000009184797     0.000020569799    -0.000025463675
       5       -0.000002366500     0.000001902518     0.000001803884
       6        0.000000302645    -0.000002029477     0.000000367376
       7       -0.000061566163    -0.000001187562     0.000020948530
       8       -0.000014158978    -0.000004695443    -0.000009197988
       9        0.000012070401     0.000002593092     0.000002293087
      10        0.001258439275    -0.004888577787     0.001632321561
      11       -0.000020657455    -0.000021842354     0.000006009763
      12       -0.000001809769    -0.000023124010     0.000007528819
      13        0.000981089910     0.000921595259    -0.004194218932
      14       -0.001339677174     0.004024516846    -0.000344663993
      15        0.000032647470     0.000017830876    -0.000001463693
      16       -0.000869277534    -0.000039516043     0.002931485808
      17       -0.000031392496    -0.000010621866    -0.000030216530
      18        0.000022922781    -0.000015463668    -0.000019006429
      19       -0.000006720390     0.000015967596     0.000019838190
      20        0.000021553029     0.000006313810     0.000022927818
      21       -0.000008657296    -0.000010682338    -0.000012571932

  **** Optimization is complete! (in 6 steps) ****
    Final optimized geometry and variables:
    Molecular point group: c1

    Geometry (in Angstrom), charge = 0, multiplicity = 1:

    H           -4.284763824168     0.969057887509    -0.156685000076
    O           -3.572368493011     0.398053899795    -0.406416522897
    C           -2.363157063607     0.902663202559     0.099372316304
    C           -1.245321672770    -0.036084877400    -0.318907243555
    H           -2.173910947198     1.903177240204    -0.287251264200
    H           -2.402628565881     0.974880567893     1.185421147412
    C            0.128440029611     0.416102038994     0.177096275923
    H           -1.247654316886    -0.108435664395    -1.403051924852
    H           -1.472355061762    -1.028771113777     0.060425431526
    C            1.256459995269    -0.535930520161    -0.231948576390
    H            0.344945886253     1.411938247026    -0.207349306119
    H            0.113491261683     0.505149840337     1.262203115133
    C            2.646439874543    -0.040565358752     0.200218289876
    H            1.229814966721    -0.638512481974    -1.314438377925
    H            1.062316894902    -1.519884389193     0.187801009813
    C            3.631772135138    -1.174031452456     0.485617692585
    H            2.548529330083     0.559861795472     1.102229688768
    H            3.051723440727     0.622778812570    -0.559154562953
    H            3.276863628825    -1.796556084784     1.301723457826
    H            3.763782966440    -1.813626402714    -0.383008799089
    H            4.608100671605    -0.787888815686     0.762210697476

  Mulliken Charges: (a.u.)
   Center  Symbol    Alpha    Beta     Spin     Total
       1     H     0.28119  0.28119  0.00000  0.43762
       2     O     4.37179  4.37179  0.00000 -0.74357
       3     C     2.98972  2.98972  0.00000  0.02056
       4     C     3.15955  3.15955  0.00000 -0.31910
       5     H     0.43285  0.43285  0.00000  0.13430
       6     H     0.43285  0.43285  0.00000  0.13430
       7     C     3.16170  3.16170  0.00000 -0.32340
       8     H     0.41485  0.41485  0.00000  0.17029
       9     H     0.41488  0.41488  0.00000  0.17024
      10     C     3.15161  3.15161  0.00000 -0.30322
      11     H     0.42350  0.42350  0.00000  0.15301
      12     H     0.42362  0.42362  0.00000  0.15276
      13     C     3.15315  3.15315  0.00000 -0.30630
      14     H     0.42107  0.42107  0.00000  0.15786
      15     H     0.42102  0.42102  0.00000  0.15797
      16     C     3.23963  3.23963  0.00000 -0.47926
      17     H     0.42283  0.42283  0.00000  0.15435
      18     H     0.42089  0.42089  0.00000  0.15822
      19     H     0.42158  0.42158  0.00000  0.15684
      20     H     0.42147  0.42147  0.00000  0.15706
      21     H     0.42026  0.42026  0.00000  0.15948

   Total alpha = 29.00000, Total beta = 29.00000, Total charge = -0.00000
