  ==> Input File <==

--------------------------------------------------------------------------
set {
	reference rhf
	basis cc-pvtz
}

set_num_threads( 4 )
memory 2 gb

molecule MOL {
0 1

H	 -3.388000	 -1.048000	 0.000000
O	 -3.102000	 -0.145000	 -0.000000
C	 -1.760000	 -0.065000	 -0.000000
C	 -0.949000	 -1.196000	 0.000000
C	 -1.197000	 1.206000	 -0.000000
H	 -1.393000	 -2.177000	 0.000000
C	 0.422000	 -1.052000	 -0.000000
H	 -1.844000	 2.063000	 -0.000000
C	 0.176000	 1.333000	 0.000000
H	 1.060000	 -1.916000	 0.000000
C	 1.001000	 0.213000	 0.000000
H	 0.613000	 2.317000	 0.000000
C	 2.470000	 0.365000	 0.000000
O	 3.246000	 -0.539000	 -0.000000
H	 2.827000	 1.401000	 0.000000

	symmetry c1
}
ee = optimize('scf')
oeprop('DIPOLE', 'QUADRUPOLE', 'MULLIKEN_CHARGES')
f=open( 'psi4out.xyz', 'w' )
f.write( "15  " )
f.write( str(ee) + "\n" )
f.write( MOL.save_string_xyz() )
f.close()
--------------------------------------------------------------------------

    Molecular point group: c1
  Charge       = 0
  Multiplicity = 1
  Basis Set: CC-PVTZ
  Basis Set:
  @DF-RHF Final Energy:  -418.44242990668886
    Total Energy =                       -418.4424299066888580
    Molecular point group: c1
  Basis Set: CC-PVTZ
  Basis Set:
  Basis Set: CC-PVTZ
  Basis Set:
  @DF-RHF Final Energy:  -418.44265175928825
    Total Energy =                       -418.4426517592880828
  Basis Set: CC-PVTZ
  Basis Set:
  Charge       = 0
  Multiplicity = 1
  Basis Set: CC-PVTZ
  Basis Set:

    Orbital Energies (a.u.)
    -----------------------

    Doubly Occupied:

       1A    -20.604951     2A    -20.545420     3A    -11.322701
       4A    -11.322635     5A    -11.258280     6A    -11.254727
       7A    -11.242394     8A    -11.236743     9A    -11.236599
      10A     -1.438133    11A     -1.401615    12A     -1.175309
      13A     -1.044926    14A     -1.042568    15A     -0.892199
      16A     -0.871166    17A     -0.797474    18A     -0.762657
      19A     -0.717909    20A     -0.670938    21A     -0.646192
      22A     -0.631393    23A     -0.615389    24A     -0.610920
      25A     -0.587511    26A     -0.562635    27A     -0.555376
      28A     -0.509157    29A     -0.490285    30A     -0.421557
      31A     -0.362620    32A     -0.331514

  @DF-RHF Final Energy:  -418.44265919929245

   => Energetics <=

    Nuclear Repulsion Energy =            402.3178609798061984
    One-Electron Energy =               -1367.1932617538127488
    Two-Electron Energy =                 546.4327415747141004
    DFT Exchange-Correlation Energy =       0.0000000000000000
    Empirical Dispersion Energy =           0.0000000000000000
    PCM Polarization Energy =               0.0000000000000000
    EFP Energy =                            0.0000000000000000
    Total Energy =                       -418.4426591992923932
    Molecular point group: c1
  Basis Set: CC-PVTZ
  Basis Set:

  -Total Gradient:
     Atom            X                  Y                   Z
    ------   -----------------  -----------------  -----------------
       1       -0.000007832692     0.000165045396     0.000000000000
       2       -0.000201656640    -0.000189364173     0.000000000000
       3        0.000283355116    -0.000299624836    -0.000000000000
       4       -0.000365934959     0.000142109381     0.000000000000
       5        0.000278077472     0.000212982678     0.000000000000
       6        0.000039738870     0.000028728798    -0.000000000000
       7        0.000263740083     0.000127730145     0.000000000000
       8       -0.000020768746    -0.000066971939    -0.000000000000
       9       -0.000317849717     0.000136667532    -0.000000000000
      10       -0.000010116709     0.000049375991    -0.000000000000
      11        0.000120254013    -0.000248614508    -0.000000000001
      12        0.000015854773    -0.000036999489    -0.000000000000
      13       -0.000283371073     0.000196947198     0.000000000002
      14        0.000151836412    -0.000098162785    -0.000000000001
      15        0.000054673801    -0.000119849394    -0.000000000001

  **** Optimization is complete! (in 3 steps) ****
    Final optimized geometry and variables:
    Molecular point group: c1

    Geometry (in Angstrom), charge = 0, multiplicity = 1:

    H           -3.401682761805    -1.036166762594    -0.000000000001
    O           -3.113760412206    -0.140925619555    -0.000000000001
    C           -1.775087603121    -0.058753527333    -0.000000000001
    C           -0.966322255316    -1.188503474473     0.000000000000
    C           -1.211474190226     1.206363920084     0.000000000000
    H           -1.410986563275    -2.166614870170    -0.000000000000
    C            0.401077336215    -1.047398014770     0.000000000001
    H           -1.853132647075     2.064439624630    -0.000000000001
    C            0.159521232781     1.330443493878     0.000000000001
    H            1.035983367119    -1.911113158526     0.000000000001
    C            0.981120396122     0.213562220919     0.000000000002
    H            0.597856677607     2.311453037478     0.000000000001
    C            2.447401817536     0.371302586590     0.000000000003
    O            3.227426261585    -0.521846566118    -0.000000000003
    H            2.796537828860     1.409525500601    -0.000000000004

  Mulliken Charges: (a.u.)
   Center  Symbol    Alpha    Beta     Spin     Total
       1     H     0.38538  0.38538  0.00000  0.22925
       2     O     4.16619  4.16619  0.00000 -0.33238
       3     C     2.84401  2.84401  0.00000  0.31199
       4     C     3.13262  3.13262  0.00000 -0.26523
       5     C     3.10867  3.10867  0.00000 -0.21733
       6     H     0.43099  0.43099  0.00000  0.13802
       7     C     3.06648  3.06648  0.00000 -0.13296
       8     H     0.41665  0.41665  0.00000  0.16669
       9     C     3.06582  3.06582  0.00000 -0.13163
      10     H     0.40706  0.40706  0.00000  0.18588
      11     C     3.00405  3.00405  0.00000 -0.00810
      12     H     0.42140  0.42140  0.00000  0.15721
      13     C     2.91094  2.91094  0.00000  0.17812
      14     O     4.17923  4.17923  0.00000 -0.35847
      15     H     0.46052  0.46052  0.00000  0.07896

   Total alpha = 32.00000, Total beta = 32.00000, Total charge = -0.00000
