  ==> Input File <==

--------------------------------------------------------------------------
set {
	reference rhf
	basis cc-pvtz
}

set_num_threads( 4 )
memory 2 gb

molecule MOL {
0 1

H	 -2.816458	 -0.841657	 -0.064679
N	 -1.878861	 -0.711874	 0.250184
C	 -1.341419	 0.551458	 -0.220231
H	 -1.333674	 -1.468530	 -0.105118
C	 -2.429266	 1.386351	 -0.855990
H	 -0.870397	 1.141303	 0.565113
H	 -0.586528	 0.349151	 -0.972070
O	 -3.363952	 1.728379	 0.122318
H	 -1.997459	 2.286307	 -1.291644
H	 -2.908155	 0.818856	 -1.650688
C	 -4.457188	 2.443078	 -0.350186
H	 -5.105162	 2.652548	 0.488645
H	 -4.151980	 3.385773	 -0.799484
H	 -5.014772	 1.874033	 -1.090356

	symmetry c1
}
set optking {
	frozen_dihedral = ("
		6 3 2 4
	")
}

ee = optimize('scf')
oeprop('DIPOLE', 'QUADRUPOLE', 'MULLIKEN_CHARGES')
f=open( 'psi4out.xyz', 'w' )
f.write( "14  " )
f.write( str(ee) + "\n" )
f.write( MOL.save_string_xyz() )
f.close()
--------------------------------------------------------------------------

    Molecular point group: c1
  Charge       = 0
  Multiplicity = 1
  Basis Set: CC-PVTZ
  Basis Set:
  @DF-RHF Final Energy:  -248.21812714409509
    Total Energy =                       -248.2181271440947512
    Molecular point group: c1
  Basis Set: CC-PVTZ
  Basis Set:
  Basis Set: CC-PVTZ
  Basis Set:
  @DF-RHF Final Energy:  -248.21960962719280
    Total Energy =                       -248.2196096271929946
  Basis Set: CC-PVTZ
  Basis Set:
  Basis Set: CC-PVTZ
  Basis Set:
  @DF-RHF Final Energy:  -248.21989608626160
    Total Energy =                       -248.2198960862617696
  Basis Set: CC-PVTZ
  Basis Set:
  Basis Set: CC-PVTZ
  Basis Set:
  @DF-RHF Final Energy:  -248.21992436015526
    Total Energy =                       -248.2199243601551188
  Basis Set: CC-PVTZ
  Basis Set:
  Basis Set: CC-PVTZ
  Basis Set:
  @DF-RHF Final Energy:  -248.21993139819003
    Total Energy =                       -248.2199313981901128
  Basis Set: CC-PVTZ
  Basis Set:
  Charge       = 0
  Multiplicity = 1
  Basis Set: CC-PVTZ
  Basis Set:

    Orbital Energies (a.u.)
    -----------------------

    Doubly Occupied:

       1A    -20.552251     2A    -15.519717     3A    -11.269461
       4A    -11.265352     5A    -11.240585     6A     -1.387330
       7A     -1.171918     8A     -1.001921     9A     -0.909854
      10A     -0.821427    11A     -0.687039    12A     -0.674486
      13A     -0.653292    14A     -0.616108    15A     -0.589177
      16A     -0.572154    17A     -0.519365    18A     -0.499653
      19A     -0.478413    20A     -0.421880    21A     -0.374272

  @DF-RHF Final Energy:  -248.21993216153086

   => Energetics <=

    Nuclear Repulsion Energy =            194.4049022455356237
    One-Electron Energy =                -722.7983599527535716
    Two-Electron Energy =                 280.1735255456871982
    DFT Exchange-Correlation Energy =       0.0000000000000000
    Empirical Dispersion Energy =           0.0000000000000000
    PCM Polarization Energy =               0.0000000000000000
    EFP Energy =                            0.0000000000000000
    Total Energy =                       -248.2199321615307781
    Molecular point group: c1
  Basis Set: CC-PVTZ
  Basis Set:

  -Total Gradient:
     Atom            X                  Y                   Z
    ------   -----------------  -----------------  -----------------
       1       -0.000006710960    -0.000003537117    -0.000011889875
       2       -0.001317714306    -0.000426613005    -0.002061756753
       3       -0.001655582057     0.001111567388     0.000970820431
       4        0.001345607424     0.000159941863     0.001563200563
       5       -0.000078463429     0.000036874388     0.000083694653
       6        0.001619857879    -0.000835605344    -0.000456407708
       7        0.000007334969     0.000011593088    -0.000018924254
       8        0.000030819704    -0.000021059391    -0.000025287795
       9        0.000032511591     0.000000645151    -0.000027479407
      10        0.000016235441    -0.000020646194    -0.000008092618
      11       -0.000006406156    -0.000003173607    -0.000010727547
      12        0.000009411250    -0.000008295044     0.000000118287
      13        0.000006523912    -0.000003967100     0.000003041936
      14       -0.000003425264     0.000002274925    -0.000000309913

  **** Optimization is complete! (in 6 steps) ****
    Final optimized geometry and variables:
    Molecular point group: c1

    Geometry (in Angstrom), charge = 0, multiplicity = 1:

    H           -0.091005270212    -1.902177296462     0.372882137978
    N            0.885454395687    -1.774613635203     0.513385429790
    C            1.374509856599    -0.518766513955    -0.032796134857
    H            1.382587830481    -2.563496876250     0.169116478077
    C            0.282182201074     0.336845483119    -0.636705200482
    H            1.880798154736     0.046750845980     0.742743188263
    H            2.108118257135    -0.695279592226    -0.815093893698
    O           -0.689873267014     0.604454600666     0.323231407420
    H            0.714150382658     1.265276806036    -1.007982081377
    H           -0.166451676819    -0.180663620082    -1.485664494612
    C           -1.746512380355     1.383762128305    -0.129577957237
    H           -2.432524264472     1.521914906893     0.693273513372
    H           -1.404954133841     2.359503702171    -0.468291941445
    H           -2.275268229282     0.902025355350    -0.949556648326

  Mulliken Charges: (a.u.)
   Center  Symbol    Alpha    Beta     Spin     Total
       1     H     0.42367  0.42367  0.00000  0.15266
       2     N     3.69550  3.69550  0.00000 -0.39100
       3     C     3.01248  3.01248  0.00000 -0.02496
       4     H     0.42785  0.42785  0.00000  0.14430
       5     C     2.97776  2.97776  0.00000  0.04449
       6     H     0.46320  0.46320  0.00000  0.07361
       7     H     0.46535  0.46535  0.00000  0.06930
       8     O     4.17288  4.17288  0.00000 -0.34575
       9     H     0.46713  0.46713  0.00000  0.06575
      10     H     0.47370  0.47370  0.00000  0.05260
      11     C     3.03183  3.03183  0.00000 -0.06367
      12     H     0.44556  0.44556  0.00000  0.10889
      13     H     0.47095  0.47095  0.00000  0.05809
      14     H     0.47214  0.47214  0.00000  0.05571

   Total alpha = 21.00000, Total beta = 21.00000, Total charge =  0.00000
