  ==> Input File <==

--------------------------------------------------------------------------
set {
	reference rhf
	basis cc-pvtz
}

set_num_threads( 4 )
memory 2 gb

molecule MOL {
0 1

H	 -2.686779	 0.067600	 -0.569950
O	 -2.041679	 -0.058866	 0.103463
C	 -0.959304	 0.780994	 -0.094939
C	 0.354905	 0.037902	 -0.006215
H	 -0.985899	 1.279578	 -1.057596
H	 -0.969809	 1.529522	 0.682889
F	 0.412060	 -0.931028	 -0.902708
F	 1.359641	 0.856111	 -0.239961
F	 0.545380	 -0.506387	 1.171682

	symmetry c1
}
set optking {
	frozen_dihedral = ("
		1 2 3 5
	")
}

ee = optimize('scf')
oeprop('DIPOLE', 'QUADRUPOLE', 'MULLIKEN_CHARGES')
f=open( 'psi4out.xyz', 'w' )
f.write( "9  " )
f.write( str(ee) + "\n" )
f.write( MOL.save_string_xyz() )
f.close()
--------------------------------------------------------------------------

    Molecular point group: c1
  Charge       = 0
  Multiplicity = 1
  Basis Set: CC-PVTZ
  Basis Set:
  @DF-RHF Final Energy:  -450.84369392080885
    Total Energy =                       -450.8436939208090166
    Molecular point group: c1
  Basis Set: CC-PVTZ
  Basis Set:
  Basis Set: CC-PVTZ
  Basis Set:
  @DF-RHF Final Energy:  -450.84440754912271
    Total Energy =                       -450.8444075491228773
  Basis Set: CC-PVTZ
  Basis Set:
  Basis Set: CC-PVTZ
  Basis Set:
  @DF-RHF Final Energy:  -450.84457948029615
    Total Energy =                       -450.8445794802961473
  Basis Set: CC-PVTZ
  Basis Set:
  Basis Set: CC-PVTZ
  Basis Set:
  @DF-RHF Final Energy:  -450.84458729368777
    Total Energy =                       -450.8445872936875958
  Basis Set: CC-PVTZ
  Basis Set:
  Charge       = 0
  Multiplicity = 1
  Basis Set: CC-PVTZ
  Basis Set:

    Orbital Energies (a.u.)
    -----------------------

    Doubly Occupied:

       1A    -26.333938     2A    -26.331191     3A    -26.330247
       4A    -20.582500     5A    -11.489413     6A    -11.310348
       7A     -1.741988     8A     -1.638402     9A     -1.636962
      10A     -1.405913    11A     -1.050243    12A     -0.924373
      13A     -0.832990    14A     -0.831463    15A     -0.792274
      16A     -0.742176    17A     -0.713443    18A     -0.703842
      19A     -0.670028    20A     -0.658350    21A     -0.642835
      22A     -0.639162    23A     -0.601120    24A     -0.534699
      25A     -0.483002

  @DF-RHF Final Energy:  -450.84458817973319

   => Energetics <=

    Nuclear Repulsion Energy =            277.5782637107019468
    One-Electron Energy =               -1177.6039007644790217
    Two-Electron Energy =                 449.1810488740438814
    DFT Exchange-Correlation Energy =       0.0000000000000000
    Empirical Dispersion Energy =           0.0000000000000000
    PCM Polarization Energy =               0.0000000000000000
    EFP Energy =                            0.0000000000000000
    Total Energy =                       -450.8445881797331367
    Molecular point group: c1
  Basis Set: CC-PVTZ
  Basis Set:

  -Total Gradient:
     Atom            X                  Y                   Z
    ------   -----------------  -----------------  -----------------
       1       -0.000384235505     0.000548085708     0.000395046375
       2        0.000598214492    -0.000787156260    -0.000623424308
       3       -0.000575976438     0.000729665599     0.000487708287
       4        0.000060987121     0.000198623895     0.000133112995
       5        0.000329641447    -0.000524125509    -0.000259224097
       6       -0.000010034100    -0.000004537257    -0.000012000896
       7        0.000019873479    -0.000034975854    -0.000023194622
       8       -0.000032430002    -0.000104799106    -0.000038047501
       9       -0.000006040493    -0.000020781217    -0.000059976229

  **** Optimization is complete! (in 5 steps) ****
    Final optimized geometry and variables:
    Molecular point group: c1

    Geometry (in Angstrom), charge = 0, multiplicity = 1:

    H           -2.654434157688     0.008535383807    -0.549117540869
    O           -2.010059932440    -0.067209473738     0.128350670902
    C           -0.945969728836     0.794164168778    -0.099569691805
    C            0.352637768690     0.025656253982    -0.015656789866
    H           -0.977553250993     1.249816347220    -1.081146152638
    H           -0.912682671135     1.576426265880     0.648374643976
    F            0.430643847366    -0.905795737454    -0.940316836147
    F            1.368272319532     0.849221431363    -0.193210087349
    F            0.509222694733    -0.555045279392     1.150335289792

  Mulliken Charges: (a.u.)
   Center  Symbol    Alpha    Beta     Spin     Total
       1     H     0.38604  0.38604  0.00000  0.22792
       2     O     4.19082  4.19082  0.00000 -0.38163
       3     C     2.98940  2.98940  0.00000  0.02120
       4     C     2.67683  2.67683  0.00000  0.64635
       5     H     0.46318  0.46318  0.00000  0.07364
       6     H     0.45937  0.45937  0.00000  0.08126
       7     F     4.61178  4.61178  0.00000 -0.22357
       8     F     4.61461  4.61461  0.00000 -0.22923
       9     F     4.60797  4.60797  0.00000 -0.21595

   Total alpha = 25.00000, Total beta = 25.00000, Total charge =  0.00000
