  ==> Input File <==

--------------------------------------------------------------------------
set {
	reference rhf
	basis 6-31G*
}

set_num_threads( 4 )
memory 2 gb

molecule MOL {
0 1

H	 2.591676	 2.013956	 0.335017
O	 3.341076	 1.666752	 -0.126416
C	 3.569581	 0.339145	 0.272707
C	 2.501715	 -0.629795	 -0.222817
H	 4.531011	 0.067855	 -0.144101
H	 3.658213	 0.277012	 1.356711
C	 1.106394	 -0.362725	 0.346939
H	 2.468330	 -0.580605	 -1.308097
H	 2.812274	 -1.639773	 0.039603
C	 0.068753	 -1.384356	 -0.126759
H	 0.789018	 0.636142	 0.060755
H	 1.151034	 -0.377731	 1.436031
C	 -1.327831	 -1.213312	 0.482042
H	 -0.004332	 -1.343485	 -1.212040
H	 0.429797	 -2.381825	 0.114909
C	 -2.057698	 0.068266	 0.070546
H	 -1.935134	 -2.067304	 0.189303
H	 -1.254017	 -1.253679	 1.567749
C	 -3.484884	 0.143238	 0.617316
H	 -2.086645	 0.131727	 -1.016305
H	 -1.504725	 0.940001	 0.412016
C	 -4.213486	 1.424496	 0.213360
H	 -4.049880	 -0.718250	 0.267880
H	 -3.458687	 0.070209	 1.702612
H	 -4.285026	 1.510762	 -0.867225
H	 -5.222191	 1.446922	 0.614167
H	 -3.692580	 2.304527	 0.580191

	symmetry c1
}
set optking {
	frozen_dihedral = ("
		4 3 2 1
	")
}

ee = optimize('scf')
oeprop('DIPOLE', 'QUADRUPOLE', 'MULLIKEN_CHARGES')
f=open( 'psi4out.xyz', 'w' )
f.write( "27  " )
f.write( str(ee) + "\n" )
f.write( MOL.save_string_xyz() )
f.close()
--------------------------------------------------------------------------

    Molecular point group: c1
  Charge       = 0
  Multiplicity = 1
  Basis Set: 6-31G*
  Basis Set:
  @DF-RHF Final Energy:  -388.28174341436926
    Total Energy =                       -388.2817434143692026
    Molecular point group: c1
  Basis Set: 6-31G*
  Basis Set:
  Charge       = 0
  Multiplicity = 1
  Basis Set: 6-31G*
  Basis Set:

    Orbital Energies (a.u.)
    -----------------------

    Doubly Occupied:

       1A    -20.552180     2A    -11.266974     3A    -11.220438
       4A    -11.217712     5A    -11.216346     6A    -11.216014
       7A    -11.215684     8A    -11.214625     9A    -11.209580
      10A     -1.359026    11A     -1.095604    12A     -1.061861
      13A     -1.011747    14A     -0.948739    15A     -0.888387
      16A     -0.820389    17A     -0.802000    18A     -0.778663
      19A     -0.692727    20A     -0.652272    21A     -0.638924
      22A     -0.614347    23A     -0.601118    24A     -0.583174
      25A     -0.580282    26A     -0.553156    27A     -0.541332
      28A     -0.531744    29A     -0.505278    30A     -0.494579
      31A     -0.485738    32A     -0.474804    33A     -0.469188
      34A     -0.461559    35A     -0.452050    36A     -0.441691
      37A     -0.423380

  @DF-RHF Final Energy:  -388.28174309638075

   => Energetics <=

    Nuclear Repulsion Energy =            459.6205406844546815
    One-Electron Energy =               -1437.2179400112991061
    Two-Electron Energy =                 589.3156562304633326
    DFT Exchange-Correlation Energy =       0.0000000000000000
    Empirical Dispersion Energy =           0.0000000000000000
    PCM Polarization Energy =               0.0000000000000000
    EFP Energy =                            0.0000000000000000
    Total Energy =                       -388.2817430963810921
    Molecular point group: c1
  Basis Set: 6-31G*
  Basis Set:

  -Total Gradient:
     Atom            X                  Y                   Z
    ------   -----------------  -----------------  -----------------
       1       -0.000096534729    -0.000144555121    -0.000199852668
       2        0.000299281867     0.000164844706     0.000273875790
       3       -0.000000561261    -0.000073967961    -0.000138999214
       4       -0.000138762773    -0.000019128041     0.000098619396
       5        0.000008854121     0.000102216735     0.000003628846
       6        0.000024056907     0.000046888046    -0.000011249083
       7       -0.000017274371    -0.000064113123     0.000040104988
       8       -0.000001583507     0.000019627309    -0.000004334335
       9       -0.000040248196    -0.000017425281    -0.000043051942
      10       -0.000017510490     0.000047872871    -0.000010826781
      11       -0.000037547566    -0.000098284523    -0.000041321279
      12        0.000009386869     0.000026132908     0.000010733469
      13        0.000004999128     0.000001463332     0.000012788946
      14        0.000002763760     0.000006555812    -0.000002776628
      15        0.000003665368     0.000008731674     0.000000302510
      16       -0.000008809002    -0.000004879492    -0.000003953276
      17        0.000002936187    -0.000006257282     0.000010525838
      18        0.000004353287     0.000014298673     0.000001848953
      19        0.000003378864    -0.000000868463     0.000003486741
      20        0.000010082901     0.000009434316    -0.000006272828
      21       -0.000014561402    -0.000013310926     0.000011880669
      22       -0.000003045622    -0.000007697439    -0.000009529557
      23        0.000002510967    -0.000002641582     0.000004414172
      24       -0.000000923897     0.000005264751     0.000001743183
      25       -0.000000150722     0.000002798776    -0.000001333039
      26        0.000000969490    -0.000002004439    -0.000002810204
      27        0.000000273810    -0.000000996236     0.000002357331

  **** Optimization is complete! (in 2 steps) ****
    Final optimized geometry and variables:
    Molecular point group: c1

    Geometry (in Angstrom), charge = 0, multiplicity = 1:

    H            2.622014357863     1.966286039780     0.175919778545
    O            3.369554891674     1.616447442267    -0.286598330151
    C            3.586243942622     0.284657186235     0.104133639396
    C            2.512754102496    -0.674842739224    -0.398531188648
    H            4.546652486316     0.010395224669    -0.312775671160
    H            3.672527354616     0.215196898419     1.187968646178
    C            1.119007735431    -0.408060532009     0.175715536262
    H            2.478058471702    -0.616710271984    -1.483354177340
    H            2.819108747147    -1.688300368197    -0.145024449436
    C            0.080145821682    -1.429539158652    -0.295572569627
    H            0.799299785239     0.590595781254    -0.108961937531
    H            1.166913635899    -0.423469103180     1.264601963383
    C           -1.315102374006    -1.258136463150     0.316164654115
    H            0.004855107959    -1.389220651237    -1.380731006923
    H            0.441660221246    -2.426855363676    -0.054113122956
    C           -2.048050682117     0.020637963185    -0.098491375006
    H           -1.921758194792    -2.114193690647     0.028243101300
    H           -1.238520859040    -1.294208743959     1.401817078070
    C           -3.474952236687     0.094097449056     0.449228252244
    H           -2.077946239160     0.080892760504    -1.185510470422
    H           -1.496757977094     0.894563395833     0.240097457501
    C           -4.207682816655     1.371172432981     0.039587004979
    H           -4.037651183371    -0.770761034039     0.104462684045
    H           -3.447641535566     0.026468235470     1.534847730177
    H           -4.280127221825     1.452041137473    -1.041344316836
    H           -5.216209327626     1.392369042027     0.440866788984
    H           -3.689293125717     2.254539190531     0.401933780765

  Mulliken Charges: (a.u.)
   Center  Symbol    Alpha    Beta     Spin     Total
       1     H     0.27989  0.27989  0.00000  0.44023
       2     O     4.37113  4.37113  0.00000 -0.74227
       3     C     2.99661  2.99661  0.00000  0.00679
       4     C     3.16185  3.16185  0.00000 -0.32370
       5     H     0.41441  0.41441  0.00000  0.17118
       6     H     0.43210  0.43210  0.00000  0.13579
       7     C     3.16343  3.16343  0.00000 -0.32686
       8     H     0.41487  0.41487  0.00000  0.17026
       9     H     0.42405  0.42405  0.00000  0.15191
      10     C     3.15208  3.15208  0.00000 -0.30415
      11     H     0.42350  0.42350  0.00000  0.15301
      12     H     0.42502  0.42502  0.00000  0.14996
      13     C     3.15359  3.15359  0.00000 -0.30718
      14     H     0.42158  0.42158  0.00000  0.15685
      15     H     0.42137  0.42137  0.00000  0.15725
      16     C     3.15234  3.15234  0.00000 -0.30469
      17     H     0.42114  0.42114  0.00000  0.15771
      18     H     0.42419  0.42419  0.00000  0.15162
      19     C     3.15126  3.15126  0.00000 -0.30251
      20     H     0.42357  0.42357  0.00000  0.15286
      21     H     0.42394  0.42394  0.00000  0.15212
      22     C     3.23918  3.23918  0.00000 -0.47836
      23     H     0.42280  0.42280  0.00000  0.15439
      24     H     0.42326  0.42326  0.00000  0.15349
      25     H     0.42143  0.42143  0.00000  0.15715
      26     H     0.41916  0.41916  0.00000  0.16167
      27     H     0.42226  0.42226  0.00000  0.15547

   Total alpha = 37.00000, Total beta = 37.00000, Total charge =  0.00000
