  ==> Input File <==

--------------------------------------------------------------------------
set {
	reference rhf
	basis 6-31G*
}

set_num_threads( 1 )
memory 2 gb

molecule MOL {
0 1

H	 2.601838	 2.161838	 -4.561263
C	 2.950031	 1.977560	 -3.549668
C	 1.790148	 1.992893	 -2.554875
H	 3.455287	 1.016299	 -3.543753
H	 3.685772	 2.740144	 -3.308937
C	 2.247694	 1.742787	 -1.116156
H	 1.063769	 1.238694	 -2.839758
H	 1.282907	 2.954911	 -2.608913
C	 1.110370	 1.770274	 -0.094881
H	 2.751878	 0.784743	 -1.056199
H	 2.975399	 2.501729	 -0.837780
C	 0.169600	 0.576866	 -0.172154
H	 1.521890	 1.775641	 0.913282
H	 0.532553	 2.687796	 -0.181239
C	 -1.181045	 0.701995	 0.511084
O	 0.482010	 -0.430947	 -0.731723
C	 -2.285934	 -0.139295	 -0.145128
H	 -1.449051	 1.751551	 0.493206
H	 -1.071135	 0.403303	 1.551943
C	 -3.651768	 0.085446	 0.506485
H	 -2.346596	 0.110469	 -1.202272
H	 -2.034737	 -1.195320	 -0.088721
C	 -4.759797	 -0.746382	 -0.137905
H	 -3.908762	 1.140117	 0.445781
H	 -3.588286	 -0.154158	 1.565709
H	 -4.868882	 -0.505166	 -1.191300
H	 -4.548009	 -1.809175	 -0.062213
H	 -5.715422	 -0.564821	 0.343442

	symmetry c1
}
set optking {
	frozen_dihedral = ("
		10 6 3 2,
		12 15 17 21
	")
}

ee = energy('scf')
oeprop('DIPOLE', 'QUADRUPOLE', 'MULLIKEN_CHARGES')
f=open( 'psi4out.xyz', 'w' )
f.write( "28  " )
f.write( str(ee) + "\n" )
f.write( MOL.save_string_xyz() )
f.close()
--------------------------------------------------------------------------

    Molecular point group: c1

    Geometry (in Angstrom), charge = 0, multiplicity = 1:

       Center              X                  Y                   Z               Mass
    ------------   -----------------  -----------------  -----------------  -----------------
           H          2.920926420282     1.417305545869    -3.794125111902     1.007825032070
           C          3.269119420282     1.233027545869    -2.782530111902    12.000000000000
           C          2.109236420282     1.248360545869    -1.787737111902    12.000000000000
           H          3.774375420282     0.271766545869    -2.776615111902     1.007825032070
           H          4.004860420282     1.995611545869    -2.541799111902     1.007825032070
           C          2.566782420282     0.998254545869    -0.349018111902    12.000000000000
           H          1.382857420282     0.494161545869    -2.072620111902     1.007825032070
           H          1.601995420282     2.210378545869    -1.841775111902     1.007825032070
           C          1.429458420282     1.025741545869     0.672256888098    12.000000000000
           H          3.070966420282     0.040210545869    -0.289061111902     1.007825032070
           H          3.294487420282     1.757196545869    -0.070642111902     1.007825032070
           C          0.488688420282    -0.167666454131     0.594983888098    12.000000000000
           H          1.840978420282     1.031108545869     1.680419888098     1.007825032070
           H          0.851641420282     1.943263545869     0.585898888098     1.007825032070
           C         -0.861956579718    -0.042537454131     1.278221888098    12.000000000000
           O          0.801098420282    -1.175479454131     0.035414888098    15.994914619560
           C         -1.966845579718    -0.883827454131     0.622009888098    12.000000000000
           H         -1.129962579718     1.007018545869     1.260343888098     1.007825032070
           H         -0.752046579718    -0.341229454131     2.319080888098     1.007825032070
           C         -3.332679579718    -0.659086454131     1.273622888098    12.000000000000
           H         -2.027507579718    -0.634063454131    -0.435134111902     1.007825032070
           H         -1.715648579718    -1.939852454131     0.678416888098     1.007825032070
           C         -4.440708579718    -1.490914454131     0.629232888098    12.000000000000
           H         -3.589673579718     0.395584545869     1.212918888098     1.007825032070
           H         -3.269197579718    -0.898690454131     2.332846888098     1.007825032070
           H         -4.549793579718    -1.249698454131    -0.424162111902     1.007825032070
           H         -4.228920579718    -2.553707454131     0.704924888098     1.007825032070
           H         -5.396333579718    -1.309353454131     1.110579888098     1.007825032070

  Charge       = 0
  Multiplicity = 1
  Basis Set: 6-31G*
  Basis Set:

    Orbital Energies (a.u.)
    -----------------------

    Doubly Occupied:

       1A    -20.548206     2A    -11.323208     3A    -11.230925
       4A    -11.230196     5A    -11.220185     6A    -11.219362
       7A    -11.217063     8A    -11.212956     9A    -11.210719
      10A    -11.206215    11A     -1.394144    12A     -1.087806
      13A     -1.077457    14A     -1.021337    15A     -0.990778
      16A     -0.909999    17A     -0.866571    18A     -0.805716
      19A     -0.792395    20A     -0.723306    21A     -0.667396
      22A     -0.656820    23A     -0.623501    24A     -0.618715
      25A     -0.609643    26A     -0.583833    27A     -0.578162
      28A     -0.575358    29A     -0.533779    30A     -0.531291
      31A     -0.518892    32A     -0.508026    33A     -0.494745
      34A     -0.479918    35A     -0.473896    36A     -0.470250
      37A     -0.467344    38A     -0.464721    39A     -0.457390
      40A     -0.393800

  @DF-RHF Final Energy:  -426.16939834192613

   => Energetics <=

    Nuclear Repulsion Energy =            531.5976141171689733
    One-Electron Energy =               -1631.5418565603497427
    Two-Electron Energy =                 673.7748441012554395
    DFT Exchange-Correlation Energy =       0.0000000000000000
    Empirical Dispersion Energy =           0.0000000000000000
    PCM Polarization Energy =               0.0000000000000000
    EFP Energy =                            0.0000000000000000
    Total Energy =                       -426.1693983419254437

  Mulliken Charges: (a.u.)
   Center  Symbol    Alpha    Beta     Spin     Total
       1     H     0.41931  0.41931  0.00000  0.16138
       2     C     3.24013  3.24013  0.00000 -0.48027
       3     C     3.15638  3.15638  0.00000 -0.31276
       4     H     0.41824  0.41824  0.00000  0.16353
       5     H     0.42349  0.42349  0.00000  0.15303
       6     C     3.14956  3.14956  0.00000 -0.29913
       7     H     0.41073  0.41073  0.00000  0.17854
       8     H     0.42758  0.42758  0.00000  0.14485
       9     C     3.20929  3.20929  0.00000 -0.41859
      10     H     0.40649  0.40649  0.00000  0.18702
      11     H     0.42163  0.42163  0.00000  0.15673
      12     C     2.73520  2.73520  0.00000  0.52961
      13     H     0.40397  0.40397  0.00000  0.19206
      14     H     0.41244  0.41244  0.00000  0.17512
      15     C     3.20325  3.20325  0.00000 -0.40650
      16     O     4.26847  4.26847  0.00000 -0.53693
      17     C     3.14949  3.14949  0.00000 -0.29897
      18     H     0.41511  0.41511  0.00000  0.16977
      19     H     0.40407  0.40407  0.00000  0.19186
      20     C     3.15321  3.15321  0.00000 -0.30641
      21     H     0.41853  0.41853  0.00000  0.16295
      22     H     0.40766  0.40766  0.00000  0.18468
      23     C     3.23949  3.23949  0.00000 -0.47898
      24     H     0.42399  0.42399  0.00000  0.15201
      25     H     0.42324  0.42324  0.00000  0.15352
      26     H     0.42055  0.42055  0.00000  0.15890
      27     H     0.41962  0.41962  0.00000  0.16076
      28     H     0.41888  0.41888  0.00000  0.16224

   Total alpha = 40.00000, Total beta = 40.00000, Total charge =  0.00000
