                              Psi4 1.0.54 Driver

  ==> Input File <==

--------------------------------------------------------------------------
set {
	reference rhf
	basis cc-pvtz
}

set_num_threads( 4 )
memory 2 gb

molecule MOL {
0 1

O	 1.216069	 1.304886	 0.000821
C	 1.121787	 0.124983	 0.000110
C	 -0.170912	 -0.649867	 -0.000147
O	 2.167739	 -0.685178	 -0.000678
C	 -1.413045	 0.229353	 0.001137
H	 -0.152877	 -1.303435	 -0.866175
H	 -0.152278	 -1.305116	 0.864586
C	 -1.654151	 0.896731	 -1.349709
H	 -1.315850	 0.985418	 0.772149
H	 -2.275042	 -0.368879	 0.274313
C	 -2.895451	 1.782156	 -1.358957
H	 -0.785783	 1.492009	 -1.619563
H	 -1.750543	 0.134247	 -2.118190
H	 -2.814415	 2.575999	 -0.624225
H	 -3.041539	 2.242408	 -2.329268
H	 -3.786182	 1.208403	 -1.126605
C	 3.449556	 -0.089977	 -0.000570
H	 3.585694	 0.522473	 -0.879546
H	 4.155805	 -0.904274	 -0.001389
H	 3.586173	 0.521118	 0.879272

	symmetry c1
}
set optking {
	frozen_dihedral = ("
		9 5 3 6
	")
}

ee,wfn = optimize('scf', return_wfn=True)
oeprop( wfn, 'DIPOLE', 'QUADRUPOLE', 'MULLIKEN_CHARGES')
f=open( 'psi4out.xyz', 'w' )
f.write( "20  " )
f.write( str(ee) + "\n" )
f.write( MOL.save_string_xyz() )
f.close()
--------------------------------------------------------------------------

    Molecular point group: c1
  Charge       = 0
  Multiplicity = 1
  Basis Set: CC-PVTZ
  Basis Set:
  @DF-RHF Final Energy:  -384.08213405381406
    Total Energy =                       -384.0821340538138884
    Molecular point group: c1
  Basis Set: CC-PVTZ
  Basis Set:
  Basis Set: CC-PVTZ
  Basis Set:
  @DF-RHF Final Energy:  -384.08244967142303
    Total Energy =                       -384.0824496714226370
  Basis Set: CC-PVTZ
  Basis Set:
  Basis Set: CC-PVTZ
  Basis Set:
  @DF-RHF Final Energy:  -384.08076432279302
    Total Energy =                       -384.0807643227927883
  Basis Set: CC-PVTZ
  Basis Set:
  Basis Set: CC-PVTZ
  Basis Set:
  @DF-RHF Final Energy:  -384.08259108133626
    Total Energy =                       -384.0825910813359769
  Basis Set: CC-PVTZ
  Basis Set:
  Basis Set: CC-PVTZ
  Basis Set:
  @DF-RHF Final Energy:  -384.08263747951082
    Total Energy =                       -384.0826374795111633
  Basis Set: CC-PVTZ
  Basis Set:
  Basis Set: CC-PVTZ
  Basis Set:
  @DF-RHF Final Energy:  -384.08265506250569
    Total Energy =                       -384.0826550625058644
  Basis Set: CC-PVTZ
  Basis Set:
  Basis Set: CC-PVTZ
  Basis Set:
  @DF-RHF Final Energy:  -384.08265817481231
    Total Energy =                       -384.0826581748125363
  Basis Set: CC-PVTZ
  Basis Set:
  Charge       = 0
  Multiplicity = 1
  Basis Set: CC-PVTZ
  Basis Set:

    Orbital Energies (a.u.)
    -----------------------

    Doubly Occupied:

       1A    -20.597317     2A    -20.534744     3A    -11.365503
       4A    -11.279090     5A    -11.234220     6A    -11.217761
       7A    -11.212549     8A    -11.205305     9A     -1.473206
      10A     -1.366550    11A     -1.088035    12A     -1.023233
      13A     -0.969735    14A     -0.884777    15A     -0.805821
      16A     -0.768156    17A     -0.704098    18A     -0.684129
      19A     -0.676098    20A     -0.632310    21A     -0.608068
      22A     -0.588446    23A     -0.580973    24A     -0.543196
      25A     -0.533603    26A     -0.518059    27A     -0.513638
      28A     -0.476972    29A     -0.472250    30A     -0.463791
      31A     -0.459283    32A     -0.439699

  @DF-RHF Final Energy:  -384.08265842399823

   => Energetics <=

    Nuclear Repulsion Energy =            389.0285001024386133
    One-Electron Energy =               -1294.3810903956045877
    Two-Electron Energy =                 521.2699318691679764
    DFT Exchange-Correlation Energy =       0.0000000000000000
    Empirical Dispersion Energy =           0.0000000000000000
    PCM Polarization Energy =               0.0000000000000000
    EFP Energy =                            0.0000000000000000
    Total Energy =                       -384.0826584239980548
    Molecular point group: c1
  Basis Set: CC-PVTZ
  Basis Set:

  -Total Gradient:
     Atom            X                  Y                   Z
    ------   -----------------  -----------------  -----------------
       1       -0.000029787034     0.000020686771     0.000008837482
       2        0.000029857773    -0.000038173121    -0.000013827858
       3       -0.000396727133    -0.000484765224     0.000371322423
       4       -0.000005418716     0.000007623130     0.000001657528
       5       -0.000285872952    -0.000403826150     0.000490303705
       6        0.000373918918     0.000498653606    -0.000383765331
       7        0.000002731603    -0.000012855821     0.000003288488
       8       -0.000011880315    -0.000003971030    -0.000019600239
       9        0.000325518815     0.000444106008    -0.000466507047
      10        0.000001323004    -0.000006332580    -0.000000188555
      11        0.000012086209     0.000001133836     0.000007840986
      12       -0.000004471262    -0.000001093874     0.000004197604
      13       -0.000001207914    -0.000006323344    -0.000010479619
      14       -0.000002762169     0.000004503672     0.000003359688
      15        0.000006296891    -0.000004652454     0.000005084537
      16        0.000000932506    -0.000003749556    -0.000002803893
      17        0.000020492249     0.000008094846     0.000004877675
      18       -0.000008574553    -0.000017368537     0.000015974171
      19       -0.000019018830     0.000006003337     0.000000364381
      20       -0.000007437081    -0.000007693520    -0.000019936127

  **** Optimization is complete! (in 8 steps) ****
    Final optimized geometry and variables:
    Molecular point group: c1

    Geometry (in Angstrom), charge = 0, multiplicity = 1:

    O            0.978183243417     0.908732649142     0.588781733132
    C            0.864510664521    -0.252347923833     0.386468861123
    C           -0.438212698500    -1.013356788428     0.346238091885
    O            1.896073656173    -1.056444414354     0.191086558248
    C           -1.678454876620    -0.127395538959     0.316538006004
    H           -0.404097408419    -1.679785156074    -0.507741299292
    H           -0.439257410580    -1.650346703554     1.225112460821
    C           -1.926870889622     0.536316405837    -1.036306032572
    H           -1.586883170991     0.636203151349     1.079440873455
    H           -2.538304381706    -0.736919928675     0.576725132905
    C           -3.168369852986     1.421433352133    -1.037334585649
    H           -1.062599993934     1.130906162220    -1.309880512410
    H           -2.032367089191    -0.232550980665    -1.797798573009
    H           -3.075447381488     2.222397507830    -0.312036394425
    H           -3.326336363325     1.872842024882    -2.009923644087
    H           -4.057801411349     0.851420980246    -0.788837241971
    C            3.186441149668    -0.482119563040     0.243735141804
    H            3.296117927790     0.278682883990    -0.514662817030
    H            3.878538646912    -1.288775870560     0.064651656380
    H            3.368862807196    -0.042451066324     1.213065678849

  Mulliken Charges: (a.u.)
   Center  Symbol    Alpha    Beta     Spin     Total
       1     O     4.19959  4.19959  0.00000 -0.39917
       2     C     2.80387  2.80387  0.00000  0.39227
       3     C     3.10958  3.10958  0.00000 -0.21915
       4     O     4.14595  4.14595  0.00000 -0.29191
       5     C     3.09007  3.09007  0.00000 -0.18013
       6     H     0.43870  0.43870  0.00000  0.12260
       7     H     0.43299  0.43299  0.00000  0.13402
       8     C     3.08439  3.08439  0.00000 -0.16879
       9     H     0.44514  0.44514  0.00000  0.10973
      10     H     0.44696  0.44696  0.00000  0.10608
      11     C     3.15104  3.15104  0.00000 -0.30208
      12     H     0.44661  0.44661  0.00000  0.10679
      13     H     0.45731  0.45731  0.00000  0.08537
      14     H     0.45200  0.45200  0.00000  0.09600
      15     H     0.44845  0.44845  0.00000  0.10310
      16     H     0.45676  0.45676  0.00000  0.08649
      17     C     3.03663  3.03663  0.00000 -0.07327
      18     H     0.45428  0.45428  0.00000  0.09143
      19     H     0.44531  0.44531  0.00000  0.10938
      20     H     0.45437  0.45437  0.00000  0.09125

   Total alpha = 32.00000, Total beta = 32.00000, Total charge = -0.00000

*** Psi4 exiting successfully. Buy a developer a beer!
