  ==> Input File <==

--------------------------------------------------------------------------
set {
	reference rhf
	basis 6-31G*
}

set_num_threads( 1 )
memory 2 gb

molecule MOL {
0 1

O	 0.074228	 1.262779	 -0.000085
C	 0.028650	 0.075053	 -0.000277
C	 -1.233602	 -0.752807	 0.000328
O	 1.109162	 -0.694619	 -0.000298
C	 -2.501530	 0.091881	 0.000126
H	 -1.193807	 -1.406641	 -0.865785
H	 -1.193516	 -1.405779	 0.867015
H	 -2.545121	 0.729328	 -0.874513
H	 -3.377167	 -0.548497	 0.000561
H	 -2.544818	 0.730135	 0.874258
C	 2.353676	 -0.055100	 0.218309
H	 2.543425	 0.679497	 -0.550960
H	 3.097128	 -0.835984	 0.181388
H	 2.367239	 0.429776	 1.183805

	symmetry c1
}
set optking {
	frozen_dihedral = ("
		4 2 3 6
	")
}

ee = energy('scf')
oeprop('DIPOLE', 'QUADRUPOLE', 'MULLIKEN_CHARGES')
f=open( 'psi4out.xyz', 'w' )
f.write( "14  " )
f.write( str(ee) + "\n" )
f.write( MOL.save_string_xyz() )
f.close()
--------------------------------------------------------------------------

    Molecular point group: c1

    Geometry (in Angstrom), charge = 0, multiplicity = 1:

       Center              X                  Y                   Z               Mass
    ------------   -----------------  -----------------  -----------------  -----------------
           O          0.076208206738     1.265560419598    -0.039128310741    15.994914619560
           C          0.030630206738     0.077834419598    -0.039320310741    12.000000000000
           C         -1.231621793262    -0.750025580402    -0.038715310741    12.000000000000
           O          1.111142206738    -0.691837580402    -0.039341310741    15.994914619560
           C         -2.499549793262     0.094662419598    -0.038917310741    12.000000000000
           H         -1.191826793262    -1.403859580402    -0.904828310741     1.007825032070
           H         -1.191535793262    -1.402997580402     0.827971689259     1.007825032070
           H         -2.543140793262     0.732109419598    -0.913556310741     1.007825032070
           H         -3.375186793262    -0.545715580402    -0.038482310741     1.007825032070
           H         -2.542837793262     0.732916419598     0.835214689259     1.007825032070
           C          2.355656206738    -0.052318580402     0.179265689259    12.000000000000
           H          2.545405206738     0.682278419598    -0.590003310741     1.007825032070
           H          3.099108206738    -0.833202580402     0.142344689259     1.007825032070
           H          2.369219206738     0.432557419598     1.144761689259     1.007825032070

  Charge       = 0
  Multiplicity = 1
  Basis Set: 6-31G*
  Basis Set:

    Orbital Energies (a.u.)
    -----------------------

    Doubly Occupied:

       1A    -20.603985     2A    -20.546530     3A    -11.372989
       4A    -11.281751     5A    -11.238782     6A    -11.216671
       7A     -1.470078     8A     -1.363799     9A     -1.064392
      10A     -0.980370    11A     -0.878573    12A     -0.768915
      13A     -0.700785    14A     -0.682718    15A     -0.671738
      16A     -0.621277    17A     -0.602881    18A     -0.544626
      19A     -0.537523    20A     -0.522093    21A     -0.513931
      22A     -0.496366    23A     -0.457173    24A     -0.439157

  @DF-RHF Final Energy:  -305.87155011521122

   => Energetics <=

    Nuclear Repulsion Energy =            247.1320427384232232
    One-Electron Energy =                -906.8530290691917344
    Two-Electron Energy =                 353.8494362155576596
    DFT Exchange-Correlation Energy =       0.0000000000000000
    Empirical Dispersion Energy =           0.0000000000000000
    PCM Polarization Energy =               0.0000000000000000
    EFP Energy =                            0.0000000000000000
    Total Energy =                       -305.8715501152108232

  Mulliken Charges: (a.u.)
   Center  Symbol    Alpha    Beta     Spin     Total
       1     O     4.28466  4.28466  0.00000 -0.56931
       2     C     2.60823  2.60823  0.00000  0.78353
       3     C     3.20524  3.20524  0.00000 -0.41048
       4     O     4.30607  4.30607  0.00000 -0.61214
       5     C     3.23900  3.23900  0.00000 -0.47800
       6     H     0.39980  0.39980  0.00000  0.20040
       7     H     0.40069  0.40069  0.00000  0.19862
       8     H     0.40965  0.40965  0.00000  0.18071
       9     H     0.41791  0.41791  0.00000  0.16417
      10     H     0.41004  0.41004  0.00000  0.17992
      11     C     3.09264  3.09264  0.00000 -0.18528
      12     H     0.40663  0.40663  0.00000  0.18674
      13     H     0.40825  0.40825  0.00000  0.18351
      14     H     0.41118  0.41118  0.00000  0.17763

   Total alpha = 24.00000, Total beta = 24.00000, Total charge =  0.00000
