  ==> Input File <==

--------------------------------------------------------------------------
set {
	reference rhf
	basis 6-31G*
}

set_num_threads( 4 )
memory 2 gb

molecule MOL {
0 1

O	 1.846825	 1.296220	 0.000415
C	 1.705091	 0.115954	 0.001797
C	 0.381791	 -0.609817	 0.001258
O	 2.721346	 -0.737485	 -0.000216
C	 -0.823008	 0.326187	 0.001381
H	 0.371250	 -1.265087	 -0.865474
H	 0.370908	 -1.265746	 0.867490
C	 -2.149452	 -0.435131	 -0.000098
H	 -0.770201	 0.977095	 -0.865636
H	 -0.771220	 0.975655	 0.869608
C	 -3.368779	 0.488503	 -0.000883
H	 -2.193746	 -1.087250	 -0.871175
H	 -2.195311	 -1.087803	 0.870418
C	 -3.931428	 0.734904	 1.398390
H	 -4.144053	 0.059414	 -0.631734
H	 -3.098638	 1.439543	 -0.454408
H	 -4.243116	 -0.195152	 1.865360
H	 -4.794129	 1.392982	 1.364757
H	 -3.189172	 1.195564	 2.044269
C	 4.024888	 -0.184556	 -0.001949
H	 4.179030	 0.422472	 -0.882452
H	 4.701782	 -1.024608	 -0.003642
H	 4.181981	 0.421185	 0.878906

	symmetry c1
}
set optking {
	frozen_dihedral = ("
		15 11 8 12
	")
}

ee = optimize('scf')
oeprop('DIPOLE', 'QUADRUPOLE', 'MULLIKEN_CHARGES')
f=open( 'psi4out.xyz', 'w' )
f.write( "23  " )
f.write( str(ee) + "\n" )
f.write( MOL.save_string_xyz() )
f.close()
--------------------------------------------------------------------------

    Molecular point group: c1
  Charge       = 0
  Multiplicity = 1
  Basis Set: 6-31G*
  Basis Set:
  @DF-RHF Final Energy:  -422.97219934654834
    Total Energy =                       -422.9721993465484502
    Molecular point group: c1
  Basis Set: 6-31G*
  Basis Set:
  Basis Set: 6-31G*
  Basis Set:
  @DF-RHF Final Energy:  -422.97241973247662
    Total Energy =                       -422.9724197324766237
  Basis Set: 6-31G*
  Basis Set:
  Basis Set: 6-31G*
  Basis Set:
  @DF-RHF Final Energy:  -422.97177644285790
    Total Energy =                       -422.9717764428572764
  Basis Set: 6-31G*
  Basis Set:
  Basis Set: 6-31G*
  Basis Set:
  @DF-RHF Final Energy:  -422.97252396925842
    Total Energy =                       -422.9725239692581908
  Basis Set: 6-31G*
  Basis Set:
  Basis Set: 6-31G*
  Basis Set:
  @DF-RHF Final Energy:  -422.97253857892548
    Total Energy =                       -422.9725385789251959
  Basis Set: 6-31G*
  Basis Set:
  Charge       = 0
  Multiplicity = 1
  Basis Set: 6-31G*
  Basis Set:

    Orbital Energies (a.u.)
    -----------------------

    Doubly Occupied:

       1A    -20.603699     2A    -20.545509     3A    -11.372356
       4A    -11.280896     5A    -11.235496     6A    -11.219661
       7A    -11.217627     8A    -11.216186     9A    -11.209431
      10A     -1.469403    11A     -1.362850    12A     -1.092520
      13A     -1.042138    14A     -0.986112    15A     -0.931481
      16A     -0.849784    17A     -0.790649    18A     -0.767721
      19A     -0.696729    20A     -0.683465    21A     -0.672150
      22A     -0.642271    23A     -0.614744    24A     -0.597353
      25A     -0.584639    26A     -0.563441    27A     -0.535373
      28A     -0.529622    29A     -0.521836    30A     -0.505624
      31A     -0.494541    32A     -0.467380    33A     -0.461333
      34A     -0.459371    35A     -0.454282    36A     -0.435587

  @DF-RHF Final Energy:  -422.97253842633575

   => Energetics <=

    Nuclear Repulsion Energy =            455.2905677477164090
    One-Electron Energy =               -1478.2996876671541031
    Two-Electron Energy =                 600.0365814931021760
    DFT Exchange-Correlation Energy =       0.0000000000000000
    Empirical Dispersion Energy =           0.0000000000000000
    PCM Polarization Energy =               0.0000000000000000
    EFP Energy =                            0.0000000000000000
    Total Energy =                       -422.9725384263355181
    Molecular point group: c1
  Basis Set: 6-31G*
  Basis Set:

  -Total Gradient:
     Atom            X                  Y                   Z
    ------   -----------------  -----------------  -----------------
       1        0.000002503733    -0.000021387048    -0.000010549332
       2        0.000004968696     0.000013463186     0.000007620886
       3       -0.000013402998     0.000002409780    -0.000055273489
       4       -0.000005879866     0.000007712678    -0.000002898300
       5       -0.000021210488     0.000034420180     0.000055082808
       6        0.000000748057    -0.000027054423    -0.000013565626
       7        0.000000040896     0.000026026271    -0.000014448705
       8        0.002438679735     0.003407868417    -0.002923410568
       9       -0.000019760666     0.000041044254     0.000018156090
      10        0.000000225375    -0.000024578969     0.000005780470
      11       -0.001940499039    -0.002784487485     0.003845214782
      12       -0.001712635818    -0.002373812871     0.001894400971
      13       -0.000062011433    -0.000032966981     0.000032950297
      14        0.000073868936    -0.000042442721     0.000010959557
      15        0.001230887772     0.001734873918    -0.002743022514
      16        0.000014147171     0.000040436714    -0.000062576666
      17       -0.000028135525     0.000001751627    -0.000006756495
      18        0.000035738364     0.000020064489    -0.000042808972
      19       -0.000002780008    -0.000022442003     0.000001934253
      20        0.000000438804    -0.000002098922     0.000008341024
      21       -0.000000032073     0.000000411644    -0.000001850727
      22        0.000003240415     0.000000980160    -0.000001841713
      23        0.000000859949    -0.000000191895    -0.000001438031

  **** Optimization is complete! (in 6 steps) ****
    Final optimized geometry and variables:
    Molecular point group: c1

    Geometry (in Angstrom), charge = 0, multiplicity = 1:

    O            1.755117174738     1.181493193137    -0.168984229562
    C            1.615335930201     0.001030077735    -0.160372662966
    C            0.293101199297    -0.726689924539    -0.162221039337
    O            2.632848571485    -0.850728416949    -0.147079290495
    C           -0.912718368739     0.207341216283    -0.182684685088
    H            0.289489534542    -1.392511859295    -1.021037110498
    H            0.276662051275    -1.372044237137     0.711784985578
    C           -2.237910283569    -0.555994818257    -0.197583563536
    H           -0.851586008258     0.851976875405    -1.053653273963
    H           -0.871132920931     0.863477050445     0.681147749014
    C           -3.474380403797     0.360870287476    -0.154581003979
    H           -2.286421388574    -1.201274046272    -1.071603976034
    H           -2.270614530615    -1.233654638467     0.654767034117
    C           -3.993379156240     0.624578962324     1.258246053605
    H           -4.265789640972    -0.059734886975    -0.768449048506
    H           -3.227062027798     1.310598656770    -0.624507161321
    H           -4.329661472261    -0.294918567732     1.728767937791
    H           -4.829949460539     1.316333845935     1.246193417540
    H           -3.220428938382     1.054595073858     1.888869986347
    C            3.935553104759    -0.295728833304    -0.143011038067
    H            4.095909138662     0.303969230855    -1.027410094133
    H            4.613743662364    -1.134717652107    -0.132110788024
    H            4.084580133524     0.317711474839     0.733911865086

  Mulliken Charges: (a.u.)
   Center  Symbol    Alpha    Beta     Spin     Total
       1     O     4.28612  4.28612  0.00000 -0.57224
       2     C     2.60517  2.60517  0.00000  0.78965
       3     C     3.20836  3.20836  0.00000 -0.41671
       4     O     4.30723  4.30723  0.00000 -0.61447
       5     C     3.15332  3.15332  0.00000 -0.30663
       6     H     0.40060  0.40060  0.00000  0.19881
       7     H     0.40049  0.40049  0.00000  0.19903
       8     C     3.15745  3.15745  0.00000 -0.31489
       9     H     0.41114  0.41114  0.00000  0.17773
      10     H     0.41130  0.41130  0.00000  0.17739
      11     C     3.15530  3.15530  0.00000 -0.31059
      12     H     0.42098  0.42098  0.00000  0.15805
      13     H     0.42329  0.42329  0.00000  0.15343
      14     C     3.23994  3.23994  0.00000 -0.47988
      15     H     0.41954  0.41954  0.00000  0.16091
      16     H     0.41965  0.41965  0.00000  0.16070
      17     H     0.42166  0.42166  0.00000  0.15667
      18     H     0.41893  0.41893  0.00000  0.16213
      19     H     0.42054  0.42054  0.00000  0.15892
      20     C     3.09245  3.09245  0.00000 -0.18489
      21     H     0.40906  0.40906  0.00000  0.18189
      22     H     0.40841  0.40841  0.00000  0.18318
      23     H     0.40908  0.40908  0.00000  0.18185

   Total alpha = 36.00000, Total beta = 36.00000, Total charge = -0.00000
