  ==> Input File <==

--------------------------------------------------------------------------
set {
	reference rhf
	basis cc-pvtz
}

set_num_threads( 4 )
memory 2 gb

molecule MOL {
0 1

O	 1.707903	 -0.513466	 0.261283
C	 0.860843	 0.273204	 -0.013120
C	 -0.623368	 -0.117453	 -0.005652
C	 1.244783	 1.691541	 -0.385858
C	 -0.892588	 -1.253841	 -1.002900
C	 -1.473463	 1.100646	 -0.372896
C	 -0.981836	 -0.579025	 1.418506
H	 -0.609333	 -0.970024	 -2.010649
H	 -1.950451	 -1.487353	 -1.013175
H	 -0.360848	 -2.161259	 -0.746463
H	 -1.232203	 1.461623	 -1.364827
H	 -2.524364	 0.834451	 -0.354500
H	 -1.312381	 1.914833	 0.318657
H	 -2.035706	 -0.826342	 1.468082
H	 -0.425078	 -1.458934	 1.716857
H	 -0.788494	 0.205047	 2.140903
H	 1.074094	 2.341863	 0.464853
H	 2.294930	 1.713085	 -0.633236
H	 0.662412	 2.075797	 -1.211948

	symmetry c1
}
set optking {
	frozen_dihedral = ("
		1 2 3 5
	")
}

ee = optimize('scf')
oeprop('DIPOLE', 'QUADRUPOLE', 'MULLIKEN_CHARGES')
f=open( 'psi4out.xyz', 'w' )
f.write( "19  " )
f.write( str(ee) + "\n" )
f.write( MOL.save_string_xyz() )
f.close()
--------------------------------------------------------------------------

    Molecular point group: c1
  Charge       = 0
  Multiplicity = 1
  Basis Set: CC-PVTZ
  Basis Set:
  @DF-RHF Final Energy:  -309.16914855201929
    Total Energy =                       -309.1691485520192941
    Molecular point group: c1
  Basis Set: CC-PVTZ
  Basis Set:
  Basis Set: CC-PVTZ
  Basis Set:
  @DF-RHF Final Energy:  -309.17025261215048
    Total Energy =                       -309.1702526121504206
  Basis Set: CC-PVTZ
  Basis Set:
  Basis Set: CC-PVTZ
  Basis Set:
  @DF-RHF Final Energy:  -309.17231825960482
    Total Energy =                       -309.1723182596047081
  Basis Set: CC-PVTZ
  Basis Set:
  Basis Set: CC-PVTZ
  Basis Set:
  @DF-RHF Final Energy:  -309.17145372308698
    Total Energy =                       -309.1714537230873816
  Basis Set: CC-PVTZ
  Basis Set:
  @DF-RHF Final Energy:  -309.17285027584370
    Total Energy =                       -309.1728502758438708
  @DF-RHF Final Energy:  -309.17276314331281
    Total Energy =                       -309.1727631433129773
  @DF-RHF Final Energy:  -309.17283643829467
    Total Energy =                       -309.1728364382944392
  Basis Set: CC-PVTZ
  Basis Set:
  @DF-RHF Final Energy:  -309.17290288179419
    Total Energy =                       -309.1729028817941298
  Basis Set: CC-PVTZ
  Basis Set:
  Basis Set: CC-PVTZ
  Basis Set:
  @DF-RHF Final Energy:  -309.17293280854221
    Total Energy =                       -309.1729328085423845
  Basis Set: CC-PVTZ
  Basis Set:
  Basis Set: CC-PVTZ
  Basis Set:
  @DF-RHF Final Energy:  -309.17293503601428
    Total Energy =                       -309.1729350360142234
  Basis Set: CC-PVTZ
  Basis Set:
  Charge       = 0
  Multiplicity = 1
  Basis Set: CC-PVTZ
  Basis Set:

    Orbital Energies (a.u.)
    -----------------------

    Doubly Occupied:

       1A    -20.536262     2A    -11.318592     3A    -11.245470
       4A    -11.226182     5A    -11.219769     6A    -11.214512
       7A    -11.213856     8A     -1.398312     9A     -1.108775
      10A     -1.004893    11A     -0.941850    12A     -0.940371
      13A     -0.833847    14A     -0.705725    15A     -0.666852
      16A     -0.633517    17A     -0.624315    18A     -0.588233
      19A     -0.585693    20A     -0.574308    21A     -0.553309
      22A     -0.546782    23A     -0.522910    24A     -0.515374
      25A     -0.502935    26A     -0.472675    27A     -0.462296
      28A     -0.393771

  @DF-RHF Final Energy:  -309.17293511694504

   => Energetics <=

    Nuclear Repulsion Energy =            326.7629682114662728
    One-Electron Energy =               -1066.7690363931735646
    Two-Electron Energy =                 430.8331330647621371
    DFT Exchange-Correlation Energy =       0.0000000000000000
    Empirical Dispersion Energy =           0.0000000000000000
    PCM Polarization Energy =               0.0000000000000000
    EFP Energy =                            0.0000000000000000
    Total Energy =                       -309.1729351169451547
    Molecular point group: c1
  Basis Set: CC-PVTZ
  Basis Set:

  -Total Gradient:
     Atom            X                  Y                   Z
    ------   -----------------  -----------------  -----------------
       1       -0.000000823167    -0.000019112127    -0.000130672552
       2        0.000014445184     0.000025991746     0.000192886257
       3       -0.000021530707     0.000071177094    -0.000127490068
       4       -0.000000932381    -0.000010104780    -0.000008072833
       5        0.000011822110    -0.000060898792     0.000057172156
       6        0.000005036462    -0.000009403184     0.000000688447
       7       -0.000006375653     0.000001712061     0.000003838482
       8       -0.000000623332    -0.000001458157    -0.000001919786
       9       -0.000000174348     0.000000628240     0.000000718373
      10        0.000000390448     0.000003069268     0.000001428466
      11        0.000000533711     0.000000381490    -0.000001123936
      12        0.000000872527    -0.000002043016    -0.000000368295
      13        0.000000106556    -0.000001317757     0.000000895637
      14       -0.000001104501    -0.000000533456     0.000002998803
      15       -0.000003084390     0.000001950409    -0.000002084413
      16       -0.000001113954    -0.000000021193     0.000003171249
      17       -0.000000327615    -0.000003193761     0.000004179472
      18        0.000003037264     0.000004458322     0.000000784787
      19       -0.000000154210    -0.000001282410     0.000002969755

  **** Optimization is complete! (in 11 steps) ****
    Final optimized geometry and variables:
    Molecular point group: c1

    Geometry (in Angstrom), charge = 0, multiplicity = 1:

    O            1.685279909872    -0.661166627603     0.253247186773
    C            0.888223324532     0.179585637627    -0.012800634137
    C           -0.613969639536    -0.160727229848     0.022125725142
    C            1.351832459015     1.569114346507    -0.387936751836
    C           -0.847517486316    -1.290191686479    -0.993051412874
    C           -1.522365389053     1.025794327359    -0.317377172639
    C           -0.938081376057    -0.662916109896     1.437212111803
    H           -0.614996469930    -0.967580167386    -2.002776567446
    H           -1.887260934164    -1.596411887377    -0.975195104411
    H           -0.230124314091    -2.146537579122    -0.763080949376
    H           -1.343150719859     1.406066698448    -1.315776005122
    H           -2.558050325249     0.710889112273    -0.272860167592
    H           -1.403460057828     1.844474467287     0.382170065674
    H           -1.978969723402    -0.959980995829     1.496455047656
    H           -0.320417386775    -1.511018606817     1.694694234795
    H           -0.772465530188     0.112504916224     2.178052367777
    H            0.947378569497     2.306209517816     0.295221814464
    H            2.429763210437     1.597168976905    -0.355217768133
    H            1.010973026241     1.831052796430    -1.382429143618

  Mulliken Charges: (a.u.)
   Center  Symbol    Alpha    Beta     Spin     Total
       1     O     4.18176  4.18176  0.00000 -0.36352
       2     C     2.84555  2.84555  0.00000  0.30890
       3     C     3.00574  3.00574  0.00000 -0.01149
       4     C     3.16196  3.16196  0.00000 -0.32392
       5     C     3.15343  3.15343  0.00000 -0.30686
       6     C     3.16524  3.16524  0.00000 -0.33048
       7     C     3.15348  3.15348  0.00000 -0.30696
       8     H     0.45021  0.45021  0.00000  0.09958
       9     H     0.45000  0.45000  0.00000  0.10000
      10     H     0.43588  0.43588  0.00000  0.12824
      11     H     0.44584  0.44584  0.00000  0.10831
      12     H     0.44246  0.44246  0.00000  0.11508
      13     H     0.44581  0.44581  0.00000  0.10839
      14     H     0.45019  0.45019  0.00000  0.09961
      15     H     0.43565  0.43565  0.00000  0.12870
      16     H     0.45027  0.45027  0.00000  0.09947
      17     H     0.44745  0.44745  0.00000  0.10510
      18     H     0.43167  0.43167  0.00000  0.13665
      19     H     0.44741  0.44741  0.00000  0.10518

   Total alpha = 28.00000, Total beta = 28.00000, Total charge =  0.00000
