                              Psi4 1.0.54 Driver

  ==> Input File <==

--------------------------------------------------------------------------
set {
	reference rhf
	basis cc-pvtz
}

set_num_threads( 4 )
memory 2 gb

molecule MOL {
0 1

H	 2.121225	 -1.182868	 -0.882863
O	 2.012307	 -0.863440	 0.000222
C	 1.050374	 0.054877	 0.000135
C	 -0.318151	 -0.570512	 0.000144
O	 1.286319	 1.213453	 -0.000040
C	 -1.454884	 0.441630	 -0.000560
H	 -0.371613	 -1.223646	 -0.864985
H	 -0.371920	 -1.222758	 0.865929
C	 -2.822577	 -0.232186	 0.000063
H	 -1.359760	 1.084704	 -0.867077
H	 -1.359641	 1.085996	 0.864983
H	 -2.954352	 -0.858985	 -0.875745
H	 -3.615886	 0.505352	 0.000019
H	 -2.953878	 -0.858359	 0.876394

	symmetry c1
}
set optking {
	frozen_dihedral = ("
		1 2 3 5
	")
}

ee,wfn = optimize('scf', return_wfn=True)
oeprop( wfn, 'DIPOLE', 'QUADRUPOLE', 'MULLIKEN_CHARGES')
f=open( 'psi4out.xyz', 'w' )
f.write( "14  " )
f.write( str(ee) + "\n" )
f.write( MOL.save_string_xyz() )
f.close()
--------------------------------------------------------------------------

    Molecular point group: c1
  Charge       = 0
  Multiplicity = 1
  Basis Set: CC-PVTZ
  Basis Set:
  @DF-RHF Final Energy:  -305.97947035444895
    Total Energy =                       -305.9794703544489494
    Molecular point group: c1
  Basis Set: CC-PVTZ
  Basis Set:
  Basis Set: CC-PVTZ
  Basis Set:
  @DF-RHF Final Energy:  -305.98053259752862
    Total Energy =                       -305.9805325975285655
  Basis Set: CC-PVTZ
  Basis Set:
  Basis Set: CC-PVTZ
  Basis Set:
  @DF-RHF Final Energy:  -305.97921535784673
    Total Energy =                       -305.9792153578466696
  Basis Set: CC-PVTZ
  Basis Set:
  Basis Set: CC-PVTZ
  Basis Set:
  @DF-RHF Final Energy:  -305.98111269608171
    Total Energy =                       -305.9811126960816523
  Basis Set: CC-PVTZ
  Basis Set:
  Basis Set: CC-PVTZ
  Basis Set:
  @DF-RHF Final Energy:  -305.98113996715051
    Total Energy =                       -305.9811399671503978
  Basis Set: CC-PVTZ
  Basis Set:
  Charge       = 0
  Multiplicity = 1
  Basis Set: CC-PVTZ
  Basis Set:

    Orbital Energies (a.u.)
    -----------------------

    Doubly Occupied:

       1A    -20.586655     2A    -20.550783     3A    -11.374544
       4A    -11.243286     5A    -11.226150     6A    -11.217778
       7A     -1.463723     8A     -1.371290     9A     -1.085333
      10A     -0.977956    11A     -0.853144    12A     -0.802525
      13A     -0.715529    14A     -0.677246    15A     -0.665854
      16A     -0.632349    17A     -0.580811    18A     -0.561452
      19A     -0.545573    20A     -0.509675    21A     -0.499585
      22A     -0.485563    23A     -0.484989    24A     -0.447619

  @DF-RHF Final Energy:  -305.98114055659880

   => Energetics <=

    Nuclear Repulsion Energy =            239.6561717242099405
    One-Electron Energy =                -892.1557968369205582
    Two-Electron Energy =                 346.5184845561119573
    DFT Exchange-Correlation Energy =       0.0000000000000000
    Empirical Dispersion Energy =           0.0000000000000000
    PCM Polarization Energy =               0.0000000000000000
    EFP Energy =                            0.0000000000000000
    Total Energy =                       -305.9811405565986888
    Molecular point group: c1
  Basis Set: CC-PVTZ
  Basis Set:

  -Total Gradient:
     Atom            X                  Y                   Z
    ------   -----------------  -----------------  -----------------
       1        0.000607653159     0.000648814693    -0.000062224108
       2       -0.000830341516    -0.000688084610    -0.000277177826
       3        0.000172079232    -0.000056442332     0.001126799746
       4        0.000023262101     0.000038549166     0.000023886955
       5        0.000061379755     0.000077430100    -0.000787086406
       6       -0.000009614666     0.000006972228    -0.000012840137
       7       -0.000007937521    -0.000004746347    -0.000008657819
       8       -0.000010841677    -0.000010461349    -0.000010143152
       9       -0.000003386097     0.000000982141     0.000002624258
      10        0.000002141517    -0.000008218022     0.000008264613
      11        0.000000419968    -0.000003695397    -0.000002835734
      12       -0.000000208084     0.000001338762    -0.000000973334
      13       -0.000003470948    -0.000001928590     0.000000059352
      14       -0.000001135225    -0.000000510437     0.000000303592

  **** Optimization is complete! (in 6 steps) ****
    Final optimized geometry and variables:
    Molecular point group: c1

    Geometry (in Angstrom), charge = 0, multiplicity = 1:

    H            2.259007743545    -1.184915428837    -0.817354337543
    O            2.051753020717    -0.872638755967     0.047612613455
    C            1.055132069175     0.052088045223     0.028899618290
    C           -0.323876988673    -0.552502893356    -0.022389813406
    O            1.289105751442     1.200077059300     0.094480229034
    C           -1.453899454371     0.466721423692    -0.026278743306
    H           -0.369410973591    -1.189126021745    -0.902744578122
    H           -0.401506407786    -1.225992751536     0.825478461043
    C           -2.826755895678    -0.195106211763    -0.071868643114
    H           -1.334645153234     1.129744513469    -0.874974637743
    H           -1.372259884439     1.089418652529     0.856138237639
    H           -2.944398117047    -0.800658705750    -0.964644492079
    H           -3.613928676922     0.548906854251    -0.072648088959
    H           -2.982610706806    -0.839782531233     0.786745895583

  Mulliken Charges: (a.u.)
   Center  Symbol    Alpha    Beta     Spin     Total
       1     H     0.38940  0.38940  0.00000  0.22120
       2     O     4.17266  4.17266  0.00000 -0.34533
       3     C     2.80106  2.80106  0.00000  0.39789
       4     C     3.11246  3.11246  0.00000 -0.22492
       5     O     4.16016  4.16016  0.00000 -0.32032
       6     C     3.08073  3.08073  0.00000 -0.16145
       7     H     0.44972  0.44972  0.00000  0.10055
       8     H     0.43675  0.43675  0.00000  0.12649
       9     C     3.15022  3.15022  0.00000 -0.30044
      10     H     0.44702  0.44702  0.00000  0.10595
      11     H     0.44411  0.44411  0.00000  0.11178
      12     H     0.45628  0.45628  0.00000  0.08743
      13     H     0.44460  0.44460  0.00000  0.11079
      14     H     0.45482  0.45482  0.00000  0.09036

   Total alpha = 24.00000, Total beta = 24.00000, Total charge = -0.00000

*** Psi4 exiting successfully. Buy a developer a beer!
