  ==> Input File <==

--------------------------------------------------------------------------
set {
	reference rhf
	basis cc-pvtz
}

set_num_threads( 4 )
memory 2 gb

molecule MOL {
0 1

H	 -0.485319	 -1.631949	 0.148447
N	 -0.625934	 -0.663929	 -0.000707
C	 -1.978635	 -0.158664	 0.001017
C	 0.462529	 0.113727	 -0.193274
H	 -2.519057	 -0.493535	 -0.876362
H	 -1.938890	 0.917202	 -0.004137
H	 -2.514266	 -0.485137	 0.884506
C	 1.781264	 -0.626493	 -0.150480
O	 0.401654	 1.293356	 -0.377245
H	 1.813291	 -1.386936	 -0.922036
H	 2.582420	 0.077006	 -0.306387
H	 1.910884	 -1.114860	 0.808328

	symmetry c1
}
set optking {
	frozen_dihedral = ("
		4 2 3 5
	")
}

ee = optimize('scf')
oeprop('DIPOLE', 'QUADRUPOLE', 'MULLIKEN_CHARGES')
f=open( 'psi4out.xyz', 'w' )
f.write( "12  " )
f.write( str(ee) + "\n" )
f.write( MOL.save_string_xyz() )
f.close()
--------------------------------------------------------------------------

    Molecular point group: c1
  Charge       = 0
  Multiplicity = 1
  Basis Set: CC-PVTZ
  Basis Set:
  @DF-RHF Final Energy:  -247.10097108790038
    Total Energy =                       -247.1009710879002341
    Molecular point group: c1
  Basis Set: CC-PVTZ
  Basis Set:
  Basis Set: CC-PVTZ
  Basis Set:
  @DF-RHF Final Energy:  -247.10094754206779
    Total Energy =                       -247.1009475420678996
  Basis Set: CC-PVTZ
  Basis Set:
  Basis Set: CC-PVTZ
  Basis Set:
  @DF-RHF Final Energy:  -247.10097573386645
    Total Energy =                       -247.1009757338666759
  Basis Set: CC-PVTZ
  Basis Set:
  Basis Set: CC-PVTZ
  Basis Set:
  @DF-RHF Final Energy:  -247.10100256623332
    Total Energy =                       -247.1010025662334897
  Basis Set: CC-PVTZ
  Basis Set:
  Basis Set: CC-PVTZ
  Basis Set:
  @DF-RHF Final Energy:  -247.10100480582483
    Total Energy =                       -247.1010048058248003
  Basis Set: CC-PVTZ
  Basis Set:
  Basis Set: CC-PVTZ
  Basis Set:
  @DF-RHF Final Energy:  -247.10100740329358
    Total Energy =                       -247.1010074032936927
  Basis Set: CC-PVTZ
  Basis Set:
  Charge       = 0
  Multiplicity = 1
  Basis Set: CC-PVTZ
  Basis Set:

    Orbital Energies (a.u.)
    -----------------------

    Doubly Occupied:

       1A    -20.506693     2A    -15.574879     3A    -11.336846
       4A    -11.252469     5A    -11.228076     6A     -1.388518
       7A     -1.231024     8A     -1.016698     9A     -0.932868
      10A     -0.788217    11A     -0.690972    12A     -0.651693
      13A     -0.635373    14A     -0.586773    15A     -0.582981
      16A     -0.555639    17A     -0.545010    18A     -0.511234
      19A     -0.417308    20A     -0.389364

  @DF-RHF Final Energy:  -247.10100766134357

   => Energetics <=

    Nuclear Repulsion Energy =            181.6460545533160769
    One-Electron Energy =                -695.8488500651508275
    Two-Electron Energy =                 267.1017878504910641
    DFT Exchange-Correlation Energy =       0.0000000000000000
    Empirical Dispersion Energy =           0.0000000000000000
    PCM Polarization Energy =               0.0000000000000000
    EFP Energy =                            0.0000000000000000
    Total Energy =                       -247.1010076613437150
    Molecular point group: c1
  Basis Set: CC-PVTZ
  Basis Set:

  -Total Gradient:
     Atom            X                  Y                   Z
    ------   -----------------  -----------------  -----------------
       1       -0.000004268162    -0.000000505170    -0.000014875832
       2       -0.000015415527    -0.000045653457    -0.000140835261
       3        0.000058150612     0.000136717607    -0.000001752923
       4        0.000006676269     0.000016352780     0.000090197128
       5       -0.000035067085    -0.000101869250     0.000057179165
       6        0.000003435177    -0.000005116718    -0.000004587075
       7       -0.000011038947     0.000000621018    -0.000001548033
       8       -0.000000550644    -0.000004068286    -0.000029661023
       9       -0.000002627821     0.000001840131     0.000021790815
      10        0.000007088146    -0.000012631750     0.000014663823
      11       -0.000000781523    -0.000000993477    -0.000001511825
      12       -0.000005600494     0.000015306576     0.000010941041

  **** Optimization is complete! (in 7 steps) ****
    Final optimized geometry and variables:
    Molecular point group: c1

    Geometry (in Angstrom), charge = 0, multiplicity = 1:

    H           -0.482452004886    -1.623640307251     0.275418704063
    N           -0.620715617247    -0.651207215753     0.155084321566
    C           -1.973724888344    -0.147199235115     0.137872718712
    C            0.467130379540     0.125077035071    -0.047396402250
    H           -2.516021792123    -0.496655083906    -0.733385328796
    H           -1.936579066205     0.928654688241     0.113861369730
    H           -2.506843338867    -0.461048262326     1.026782721556
    C            1.785950733168    -0.615859838608    -0.012648676593
    O            0.404494830047     1.303706773108    -0.236256664363
    H            1.817153007119    -1.367666736503    -0.792843462696
    H            2.587246368927     0.088964663827    -0.162214223601
    H            1.916063836348    -1.114937537549     0.940468670684

  Mulliken Charges: (a.u.)
   Center  Symbol    Alpha    Beta     Spin     Total
       1     H     0.41041  0.41041  0.00000  0.17918
       2     N     3.62171  3.62171  0.00000 -0.24342
       3     C     3.08556  3.08556  0.00000 -0.17112
       4     C     2.83663  2.83663  0.00000  0.32673
       5     H     0.45626  0.45626  0.00000  0.08748
       6     H     0.43144  0.43144  0.00000  0.13712
       7     H     0.45525  0.45525  0.00000  0.08949
       8     C     3.15357  3.15357  0.00000 -0.30714
       9     O     4.21553  4.21553  0.00000 -0.43106
      10     H     0.45005  0.45005  0.00000  0.09990
      11     H     0.43353  0.43353  0.00000  0.13294
      12     H     0.45005  0.45005  0.00000  0.09991

   Total alpha = 20.00000, Total beta = 20.00000, Total charge = -0.00000
