  ==> Input File <==

--------------------------------------------------------------------------
set {
	reference rhf
	basis cc-pvtz
}

set_num_threads( 4 )
memory 2 gb

molecule MOL {
0 1

H	 3.459101	 0.139266	 -0.762951
C	 2.749156	 -0.051729	 0.031265
C	 1.322304	 0.099773	 -0.484271
H	 2.929445	 -1.053887	 0.403481
H	 2.954281	 0.646699	 0.834672
C	 0.308557	 -0.162619	 0.622645
H	 1.143368	 -0.594400	 -1.295960
H	 1.169532	 1.100095	 -0.870217
N	 -1.069352	 -0.004081	 0.085342
H	 0.371632	 -1.172932	 0.991288
H	 0.400391	 0.548875	 1.426218
O	 -1.257155	 0.888594	 -0.671254
O	 -1.893440	 -0.763132	 0.472205

	symmetry c1
}
set optking {
	frozen_dihedral = ("
		12 9 6 3
	")
}

ee = optimize('scf')
oeprop('DIPOLE', 'QUADRUPOLE', 'MULLIKEN_CHARGES')
f=open( 'psi4out.xyz', 'w' )
f.write( "13  " )
f.write( str(ee) + "\n" )
f.write( MOL.save_string_xyz() )
f.close()
--------------------------------------------------------------------------

    Molecular point group: c1
  Charge       = 0
  Multiplicity = 1
  Basis Set: CC-PVTZ
  Basis Set:
  @DF-RHF Final Energy:  -321.86005741083795
    Total Energy =                       -321.8600574108379533
    Molecular point group: c1
  Basis Set: CC-PVTZ
  Basis Set:
  Basis Set: CC-PVTZ
  Basis Set:
  @DF-RHF Final Energy:  -321.85944911543174
    Total Energy =                       -321.8594491154318007
  Basis Set: CC-PVTZ
  Basis Set:
  Basis Set: CC-PVTZ
  Basis Set:
  @DF-RHF Final Energy:  -321.85709156620965
    Total Energy =                       -321.8570915662095899
  Basis Set: CC-PVTZ
  Basis Set:
  Basis Set: CC-PVTZ
  Basis Set:
  @DF-RHF Final Energy:  -321.86078358095665
    Total Energy =                       -321.8607835809565927
  Basis Set: CC-PVTZ
  Basis Set:
  Basis Set: CC-PVTZ
  Basis Set:
  @DF-RHF Final Energy:  -321.86085591118308
    Total Energy =                       -321.8608559111831369
  Basis Set: CC-PVTZ
  Basis Set:
  Basis Set: CC-PVTZ
  Basis Set:
  @DF-RHF Final Energy:  -321.86087249509069
    Total Energy =                       -321.8608724950906890
  Basis Set: CC-PVTZ
  Basis Set:
  Basis Set: CC-PVTZ
  Basis Set:
  @DF-RHF Final Energy:  -321.86087368748872
    Total Energy =                       -321.8608736874889473
  Basis Set: CC-PVTZ
  Basis Set:
  Charge       = 0
  Multiplicity = 1
  Basis Set: CC-PVTZ
  Basis Set:

    Orbital Energies (a.u.)
    -----------------------

    Doubly Occupied:

       1A    -20.591278     2A    -20.590448     3A    -15.838002
       4A    -11.298462     5A    -11.249203     6A    -11.235575
       7A     -1.636915     8A     -1.420994     9A     -1.132311
      10A     -1.027142    11A     -0.884682    12A     -0.829416
      13A     -0.763618    14A     -0.746019    15A     -0.730287
      16A     -0.663726    17A     -0.605850    18A     -0.581461
      19A     -0.551822    20A     -0.522262    21A     -0.510254
      22A     -0.487596    23A     -0.474386    24A     -0.454512

  @DF-RHF Final Energy:  -321.86087383084077

   => Energetics <=

    Nuclear Repulsion Energy =            247.6860698473159346
    One-Electron Energy =                -929.4414396881220455
    Two-Electron Energy =                 359.8944960099653940
    DFT Exchange-Correlation Energy =       0.0000000000000000
    Empirical Dispersion Energy =           0.0000000000000000
    PCM Polarization Energy =               0.0000000000000000
    EFP Energy =                            0.0000000000000000
    Total Energy =                       -321.8608738308407169
    Molecular point group: c1
  Basis Set: CC-PVTZ
  Basis Set:

  -Total Gradient:
     Atom            X                  Y                   Z
    ------   -----------------  -----------------  -----------------
       1       -0.000004400140    -0.000001338993    -0.000000633200
       2        0.000000757943    -0.000005558440     0.000003593208
       3        0.000004466046     0.000388525459     0.000091518025
       4       -0.000000436291    -0.000000223790     0.000001994207
       5        0.000003503297     0.000002328457     0.000000860057
       6        0.000046610386    -0.000653228548    -0.000280033635
       7       -0.000002924782     0.000001959057     0.000008290200
       8       -0.000001713019     0.000007054440    -0.000005535196
       9       -0.000139543271     0.000580460402     0.000592474793
      10       -0.000006018479     0.000001641718     0.000000806978
      11        0.000000867136    -0.000001492958    -0.000009818268
      12        0.000106821430    -0.000322951224    -0.000396633684
      13       -0.000007990257     0.000002824421    -0.000006883486

  **** Optimization is complete! (in 8 steps) ****
    Final optimized geometry and variables:
    Molecular point group: c1

    Geometry (in Angstrom), charge = 0, multiplicity = 1:

    H            3.494590870754     0.127448310505    -0.755706932868
    C            2.767872622613    -0.060921960051     0.023739085202
    C            1.352308796012     0.120383827228    -0.515806240602
    H            2.928697610928    -1.068715098048     0.389949907480
    H            2.970633738816     0.626410665802     0.837761488436
    C            0.326011343123    -0.146508809430     0.570267718357
    H            1.181752032824    -0.560081014242    -1.342318920415
    H            1.219786970504     1.122244127606    -0.896640052628
    N           -1.077416878346    -0.008501556761     0.082298986445
    H            0.391226451913    -1.141373010506     0.976122484584
    H            0.405141432117     0.570410826938     1.376487110275
    O           -1.317104731107     0.879788918367    -0.664377281918
    O           -1.868753189736    -0.786646874464     0.496756292895

  Mulliken Charges: (a.u.)
   Center  Symbol    Alpha    Beta     Spin     Total
       1     H     0.44141  0.44141  0.00000  0.11718
       2     C     3.15194  3.15194  0.00000 -0.30389
       3     C     3.09439  3.09439  0.00000 -0.18877
       4     H     0.45248  0.45248  0.00000  0.09503
       5     H     0.45264  0.45264  0.00000  0.09473
       6     C     3.04277  3.04277  0.00000 -0.08555
       7     H     0.44364  0.44364  0.00000  0.11273
       8     H     0.43362  0.43362  0.00000  0.13277
       9     N     3.27568  3.27568  0.00000  0.44865
      10     H     0.43174  0.43174  0.00000  0.13653
      11     H     0.43719  0.43719  0.00000  0.12563
      12     O     4.17219  4.17219  0.00000 -0.34437
      13     O     4.17033  4.17033  0.00000 -0.34065

   Total alpha = 24.00000, Total beta = 24.00000, Total charge = -0.00000
