                              Psi4 1.0.54 Driver

  ==> Input File <==

--------------------------------------------------------------------------
set {
	reference rhf
	basis cc-pvtz
}

set_num_threads( 4 )
memory 2 gb

molecule MOL {
0 1

H	 1.563004	 0.772118	 3.121514
O	 2.096392	 0.932625	 2.363585
C	 1.410119	 0.726112	 1.225621
C	 2.080905	 0.927964	 0.027948
C	 0.090074	 0.328884	 1.218485
H	 3.107065	 1.236756	 0.056205
C	 1.429524	 0.731951	 -1.168143
H	 -0.451551	 0.165899	 2.126987
C	 -0.532034	 0.141680	 0.000000
H	 1.955944	 0.890361	 -2.088761
C	 0.103742	 0.332997	 -1.201028
N	 -1.937041	 -0.281114	 0.000000
H	 -0.414653	 0.177002	 -2.121709
O	 -2.159542	 -1.446261	 0.000000
O	 -2.764978	 0.565773	 0.000000

	symmetry c1
}
set optking {
	frozen_dihedral = ("
		11 9 12 14
	")
}

ee,wfn = optimize('scf', return_wfn=True)
oeprop( wfn, 'DIPOLE', 'QUADRUPOLE', 'MULLIKEN_CHARGES')
f=open( 'psi4out.xyz', 'w' )
f.write( "15  " )
f.write( str(ee) + "\n" )
f.write( MOL.save_string_xyz() )
f.close()
--------------------------------------------------------------------------

    Molecular point group: c1
  Charge       = 0
  Multiplicity = 1
  Basis Set: CC-PVTZ
  Basis Set:
  @DF-RHF Final Energy:  -509.20929071569202
    Total Energy =                       -509.2092907156920774
    Molecular point group: c1
  Basis Set: CC-PVTZ
  Basis Set:
  Basis Set: CC-PVTZ
  Basis Set:
  @DF-RHF Final Energy:  -509.20935120561910
    Total Energy =                       -509.2093512056192139
  Basis Set: CC-PVTZ
  Basis Set:
  Basis Set: CC-PVTZ
  Basis Set:
  @DF-RHF Final Energy:  -509.20921507489771
    Total Energy =                       -509.2092150748972017
  Basis Set: CC-PVTZ
  Basis Set:
  Basis Set: CC-PVTZ
  Basis Set:
  @DF-RHF Final Energy:  -509.20949142096765
    Total Energy =                       -509.2094914209682202
  Basis Set: CC-PVTZ
  Basis Set:
  Basis Set: CC-PVTZ
  Basis Set:
  @DF-RHF Final Energy:  -509.20948681382902
    Total Energy =                       -509.2094868138290167
  Basis Set: CC-PVTZ
  Basis Set:
  Basis Set: CC-PVTZ
  Basis Set:
  @DF-RHF Final Energy:  -509.20952717948433
    Total Energy =                       -509.2095271794846667
  Basis Set: CC-PVTZ
  Basis Set:
  Charge       = 0
  Multiplicity = 1
  Basis Set: CC-PVTZ
  Basis Set:

    Orbital Energies (a.u.)
    -----------------------

    Doubly Occupied:

       1A    -20.610733     2A    -20.601243     3A    -20.601187
       4A    -15.851109     5A    -11.330948     6A    -11.315214
       7A    -11.265345     8A    -11.263941     9A    -11.257588
      10A    -11.249734    11A     -1.648825    12A     -1.443752
      13A     -1.432114    14A     -1.204648    15A     -1.096593
      16A     -1.050041    17A     -0.966802    18A     -0.887372
      19A     -0.834247    20A     -0.794029    21A     -0.769025
      22A     -0.741354    23A     -0.724923    24A     -0.712757
      25A     -0.672325    26A     -0.636097    27A     -0.624058
      28A     -0.596188    29A     -0.565911    30A     -0.550411
      31A     -0.538977    32A     -0.495844    33A     -0.486966
      34A     -0.462146    35A     -0.376380    36A     -0.346314

  @DF-RHF Final Energy:  -509.20952732048880

   => Energetics <=

    Nuclear Repulsion Energy =            503.7680931702204248
    One-Electron Energy =               -1693.9449582157994882
    Two-Electron Energy =                 680.9673377250901467
    DFT Exchange-Correlation Energy =       0.0000000000000000
    Empirical Dispersion Energy =           0.0000000000000000
    PCM Polarization Energy =               0.0000000000000000
    EFP Energy =                            0.0000000000000000
    Total Energy =                       -509.2095273204888599
    Molecular point group: c1
  Basis Set: CC-PVTZ
  Basis Set:

  -Total Gradient:
     Atom            X                  Y                   Z
    ------   -----------------  -----------------  -----------------
       1       -0.000002130100    -0.000001797709    -0.000000967557
       2        0.000017988234    -0.000002505270     0.000010964299
       3       -0.000054444881     0.000020825313    -0.000010194819
       4        0.000007935855    -0.000020064268    -0.000020239899
       5        0.000032137948    -0.000000354852     0.000023629064
       6       -0.000000480231     0.000002216082     0.000002271271
       7        0.000019075745     0.000010119236     0.000011144201
       8       -0.000000426179    -0.000000141036    -0.000005195634
       9       -0.000018573548    -0.000041925881    -0.000023071420
      10       -0.000002572704     0.000001046288     0.000000227752
      11       -0.000021708946     0.000010332452     0.000013357704
      12        0.000032862451     0.000024830139    -0.000016811819
      13        0.000001624396     0.000000930638     0.000002647764
      14       -0.000003340185    -0.000003638649     0.000015105432
      15       -0.000007947852     0.000000127516    -0.000002866338

  **** Optimization is complete! (in 7 steps) ****
    Final optimized geometry and variables:
    Molecular point group: c1

    Geometry (in Angstrom), charge = 0, multiplicity = 1:

    H            1.632826356444     0.525227609437     2.829703926734
    O            2.159171716506     0.701879370697     2.070537365099
    C            1.478967681343     0.482924471961     0.933904084001
    C            2.142284288497     0.706437455190    -0.263870228687
    C            0.166702217932     0.050795825919     0.928056919060
    H            3.159829240555     1.041391643596    -0.236577416235
    C            1.492371389553     0.497701394176    -1.458054935739
    H           -0.366923010429    -0.128775761463     1.841664670478
    C           -0.443672885849    -0.144996471257    -0.289468825583
    H            2.012697445424     0.673112491764    -2.379316034687
    C            0.176104230100     0.064394013319    -1.491204803488
    N           -1.837015471126    -0.603553705912    -0.285938703104
    H           -0.338963068355    -0.101176763651    -2.415471693572
    O           -2.018389401252    -1.773314146873    -0.289166120166
    O           -2.677614547382     0.229856112666    -0.277487766365

  Mulliken Charges: (a.u.)
   Center  Symbol    Alpha    Beta     Spin     Total
       1     H     0.38450  0.38450  0.00000  0.23100
       2     O     4.16726  4.16726  0.00000 -0.33451
       3     C     2.84084  2.84084  0.00000  0.31832
       4     C     3.11035  3.11035  0.00000 -0.22070
       5     C     3.13712  3.13712  0.00000 -0.27424
       6     H     0.41439  0.41439  0.00000  0.17121
       7     C     3.04795  3.04795  0.00000 -0.09589
       8     H     0.42428  0.42428  0.00000  0.15145
       9     C     2.91905  2.91905  0.00000  0.16190
      10     H     0.41629  0.41629  0.00000  0.16742
      11     C     3.10511  3.10511  0.00000 -0.21022
      12     N     3.29312  3.29312  0.00000  0.41375
      13     H     0.41560  0.41560  0.00000  0.16880
      14     O     4.16207  4.16207  0.00000 -0.32414
      15     O     4.16208  4.16208  0.00000 -0.32415

   Total alpha = 36.00000, Total beta = 36.00000, Total charge =  0.00000

*** Psi4 exiting successfully. Buy a developer a beer!
