                              Psi4 1.0.54 Driver

  ==> Input File <==

--------------------------------------------------------------------------
set {
	reference rhf
	basis cc-pvtz
}

set_num_threads( 4 )
memory 2 gb

molecule MOL {
0 1

H	 0.301609	 1.700568	 -1.711293
C	 0.532861	 1.852385	 -0.648689
C	 0.692262	 0.592428	 0.156232
O	 0.634863	 2.947997	 -0.216411
C	 -0.554654	 -0.292621	 0.086567
H	 0.925773	 0.864831	 1.177068
H	 1.542716	 0.050565	 -0.252413
C	 -1.846385	 0.513195	 -0.016346
H	 -0.473986	 -0.956115	 -0.769708
H	 -0.597929	 -0.929215	 0.966651
C	 -3.089953	 -0.365049	 -0.098564
H	 -1.798267	 1.154820	 -0.891143
H	 -1.925398	 1.173265	 0.842889
H	 -3.055079	 -1.012299	 -0.968245
H	 -3.988403	 0.236438	 -0.170014
H	 -3.183055	 -0.995885	 0.779079

	symmetry c1
}
set optking {
	frozen_dihedral = ("
		6 3 5 9
	")
}

ee,wfn = optimize('scf', return_wfn=True)
oeprop( wfn, 'DIPOLE', 'QUADRUPOLE', 'MULLIKEN_CHARGES')
f=open( 'psi4out.xyz', 'w' )
f.write( "16  " )
f.write( str(ee) + "\n" )
f.write( MOL.save_string_xyz() )
f.close()
--------------------------------------------------------------------------

    Molecular point group: c1
  Charge       = 0
  Multiplicity = 1
  Basis Set: CC-PVTZ
  Basis Set:
  @DF-RHF Final Energy:  -270.11342281623490
    Total Energy =                       -270.1134228162350723
    Molecular point group: c1
  Basis Set: CC-PVTZ
  Basis Set:
  Basis Set: CC-PVTZ
  Basis Set:
  @DF-RHF Final Energy:  -270.11504361846880
    Total Energy =                       -270.1150436184688601
  Basis Set: CC-PVTZ
  Basis Set:
  Basis Set: CC-PVTZ
  Basis Set:
  @DF-RHF Final Energy:  -270.11511904587110
    Total Energy =                       -270.1151190458709266
  Basis Set: CC-PVTZ
  Basis Set:
  Basis Set: CC-PVTZ
  Basis Set:
  @DF-RHF Final Energy:  -270.11448642750480
    Total Energy =                       -270.1144864275048576
  Basis Set: CC-PVTZ
  Basis Set:
  @DF-RHF Final Energy:  -270.11529843187009
    Total Energy =                       -270.1152984318704284
  @DF-RHF Final Energy:  -270.11533108842752
    Total Energy =                       -270.1153310884276380
  Basis Set: CC-PVTZ
  Basis Set:
  @DF-RHF Final Energy:  -270.11534971649684
    Total Energy =                       -270.1153497164970076
  Basis Set: CC-PVTZ
  Basis Set:
  Basis Set: CC-PVTZ
  Basis Set:
  @DF-RHF Final Energy:  -270.11535620807820
    Total Energy =                       -270.1153562080781398
  Basis Set: CC-PVTZ
  Basis Set:
  Basis Set: CC-PVTZ
  Basis Set:
  @DF-RHF Final Energy:  -270.11535726366560
    Total Energy =                       -270.1153572636653735
  Basis Set: CC-PVTZ
  Basis Set:
  Charge       = 0
  Multiplicity = 1
  Basis Set: CC-PVTZ
  Basis Set:

    Orbital Energies (a.u.)
    -----------------------

    Doubly Occupied:

       1A    -20.551094     2A    -11.321300     3A    -11.234392
       4A    -11.233768     5A    -11.226285     6A    -11.216135
       7A     -1.406062     8A     -1.095956     9A     -1.017986
      10A     -0.906230    11A     -0.828919    12A     -0.781332
      13A     -0.671373    14A     -0.652110    15A     -0.625921
      16A     -0.607953    17A     -0.588841    18A     -0.553949
      19A     -0.527049    20A     -0.514153    21A     -0.493266
      22A     -0.477960    23A     -0.469854    24A     -0.411682

  @DF-RHF Final Energy:  -270.11535733275571

   => Energetics <=

    Nuclear Repulsion Energy =            234.1088435755393391
    One-Electron Energy =                -829.6212625224707153
    Two-Electron Energy =                 325.3970616141756409
    DFT Exchange-Correlation Energy =       0.0000000000000000
    Empirical Dispersion Energy =           0.0000000000000000
    PCM Polarization Energy =               0.0000000000000000
    EFP Energy =                            0.0000000000000000
    Total Energy =                       -270.1153573327557069
    Molecular point group: c1
  Basis Set: CC-PVTZ
  Basis Set:

  -Total Gradient:
     Atom            X                  Y                   Z
    ------   -----------------  -----------------  -----------------
       1       -0.000002515794    -0.000009904153    -0.000001093570
       2        0.000002959085     0.000019081355     0.000006746418
       3       -0.003293843587     0.005079585269    -0.000067692206
       4       -0.000001487563    -0.000014735554    -0.000000121386
       5       -0.002014158362     0.003609064926    -0.004033320528
       6        0.003055165474    -0.004781800454     0.000703595317
       7        0.000000765155     0.000000837662    -0.000000330237
       8        0.000001766933    -0.000002316979     0.000000926630
       9        0.002253680011    -0.003901326122     0.003385100925
      10       -0.000002722226     0.000001605095     0.000004830759
      11        0.000000626327     0.000000876830    -0.000002336930
      12       -0.000002281525    -0.000004913130     0.000002155488
      13        0.000001321047     0.000000593262     0.000001201709
      14        0.000001168765     0.000000563658    -0.000000470792
      15       -0.000001687338     0.000001071603    -0.000000369114
      16        0.000001243598     0.000001716733     0.000001177516

  **** Optimization is complete! (in 10 steps) ****
    Final optimized geometry and variables:
    Molecular point group: c1

    Geometry (in Angstrom), charge = 0, multiplicity = 1:

    H            1.087847960747     0.728361100701    -1.640777623569
    C            1.275813495072     0.919603502286    -0.576163313153
    C            1.247541312323    -0.297467203563     0.303966930106
    O            1.498464745699     2.019371472838    -0.203601712381
    C           -0.038780165215    -1.135652456416     0.194009321140
    H            1.451938204662    -0.016600448732     1.328352572388
    H            2.085531776441    -0.916757933223    -0.011122676508
    C           -1.334749440168    -0.331096429455     0.134234614451
    H            0.034853556512    -1.821500105748    -0.644496678055
    H           -0.071428204179    -1.778884695478     1.067988398032
    C           -2.575329778438    -1.217209536958     0.149966320193
    H           -1.351101511725     0.285844803382    -0.759116922695
    H           -1.366983999072     0.355004471560     0.975483994254
    H           -2.581691171589    -1.896955810870    -0.695574222574
    H           -3.479976470112    -0.622868940082     0.103341911373
    H           -2.617474285682    -1.814770329230     1.054256283817

  Mulliken Charges: (a.u.)
   Center  Symbol    Alpha    Beta     Spin     Total
       1     H     0.46246  0.46246  0.00000  0.07509
       2     C     2.90264  2.90264  0.00000  0.19472
       3     C     3.09176  3.09176  0.00000 -0.18351
       4     O     4.16762  4.16762  0.00000 -0.33523
       5     C     3.10635  3.10635  0.00000 -0.21270
       6     H     0.44052  0.44052  0.00000  0.11897
       7     H     0.44461  0.44461  0.00000  0.11078
       8     C     3.08847  3.08847  0.00000 -0.17694
       9     H     0.44793  0.44793  0.00000  0.10414
      10     H     0.44671  0.44671  0.00000  0.10657
      11     C     3.15051  3.15051  0.00000 -0.30102
      12     H     0.45152  0.45152  0.00000  0.09696
      13     H     0.44485  0.44485  0.00000  0.11030
      14     H     0.45489  0.45489  0.00000  0.09022
      15     H     0.44564  0.44564  0.00000  0.10873
      16     H     0.45353  0.45353  0.00000  0.09294

   Total alpha = 24.00000, Total beta = 24.00000, Total charge =  0.00000

*** Psi4 exiting successfully. Buy a developer a beer!
