  ==> Input File <==

--------------------------------------------------------------------------
set {
	reference rhf
	basis 6-31G*
}

set_num_threads( 4 )
memory 2 gb

molecule MOL {
0 1

H	 -3.420663	 1.227371	 -1.044276
O	 -3.452007	 0.283848	 -0.965577
C	 -3.181085	 -0.079926	 0.364119
C	 -1.765924	 0.277073	 0.805136
H	 -3.327791	 -1.152017	 0.410903
H	 -3.905698	 0.375695	 1.036898
C	 -0.677594	 -0.417312	 -0.014550
H	 -1.637766	 1.358238	 0.744969
H	 -1.659588	 0.017670	 1.857098
C	 0.738335	 -0.034840	 0.421385
H	 -0.814977	 -0.178223	 -1.064632
H	 -0.802730	 -1.495410	 0.071702
C	 0.817635	 0.361907	 1.897999
H	 1.406577	 -0.869799	 0.224626
H	 1.094821	 0.792393	 -0.191157
C	 2.199124	 0.838706	 2.360932
H	 0.504069	 -0.479625	 2.513788
H	 0.098429	 1.156955	 2.083630
C	 3.285825	 -0.237711	 2.332470
H	 2.110258	 1.216710	 3.376563
H	 2.511396	 1.683329	 1.749948
H	 2.995319	 -1.100910	 2.925456
H	 4.216993	 0.143705	 2.740251
H	 3.490164	 -0.582533	 1.324250

	symmetry c1
}
set optking {
	frozen_dihedral = ("
		13 10 7 11
	")
}

ee = optimize('scf')
oeprop('DIPOLE', 'QUADRUPOLE', 'MULLIKEN_CHARGES')
f=open( 'psi4out.xyz', 'w' )
f.write( "24  " )
f.write( str(ee) + "\n" )
f.write( MOL.save_string_xyz() )
f.close()
--------------------------------------------------------------------------

    Molecular point group: c1
  Charge       = 0
  Multiplicity = 1
  Basis Set: 6-31G*
  Basis Set:
  @DF-RHF Final Energy:  -349.23777588306996
    Total Energy =                       -349.2377758830700714
    Molecular point group: c1
  Basis Set: 6-31G*
  Basis Set:
  Basis Set: 6-31G*
  Basis Set:
  @DF-RHF Final Energy:  -349.23819290336087
    Total Energy =                       -349.2381929033609254
  Basis Set: 6-31G*
  Basis Set:
  Basis Set: 6-31G*
  Basis Set:
  @DF-RHF Final Energy:  -349.24080020807889
    Total Energy =                       -349.2408002080788947
  Basis Set: 6-31G*
  Basis Set:
  Basis Set: 6-31G*
  Basis Set:
  @DF-RHF Final Energy:  -349.24115086772309
    Total Energy =                       -349.2411508677233201
  Basis Set: 6-31G*
  Basis Set:
  @DF-RHF Final Energy:  -349.24116941933971
    Total Energy =                       -349.2411694193397125
  Basis Set: 6-31G*
  Basis Set:
  @DF-RHF Final Energy:  -349.24118049848778
    Total Energy =                       -349.2411804984877790
  Basis Set: 6-31G*
  Basis Set:
  Basis Set: 6-31G*
  Basis Set:
  @DF-RHF Final Energy:  -349.24118871415823
    Total Energy =                       -349.2411887141581701
  Basis Set: 6-31G*
  Basis Set:
  Basis Set: 6-31G*
  Basis Set:
  @DF-RHF Final Energy:  -349.24118987684835
    Total Energy =                       -349.2411898768489209
  Basis Set: 6-31G*
  Basis Set:
  Charge       = 0
  Multiplicity = 1
  Basis Set: 6-31G*
  Basis Set:

    Orbital Energies (a.u.)
    -----------------------

    Doubly Occupied:

       1A    -20.553748     2A    -11.267521     3A    -11.216623
       4A    -11.215080     5A    -11.213091     6A    -11.212470
       7A    -11.211357     8A    -11.207681     9A     -1.360286
      10A     -1.087568    11A     -1.046382    12A     -0.983132
      13A     -0.916970    14A     -0.854642    15A     -0.809033
      16A     -0.764012    17A     -0.677969    18A     -0.646007
      19A     -0.630997    20A     -0.620428    21A     -0.600729
      22A     -0.581304    23A     -0.553069    24A     -0.549771
      25A     -0.515806    26A     -0.511161    27A     -0.499984
      28A     -0.477570    29A     -0.474385    30A     -0.454165
      31A     -0.448188    32A     -0.437888    33A     -0.424406

  @DF-RHF Final Energy:  -349.24118986804893

   => Energetics <=

    Nuclear Repulsion Energy =            388.5451784326961047
    One-Electron Energy =               -1243.5258913591610508
    Two-Electron Energy =                 505.7395230584161254
    DFT Exchange-Correlation Energy =       0.0000000000000000
    Empirical Dispersion Energy =           0.0000000000000000
    PCM Polarization Energy =               0.0000000000000000
    EFP Energy =                            0.0000000000000000
    Total Energy =                       -349.2411898680488775
    Molecular point group: c1
  Basis Set: 6-31G*
  Basis Set:

  -Total Gradient:
     Atom            X                  Y                   Z
    ------   -----------------  -----------------  -----------------
       1        0.000001621198    -0.000002475679    -0.000001268311
       2        0.000018254821    -0.000005422043     0.000000578922
       3       -0.000009690980     0.000016025883    -0.000002548066
       4        0.000003917505    -0.000020334922     0.000018287107
       5        0.000000155025    -0.000001115981     0.000004741269
       6        0.000000949230     0.000002577026    -0.000000089735
       7        0.002327582615    -0.004892142626    -0.002575294710
       8        0.000000620598     0.000001751690     0.000000532647
       9        0.000002155149    -0.000002677903     0.000005815903
      10        0.001031564869    -0.005277732079     0.001945173154
      11       -0.002286741750     0.005661506442     0.001694854848
      12        0.000010433801     0.000004189382     0.000003769729
      13       -0.001088730282     0.004524607836    -0.001084673182
      14       -0.000000324022    -0.000006019127    -0.000008693854
      15       -0.000006942086     0.000005140575    -0.000003622178
      16       -0.000001984420     0.000007123504    -0.000001232568
      17       -0.000001723748    -0.000006273697     0.000002615024
      18       -0.000007002359    -0.000008276261     0.000001736954
      19        0.000000304127     0.000002072073     0.000008890452
      20        0.000002847105    -0.000000909100    -0.000003849137
      21        0.000003040663     0.000003471683    -0.000000165794
      22        0.000002814766    -0.000003418457    -0.000000430627
      23        0.000002496830    -0.000002607203    -0.000001327327
      24       -0.000005618641     0.000000938985    -0.000003800517

  **** Optimization is complete! (in 9 steps) ****
    Final optimized geometry and variables:
    Molecular point group: c1

    Geometry (in Angstrom), charge = 0, multiplicity = 1:

    H           -3.116990359893     1.085839529601    -1.988588317429
    O           -3.111355258904     0.139483060976    -1.947269116785
    C           -2.935001807648    -0.265086176006    -0.613216372622
    C           -1.573534113476     0.120448540467    -0.043048257443
    H           -3.047919239922    -1.342285184643    -0.615576914739
    H           -3.727081193376     0.141862895413     0.013006162776
    C           -0.410947299579    -0.532142323715    -0.800514819579
    H           -1.476759606696     1.205990065660    -0.073840401968
    H           -1.558056300443    -0.157833079455     1.007344140796
    C            1.005302234718    -0.092787529591    -0.367707924258
    H           -0.546913932502    -0.271841480805    -1.844021743226
    H           -0.507974459909    -1.611704665216    -0.716960924556
    C            1.178813969259     0.300944315969     1.103695786970
    H            1.700828802760    -0.884458647187    -0.626565186855
    H            1.298646898536     0.766831562498    -0.968521652556
    C            2.610656864406     0.710050753867     1.472252757721
    H            0.868799776200    -0.519671016333     1.749977161170
    H            0.520042908391     1.133071603141     1.331356693382
    C            3.630862676546    -0.429461991843     1.436691064638
    H            2.599391555517     1.133095916820     2.473875286172
    H            2.937875226931     1.509453688888     0.810197397679
    H            3.324974639455    -1.246366252727     2.084850344039
    H            4.603068854201    -0.085896008386     1.776737867997
    H            3.760374799580    -0.830892808679     0.437350268012

  Mulliken Charges: (a.u.)
   Center  Symbol    Alpha    Beta     Spin     Total
       1     H     0.28335  0.28335  0.00000  0.43329
       2     O     4.36847  4.36847  0.00000 -0.73694
       3     C     2.99629  2.99629  0.00000  0.00743
       4     C     3.17262  3.17262  0.00000 -0.34524
       5     H     0.41645  0.41645  0.00000  0.16711
       6     H     0.42789  0.42789  0.00000  0.14422
       7     C     3.15449  3.15449  0.00000 -0.30897
       8     H     0.42870  0.42870  0.00000  0.14260
       9     H     0.42000  0.42000  0.00000  0.15999
      10     C     3.15591  3.15591  0.00000 -0.31182
      11     H     0.40861  0.40861  0.00000  0.18278
      12     H     0.42267  0.42267  0.00000  0.15467
      13     C     3.15570  3.15570  0.00000 -0.31139
      14     H     0.41826  0.41826  0.00000  0.16349
      15     H     0.42472  0.42472  0.00000  0.15055
      16     C     3.15224  3.15224  0.00000 -0.30448
      17     H     0.42537  0.42537  0.00000  0.14925
      18     H     0.42070  0.42070  0.00000  0.15859
      19     C     3.24090  3.24090  0.00000 -0.48180
      20     H     0.42141  0.42141  0.00000  0.15719
      21     H     0.42363  0.42363  0.00000  0.15274
      22     H     0.42236  0.42236  0.00000  0.15527
      23     H     0.41945  0.41945  0.00000  0.16110
      24     H     0.41983  0.41983  0.00000  0.16035

   Total alpha = 33.00000, Total beta = 33.00000, Total charge = -0.00000
