  ==> Input File <==

--------------------------------------------------------------------------
set {
	reference rhf
	basis cc-pvtz
}

set_num_threads( 4 )
memory 2 gb

molecule MOL {
0 1

H	 2.828711	 -0.346904	 0.001083
C	 1.876752	 0.015931	 -0.363450
C	 0.776285	 -0.474665	 0.563092
H	 1.728113	 -0.357244	 -1.367440
H	 1.906171	 1.096574	 -0.386153
N	 -0.540022	 0.017605	 0.071630
H	 0.707111	 -1.548969	 0.573035
H	 0.886169	 -0.084184	 1.560432
O	 -0.564556	 0.521920	 -1.000405
O	 -1.468743	 -0.102602	 0.797869

	symmetry c1
}
set optking {
	frozen_dihedral = ("
		9 6 3 2
	")
}

ee = optimize('scf')
oeprop('DIPOLE', 'QUADRUPOLE', 'MULLIKEN_CHARGES')
f=open( 'psi4out.xyz', 'w' )
f.write( "10  " )
f.write( str(ee) + "\n" )
f.write( MOL.save_string_xyz() )
f.close()
--------------------------------------------------------------------------

    Molecular point group: c1
  Charge       = 0
  Multiplicity = 1
  Basis Set: CC-PVTZ
  Basis Set:
  @DF-RHF Final Energy:  -282.81102997528649
    Total Energy =                       -282.8110299752863170
    Molecular point group: c1
  Basis Set: CC-PVTZ
  Basis Set:
  Basis Set: CC-PVTZ
  Basis Set:
  @DF-RHF Final Energy:  -282.80984326736109
    Total Energy =                       -282.8098432673610887
  Basis Set: CC-PVTZ
  Basis Set:
  Basis Set: CC-PVTZ
  Basis Set:
  @DF-RHF Final Energy:  -282.80941859406892
    Total Energy =                       -282.8094185940687453
  Basis Set: CC-PVTZ
  Basis Set:
  Basis Set: CC-PVTZ
  Basis Set:
  @DF-RHF Final Energy:  -282.81273575307017
    Total Energy =                       -282.8127357530703421
  Basis Set: CC-PVTZ
  Basis Set:
  Basis Set: CC-PVTZ
  Basis Set:
  @DF-RHF Final Energy:  -282.81283918028134
    Total Energy =                       -282.8128391802813439
  Basis Set: CC-PVTZ
  Basis Set:
  Basis Set: CC-PVTZ
  Basis Set:
  @DF-RHF Final Energy:  -282.81288431748226
    Total Energy =                       -282.8128843174822578
  Basis Set: CC-PVTZ
  Basis Set:
  Basis Set: CC-PVTZ
  Basis Set:
  @DF-RHF Final Energy:  -282.81288714935454
    Total Energy =                       -282.8128871493546512
  Basis Set: CC-PVTZ
  Basis Set:
  Charge       = 0
  Multiplicity = 1
  Basis Set: CC-PVTZ
  Basis Set:

    Orbital Energies (a.u.)
    -----------------------

    Doubly Occupied:

       1A    -20.594981     2A    -20.588787     3A    -15.839658
       4A    -11.303293     5A    -11.243589     6A     -1.638639
       7A     -1.422908     8A     -1.123914     9A     -0.966908
      10A     -0.834862    11A     -0.762626    12A     -0.753741
      13A     -0.732216    14A     -0.638452    15A     -0.595020
      16A     -0.564098    17A     -0.538772    18A     -0.490392
      19A     -0.479933    20A     -0.455192

  @DF-RHF Final Energy:  -282.81288742226985

   => Energetics <=

    Nuclear Repulsion Energy =            186.5746729409692648
    One-Electron Energy =                -755.6391606137215149
    Two-Electron Energy =                 286.2516002504822268
    DFT Exchange-Correlation Energy =       0.0000000000000000
    Empirical Dispersion Energy =           0.0000000000000000
    PCM Polarization Energy =               0.0000000000000000
    EFP Energy =                            0.0000000000000000
    Total Energy =                       -282.8128874222699665
    Molecular point group: c1
  Basis Set: CC-PVTZ
  Basis Set:

  -Total Gradient:
     Atom            X                  Y                   Z
    ------   -----------------  -----------------  -----------------
       1       -0.000003961431    -0.000000371239    -0.000001068821
       2       -0.000009274720    -0.000033517109    -0.000020933816
       3        0.000018307526     0.000048371611     0.000047245993
       4       -0.000000375439    -0.000000434477     0.000005629001
       5        0.000005135684     0.000012053586    -0.000004300477
       6        0.000013583771    -0.000082997640    -0.000033526197
       7       -0.000007882546     0.000003026539     0.000003619561
       8        0.000005388257    -0.000000759539    -0.000002152957
       9       -0.000016600917     0.000048573594     0.000027805592
      10       -0.000004320184     0.000006054676    -0.000022317880

  **** Optimization is complete! (in 8 steps) ****
    Final optimized geometry and variables:
    Molecular point group: c1

    Geometry (in Angstrom), charge = 0, multiplicity = 1:

    H            2.855999024702    -0.371537130981     0.029492221635
    C            1.928260174680     0.009188729212    -0.380116892083
    C            0.797690425641    -0.445804458433     0.512982842052
    H            1.813775057493    -0.366069293797    -1.385770844689
    H            1.987818984428     1.087458314791    -0.421385055894
    N           -0.547486393091     0.029401609886     0.065527143848
    H            0.701730030401    -1.521145874998     0.546160216564
    H            0.889027841086    -0.088534438828     1.526056683849
    O           -0.644758059107     0.539129692760    -0.997554616888
    O           -1.440767876287    -0.157923378241     0.821946867742

  Mulliken Charges: (a.u.)
   Center  Symbol    Alpha    Beta     Spin     Total
       1     H     0.44933  0.44933  0.00000  0.10134
       2     C     3.13838  3.13838  0.00000 -0.27677
       3     C     3.04371  3.04371  0.00000 -0.08742
       4     H     0.44029  0.44029  0.00000  0.11943
       5     H     0.44296  0.44296  0.00000  0.11408
       6     N     3.27617  3.27617  0.00000  0.44765
       7     H     0.43406  0.43406  0.00000  0.13189
       8     H     0.43223  0.43223  0.00000  0.13554
       9     O     4.16937  4.16937  0.00000 -0.33875
      10     O     4.17349  4.17349  0.00000 -0.34699

   Total alpha = 20.00000, Total beta = 20.00000, Total charge =  0.00000
