  ==> Input File <==

--------------------------------------------------------------------------
set {
	reference rhf
	basis cc-pvtz
}

set_num_threads( 4 )
memory 2 gb

molecule MOL {
0 1

O	 -2.440701	 -0.934798	 -0.415053
C	 -1.922978	 0.063265	 -0.045005
C	 -2.632749	 1.372204	 0.158357
O	 -0.637375	 0.157174	 0.243149
H	 -2.187724	 2.129143	 -0.474664
H	 -3.677681	 1.257276	 -0.079438
H	 -2.516788	 1.693160	 1.185542
C	 0.162530	 -1.009518	 0.097799
C	 1.587210	 -0.664190	 0.477086
H	 0.096803	 -1.356267	 -0.924704
H	 -0.233803	 -1.785900	 0.736810
C	 2.256770	 0.342732	 -0.454344
H	 2.154716	 -1.590834	 0.479041
H	 1.598751	 -0.289614	 1.496104
C	 1.763593	 0.231306	 -1.893086
H	 2.070314	 1.347883	 -0.085557
H	 3.330730	 0.198802	 -0.427192
H	 2.251326	 0.959009	 -2.531012
H	 0.693670	 0.400495	 -1.956587
H	 1.966124	 -0.753532	 -2.300630

	symmetry c1
}
set optking {
	frozen_dihedral = ("
		16 12 9 8
	")
}

ee = optimize('scf')
oeprop('DIPOLE', 'QUADRUPOLE', 'MULLIKEN_CHARGES')
f=open( 'psi4out.xyz', 'w' )
f.write( "20  " )
f.write( str(ee) + "\n" )
f.write( MOL.save_string_xyz() )
f.close()
--------------------------------------------------------------------------

    Molecular point group: c1
  Charge       = 0
  Multiplicity = 1
  Basis Set: CC-PVTZ
  Basis Set:
  @DF-RHF Final Energy:  -384.08058884903494
    Total Energy =                       -384.0805888490353937
    Molecular point group: c1
  Basis Set: CC-PVTZ
  Basis Set:
  Basis Set: CC-PVTZ
  Basis Set:
  @DF-RHF Final Energy:  -384.08229269120460
    Total Energy =                       -384.0822926912046569
  Basis Set: CC-PVTZ
  Basis Set:
  Basis Set: CC-PVTZ
  Basis Set:
  @DF-RHF Final Energy:  -384.08299025523092
    Total Energy =                       -384.0829902552308113
  Basis Set: CC-PVTZ
  Basis Set:
  Basis Set: CC-PVTZ
  Basis Set:
  @DF-RHF Final Energy:  -384.08291522277460
    Total Energy =                       -384.0829152227743180
  Basis Set: CC-PVTZ
  Basis Set:
  Basis Set: CC-PVTZ
  Basis Set:
  @DF-RHF Final Energy:  -384.08307471344142
    Total Energy =                       -384.0830747134413059
  Basis Set: CC-PVTZ
  Basis Set:
  Basis Set: CC-PVTZ
  Basis Set:
  @DF-RHF Final Energy:  -384.08311633305874
    Total Energy =                       -384.0831163330585696
  Basis Set: CC-PVTZ
  Basis Set:
  Basis Set: CC-PVTZ
  Basis Set:
  @DF-RHF Final Energy:  -384.08312144082123
    Total Energy =                       -384.0831214408210599
  Basis Set: CC-PVTZ
  Basis Set:
  Charge       = 0
  Multiplicity = 1
  Basis Set: CC-PVTZ
  Basis Set:

    Orbital Energies (a.u.)
    -----------------------

    Doubly Occupied:

       1A    -20.593847     2A    -20.532528     3A    -11.366408
       4A    -11.279193     5A    -11.231560     6A    -11.224105
       7A    -11.219984     8A    -11.211463     9A     -1.470504
      10A     -1.364717    11A     -1.085574    12A     -1.027178
      13A     -0.980179    14A     -0.894237    15A     -0.805780
      16A     -0.770192    17A     -0.692930    18A     -0.691088
      19A     -0.666235    20A     -0.626831    21A     -0.617286
      22A     -0.580063    23A     -0.572480    24A     -0.563013
      25A     -0.538505    26A     -0.530455    27A     -0.523317
      28A     -0.480319    29A     -0.472903    30A     -0.470179
      31A     -0.453010    32A     -0.441193

  @DF-RHF Final Energy:  -384.08312185798724

   => Energetics <=

    Nuclear Repulsion Energy =            393.9338884673371126
    One-Electron Energy =               -1304.0795051264219637
    Two-Electron Energy =                 526.0624948010982962
    DFT Exchange-Correlation Energy =       0.0000000000000000
    Empirical Dispersion Energy =           0.0000000000000000
    PCM Polarization Energy =               0.0000000000000000
    EFP Energy =                            0.0000000000000000
    Total Energy =                       -384.0831218579866118
    Molecular point group: c1
  Basis Set: CC-PVTZ
  Basis Set:

  -Total Gradient:
     Atom            X                  Y                   Z
    ------   -----------------  -----------------  -----------------
       1        0.000018450496     0.000004025208     0.000004874632
       2       -0.000012515232     0.000013098669    -0.000011166298
       3       -0.000012089623     0.000001948145     0.000007288526
       4        0.000030156921    -0.000029104694    -0.000040817833
       5       -0.000000056427    -0.000002823311     0.000000103486
       6       -0.000003673389     0.000005564480     0.000000965139
       7       -0.000001148382     0.000002267556    -0.000001846745
       8        0.001331934833    -0.003135779634    -0.002430059956
       9       -0.000822098895     0.004437925662     0.004278845199
      10       -0.000005917462     0.000001662478    -0.000006140880
      11        0.000004451302    -0.000001555937    -0.000004265608
      12       -0.005202485159    -0.000917227238    -0.004865041151
      13        0.000007258831     0.000011053634    -0.000000769544
      14        0.000001652578    -0.000002667703     0.000003564944
      15       -0.000023889633     0.000002204438     0.000025023466
      16        0.004674839181    -0.000391750964     0.003054811074
      17        0.000008322643    -0.000000812548     0.000001856595
      18        0.000000475259     0.000001238400    -0.000005272920
      19        0.000002287568     0.000000546496    -0.000004693194
      20        0.000004044589     0.000000186865    -0.000007258934

  **** Optimization is complete! (in 8 steps) ****
    Final optimized geometry and variables:
    Molecular point group: c1

    Geometry (in Angstrom), charge = 0, multiplicity = 1:

    O           -2.232988255638    -0.912917536882    -0.060354748263
    C           -1.702526332924     0.103121561070     0.235446071531
    C           -2.406797424463     1.419873536969     0.402798797166
    O           -0.405533157776     0.211906697943     0.459926145616
    H           -1.992711703219     2.143709590566    -0.287312022025
    H           -3.460969873105     1.292113346546     0.218184925734
    H           -2.245915545414     1.793049844871     1.405938559270
    C            0.390044404199    -0.962628868924     0.342956981748
    C            1.824879375519    -0.607855009581     0.671400750360
    H            0.288375722920    -1.359003429945    -0.655970687350
    H            0.016167782494    -1.707554366331     1.030931939033
    C            2.511162726078     0.408989306176    -0.255439906517
    H            2.374509488863    -1.544890094627     0.635752217542
    H            1.880868148271    -0.258201676230     1.695809981544
    C            2.146570411906     0.325336271247    -1.733255689239
    H            2.347811675987     1.412104496055     0.122403717630
    H            3.581971112837     0.254295999944    -0.158565209340
    H            2.750732325426     1.017459514401    -2.307780167572
    H            1.107664210660     0.573791542332    -1.909685021910
    H            2.324211677124    -0.669372117625    -2.129394557698

  Mulliken Charges: (a.u.)
   Center  Symbol    Alpha    Beta     Spin     Total
       1     O     4.19712  4.19712  0.00000 -0.39424
       2     C     2.81065  2.81065  0.00000  0.37870
       3     C     3.13813  3.13813  0.00000 -0.27627
       4     O     4.15717  4.15717  0.00000 -0.31434
       5     H     0.44627  0.44627  0.00000  0.10746
       6     H     0.43798  0.43798  0.00000  0.12405
       7     H     0.44562  0.44562  0.00000  0.10876
       8     C     2.99745  2.99745  0.00000  0.00511
       9     C     3.09404  3.09404  0.00000 -0.18807
      10     H     0.44696  0.44696  0.00000  0.10607
      11     H     0.43812  0.43812  0.00000  0.12376
      12     C     3.08398  3.08398  0.00000 -0.16795
      13     H     0.45131  0.45131  0.00000  0.09738
      14     H     0.44764  0.44764  0.00000  0.10471
      15     C     3.15878  3.15878  0.00000 -0.31757
      16     H     0.44957  0.44957  0.00000  0.10086
      17     H     0.45073  0.45073  0.00000  0.09853
      18     H     0.44424  0.44424  0.00000  0.11153
      19     H     0.45120  0.45120  0.00000  0.09760
      20     H     0.45304  0.45304  0.00000  0.09392

   Total alpha = 32.00000, Total beta = 32.00000, Total charge = -0.00000
