  ==> Input File <==

--------------------------------------------------------------------------
set {
	reference rhf
	basis 6-31G*
}

set_num_threads( 1 )
memory 2 gb

molecule MOL {
0 1

H	 -3.161837	 0.500524	 -0.000234
C	 -2.367097	 -0.232926	 -0.000000
O	 -1.158440	 0.455814	 -0.000122
H	 -2.468853	 -0.861886	 -0.882833
H	 -2.468942	 -0.861421	 0.883154
C	 -0.029776	 -0.365156	 0.000148
C	 -0.188566	 -1.416449	 1.084689
H	 0.867103	 0.229753	 0.177885
H	 0.088394	 -0.841177	 -0.974197
C	 1.007137	 -2.364972	 1.158706
H	 -0.326086	 -0.911618	 2.035949
H	 -1.099299	 -1.975124	 0.891951
H	 1.926401	 -1.827893	 1.375328
H	 0.867020	 -3.104399	 1.940025
H	 1.148179	 -2.898531	 0.222850

	symmetry c1
}
set optking {
	frozen_dihedral = ("
		6 3 2 4,
		11 7 6 8
	")
}

ee = energy('scf')
oeprop('DIPOLE', 'QUADRUPOLE', 'MULLIKEN_CHARGES')
f=open( 'psi4out.xyz', 'w' )
f.write( "15  " )
f.write( str(ee) + "\n" )
f.write( MOL.save_string_xyz() )
f.close()
--------------------------------------------------------------------------

    Molecular point group: c1

    Geometry (in Angstrom), charge = 0, multiplicity = 1:

       Center              X                  Y                   Z               Mass
    ------------   -----------------  -----------------  -----------------  -----------------
           H         -2.593035780985     1.282363415836    -0.440809336884     1.007825032070
           C         -1.798295780985     0.548913415836    -0.440575336884    12.000000000000
           O         -0.589638780985     1.237653415836    -0.440697336884    15.994914619560
           H         -1.900051780985    -0.080046584164    -1.323408336884     1.007825032070
           H         -1.900140780985    -0.079581584164     0.442578663116     1.007825032070
           C          0.539025219015     0.416683415836    -0.440427336884    12.000000000000
           C          0.380235219015    -0.634609584164     0.644113663116    12.000000000000
           H          1.435904219015     1.011592415836    -0.262690336884     1.007825032070
           H          0.657195219015    -0.059337584164    -1.414772336884     1.007825032070
           C          1.575938219015    -1.583132584164     0.718130663116    12.000000000000
           H          0.242715219015    -0.129778584164     1.595373663116     1.007825032070
           H         -0.530497780985    -1.193284584164     0.451375663116     1.007825032070
           H          2.495202219015    -1.046053584164     0.934752663116     1.007825032070
           H          1.435821219015    -2.322559584164     1.499449663116     1.007825032070
           H          1.716980219015    -2.116691584164    -0.217725336884     1.007825032070

  Charge       = 0
  Multiplicity = 1
  Basis Set: 6-31G*
  Basis Set:

    Orbital Energies (a.u.)
    -----------------------

    Doubly Occupied:

       1A    -20.551743     2A    -11.267091     3A    -11.261921
       4A    -11.215915     5A    -11.214796     6A     -1.379137
       7A     -1.056357     8A     -0.960357     9A     -0.891424
      10A     -0.800569    11A     -0.674601    12A     -0.662703
      13A     -0.630184    14A     -0.604401    15A     -0.565902
      16A     -0.533125    17A     -0.527692    18A     -0.501113
      19A     -0.485258    20A     -0.446956    21A     -0.406159

  @DF-RHF Final Energy:  -232.12583014652986

   => Energetics <=

    Nuclear Repulsion Energy =            194.7690890880303698
    One-Electron Energy =                -700.5150363288084918
    Two-Electron Energy =                 273.6201170942479735
    DFT Exchange-Correlation Energy =       0.0000000000000000
    Empirical Dispersion Energy =           0.0000000000000000
    PCM Polarization Energy =               0.0000000000000000
    EFP Energy =                            0.0000000000000000
    Total Energy =                       -232.1258301465301770

  Mulliken Charges: (a.u.)
   Center  Symbol    Alpha    Beta     Spin     Total
       1     H     0.41116  0.41116  0.00000  0.17769
       2     C     3.08770  3.08770  0.00000 -0.17540
       3     O     4.30442  4.30442  0.00000 -0.60884
       4     H     0.43099  0.43099  0.00000  0.13802
       5     H     0.42481  0.42481  0.00000  0.15038
       6     C     2.98199  2.98199  0.00000  0.03602
       7     C     3.17932  3.17932  0.00000 -0.35863
       8     H     0.41562  0.41562  0.00000  0.16877
       9     H     0.43183  0.43183  0.00000  0.13634
      10     C     3.24445  3.24445  0.00000 -0.48890
      11     H     0.41373  0.41373  0.00000  0.17253
      12     H     0.41641  0.41641  0.00000  0.16719
      13     H     0.42027  0.42027  0.00000  0.15945
      14     H     0.41666  0.41666  0.00000  0.16668
      15     H     0.42065  0.42065  0.00000  0.15871

   Total alpha = 21.00000, Total beta = 21.00000, Total charge = -0.00000
