  ==> Input File <==

--------------------------------------------------------------------------
set {
	reference rhf
	basis cc-pvtz
}

set_num_threads( 4 )
memory 2 gb

molecule MOL {
0 1

H	 2.390096	 -1.146127	 -0.167900
O	 1.705534	 -0.579655	 -0.472102
C	 1.135873	 0.113391	 0.608264
C	 0.027642	 1.012027	 0.090274
H	 1.886147	 0.724854	 1.103208
H	 0.749025	 -0.585023	 1.345167
C	 -1.138737	 0.285728	 -0.581921
H	 0.464661	 1.708096	 -0.618252
H	 -0.340737	 1.603071	 0.925246
C	 -1.933983	 -0.631436	 0.343653
H	 -0.763151	 -0.285569	 -1.422081
H	 -1.808359	 1.035291	 -0.992333
H	 -2.789188	 -1.049673	 -0.174718
H	 -1.335629	 -1.461368	 0.700418
H	 -2.305435	 -0.092167	 1.209725

	symmetry c1
}
set optking {
	frozen_dihedral = ("
		2 3 4 8
	")
}

ee = optimize('scf')
oeprop('DIPOLE', 'QUADRUPOLE', 'MULLIKEN_CHARGES')
f=open( 'psi4out.xyz', 'w' )
f.write( "15  " )
f.write( str(ee) + "\n" )
f.write( MOL.save_string_xyz() )
f.close()
--------------------------------------------------------------------------

    Molecular point group: c1
  Charge       = 0
  Multiplicity = 1
  Basis Set: CC-PVTZ
  Basis Set:
  @DF-RHF Final Energy:  -232.23761944223986
    Total Energy =                       -232.2376194422399749
    Molecular point group: c1
  Basis Set: CC-PVTZ
  Basis Set:
  Basis Set: CC-PVTZ
  Basis Set:
  @DF-RHF Final Energy:  -232.23761540948698
    Total Energy =                       -232.2376154094870344
  Basis Set: CC-PVTZ
  Basis Set:
  Basis Set: CC-PVTZ
  Basis Set:
  @DF-RHF Final Energy:  -232.23762534311834
    Total Energy =                       -232.2376253431181681
  Basis Set: CC-PVTZ
  Basis Set:
  Charge       = 0
  Multiplicity = 1
  Basis Set: CC-PVTZ
  Basis Set:

    Orbital Energies (a.u.)
    -----------------------

    Doubly Occupied:

       1A    -20.546495     2A    -11.265339     3A    -11.210928
       4A    -11.207516     5A    -11.203382     6A     -1.364283
       7A     -1.065502     8A     -0.971731     9A     -0.869499
      10A     -0.775597    11A     -0.707220    12A     -0.650031
      13A     -0.609190    14A     -0.575142    15A     -0.566031
      16A     -0.533688    17A     -0.511086    18A     -0.475726
      19A     -0.468243    20A     -0.453149    21A     -0.433314

  @DF-RHF Final Energy:  -232.23762574536380

   => Energetics <=

    Nuclear Repulsion Energy =            191.7486149402460001
    One-Electron Energy =                -695.0462998300142772
    Two-Electron Energy =                 271.0600591444044767
    DFT Exchange-Correlation Energy =       0.0000000000000000
    Empirical Dispersion Energy =           0.0000000000000000
    PCM Polarization Energy =               0.0000000000000000
    EFP Energy =                            0.0000000000000000
    Total Energy =                       -232.2376257453638004
    Molecular point group: c1
  Basis Set: CC-PVTZ
  Basis Set:

  -Total Gradient:
     Atom            X                  Y                   Z
    ------   -----------------  -----------------  -----------------
       1        0.000000519611     0.000004553090    -0.000002369368
       2        0.000198711010     0.000231632360    -0.000023812134
       3       -0.000282371441    -0.000357845272    -0.000018961679
       4        0.000159097069     0.000415015366     0.000359798494
       5        0.000001034118    -0.000004147832     0.000002921870
       6        0.000013462559    -0.000007722891    -0.000002496315
       7       -0.000001948701    -0.000003838297     0.000011195771
       8       -0.000069563771    -0.000262038208    -0.000311037690
       9       -0.000003606658    -0.000010890066    -0.000004295682
      10       -0.000014948067     0.000005230016    -0.000003406536
      11        0.000005479158     0.000001278001    -0.000003329820
      12       -0.000004940997    -0.000010673502     0.000000845090
      13       -0.000003270018     0.000001127214     0.000000362164
      14       -0.000003972623     0.000001219847    -0.000004462554
      15        0.000006318755    -0.000002899828    -0.000000951613

  **** Optimization is complete! (in 4 steps) ****
    Final optimized geometry and variables:
    Molecular point group: c1

    Geometry (in Angstrom), charge = 0, multiplicity = 1:

    H            2.383839186362    -1.151176493854    -0.178089543540
    O            1.700594791337    -0.580587810556    -0.477272058059
    C            1.133105220334     0.105240761457     0.608841485239
    C            0.019884401685     1.001703834899     0.098113381145
    H            1.883708217052     0.717764553734     1.102052467643
    H            0.752955445678    -0.597320164580     1.345152128053
    C           -1.142740630434     0.273202739280    -0.578624158719
    H            0.454331955379     1.701038546691    -0.608674969989
    H           -0.351501075939     1.587061956831     0.935541057650
    C           -1.947384989154    -0.636668986271     0.346018269486
    H           -0.761506830375    -0.303428407797    -1.412708694262
    H           -1.808140114999     1.021065137743    -0.998778074668
    H           -2.797303568162    -1.059015936079    -0.177657953308
    H           -1.353372412103    -1.463884861298     0.716109288356
    H           -2.327537772563    -0.090223791602     1.203716196031

  Mulliken Charges: (a.u.)
   Center  Symbol    Alpha    Beta     Spin     Total
       1     H     0.39556  0.39556  0.00000  0.20887
       2     O     4.19914  4.19914  0.00000 -0.39828
       3     C     2.97525  2.97525  0.00000  0.04950
       4     C     3.09478  3.09478  0.00000 -0.18956
       5     H     0.46365  0.46365  0.00000  0.07271
       6     H     0.47257  0.47257  0.00000  0.05486
       7     C     3.08648  3.08648  0.00000 -0.17295
       8     H     0.44828  0.44828  0.00000  0.10344
       9     H     0.45447  0.45447  0.00000  0.09106
      10     C     3.15472  3.15472  0.00000 -0.30944
      11     H     0.44650  0.44650  0.00000  0.10700
      12     H     0.45095  0.45095  0.00000  0.09809
      13     H     0.44668  0.44668  0.00000  0.10664
      14     H     0.45400  0.45400  0.00000  0.09200
      15     H     0.45697  0.45697  0.00000  0.08605

   Total alpha = 21.00000, Total beta = 21.00000, Total charge = -0.00000
