  ==> Input File <==

--------------------------------------------------------------------------
set {
	reference rhf
	basis 6-31G*
}

set_num_threads( 4 )
memory 2 gb

molecule MOL {
0 1

H	 -2.698709	 -0.000305	 0.034435
C	 -1.693833	 0.000034	 0.434417
O	 -0.828952	 -0.000968	 -0.659236
H	 -1.574200	 0.882896	 1.055746
H	 -1.574147	 -0.881698	 1.057355
C	 0.559449	 -0.000018	 -0.420814
C	 1.329218	 0.826791	 -1.448802
C	 0.906693	 0.389157	 1.014777
H	 0.833666	 -1.039206	 -0.558384
H	 1.021042	 0.559141	 -2.453760
H	 2.393742	 0.635603	 -1.356766
H	 1.176851	 1.893219	 -1.315837
H	 0.305582	 -0.180835	 1.714942
H	 1.952817	 0.178193	 1.213734
H	 0.745364	 1.445437	 1.204743

	symmetry c1
}
set optking {
	frozen_dihedral = ("
		9 6 3 2
	")
}

ee = optimize('scf')
oeprop('DIPOLE', 'QUADRUPOLE', 'MULLIKEN_CHARGES')
f=open( 'psi4out.xyz', 'w' )
f.write( "15  " )
f.write( str(ee) + "\n" )
f.write( MOL.save_string_xyz() )
f.close()
--------------------------------------------------------------------------

    Molecular point group: c1
  Charge       = 0
  Multiplicity = 1
  Basis Set: 6-31G*
  Basis Set:
  @DF-RHF Final Energy:  -232.12977102964092
    Total Energy =                       -232.1297710296408923
    Molecular point group: c1
  Basis Set: 6-31G*
  Basis Set:
  Basis Set: 6-31G*
  Basis Set:
  @DF-RHF Final Energy:  -232.13193404669289
    Total Energy =                       -232.1319340466929475
  Basis Set: 6-31G*
  Basis Set:
  Basis Set: 6-31G*
  Basis Set:
  @DF-RHF Final Energy:  -232.13495594601829
    Total Energy =                       -232.1349559460182377
  Basis Set: 6-31G*
  Basis Set:
  Basis Set: 6-31G*
  Basis Set:
  @DF-RHF Final Energy:  -232.13512922465279
    Total Energy =                       -232.1351292246529283
  Basis Set: 6-31G*
  Basis Set:
  Basis Set: 6-31G*
  Basis Set:
  @DF-RHF Final Energy:  -232.13519153618611
    Total Energy =                       -232.1351915361861415
  Basis Set: 6-31G*
  Basis Set:
  Basis Set: 6-31G*
  Basis Set:
  @DF-RHF Final Energy:  -232.13522669497198
    Total Energy =                       -232.1352266949719478
  Basis Set: 6-31G*
  Basis Set:
  Charge       = 0
  Multiplicity = 1
  Basis Set: 6-31G*
  Basis Set:

    Orbital Energies (a.u.)
    -----------------------

    Doubly Occupied:

       1A    -20.546659     2A    -11.274746     3A    -11.262448
       4A    -11.215480     5A    -11.204497     6A     -1.368444
       7A     -1.053241     8A     -0.949826     9A     -0.913566
      10A     -0.784183    11A     -0.676088    12A     -0.641779
      13A     -0.629784    14A     -0.590734    15A     -0.551885
      16A     -0.542344    17A     -0.526891    18A     -0.504521
      19A     -0.493773    20A     -0.448586    21A     -0.400830

  @DF-RHF Final Energy:  -232.13522717560150

   => Energetics <=

    Nuclear Repulsion Energy =            197.8571975081208336
    One-Electron Energy =                -706.8242339023131535
    Two-Electron Energy =                 276.8318092185907062
    DFT Exchange-Correlation Energy =       0.0000000000000000
    Empirical Dispersion Energy =           0.0000000000000000
    PCM Polarization Energy =               0.0000000000000000
    EFP Energy =                            0.0000000000000000
    Total Energy =                       -232.1352271756015853
    Molecular point group: c1
  Basis Set: 6-31G*
  Basis Set:

  -Total Gradient:
     Atom            X                  Y                   Z
    ------   -----------------  -----------------  -----------------
       1        0.000003277477    -0.000001336169    -0.000015479048
       2        0.000212046811     0.003927296923     0.000190311712
       3       -0.000036352246    -0.005663298545    -0.001287253803
       4       -0.000000758981    -0.000000579164    -0.000002897120
       5        0.000007396013    -0.000004146114    -0.000007609398
       6       -0.001112258058     0.000808921464     0.005452572802
       7       -0.000037196270    -0.000026717098    -0.000034622452
       8        0.000005074672     0.000001300784     0.000046368448
       9        0.000964840140     0.000976525712    -0.004348227185
      10        0.000003748139     0.000020818186    -0.000030179094
      11       -0.000006354184    -0.000014240088     0.000002714942
      12       -0.000004824397    -0.000022135907     0.000017558940
      13        0.000006279592     0.000002701248     0.000026903059
      14       -0.000008811704    -0.000005782318    -0.000011736777
      15        0.000003892998     0.000000671087     0.000001574973

  **** Optimization is complete! (in 7 steps) ****
    Final optimized geometry and variables:
    Molecular point group: c1

    Geometry (in Angstrom), charge = 0, multiplicity = 1:

    H           -2.751023754784    -0.157069065553     0.099472140806
    C           -1.778206319431    -0.206741346819     0.570076112398
    O           -0.841480819514    -0.203897682936    -0.460174720058
    H           -1.673234167222     0.647706280756     1.230904113725
    H           -1.734402866843    -1.115392987281     1.167093970160
    C            0.538467179448    -0.293859153738    -0.172642010406
    C            1.241199047020     0.553808722660    -1.226197064721
    C            0.943211335010     0.129813050995     1.236009051734
    H            0.839867384566    -1.327555542802    -0.335590008898
    H            0.925569831627     0.250259137795    -2.217557216900
    H            2.319407630050     0.443590846457    -1.158907597007
    H            0.990574237051     1.602064947752    -1.098020168960
    H            0.483955843203    -0.482835592630     2.003234896477
    H            2.018509171649     0.028392551344     1.338655506166
    H            0.687649302507     1.167640673016     1.425011698421

  Mulliken Charges: (a.u.)
   Center  Symbol    Alpha    Beta     Spin     Total
       1     H     0.41236  0.41236  0.00000  0.17528
       2     C     3.07694  3.07694  0.00000 -0.15389
       3     O     4.31805  4.31805  0.00000 -0.63610
       4     H     0.42859  0.42859  0.00000  0.14282
       5     H     0.43161  0.43161  0.00000  0.13679
       6     C     2.90052  2.90052  0.00000  0.19895
       7     C     3.23904  3.23904  0.00000 -0.47808
       8     C     3.26374  3.26374  0.00000 -0.52748
       9     H     0.42764  0.42764  0.00000  0.14472
      10     H     0.41093  0.41093  0.00000  0.17815
      11     H     0.42561  0.42561  0.00000  0.14879
      12     H     0.41967  0.41967  0.00000  0.16065
      13     H     0.41506  0.41506  0.00000  0.16989
      14     H     0.41433  0.41433  0.00000  0.17135
      15     H     0.41592  0.41592  0.00000  0.16816

   Total alpha = 21.00000, Total beta = 21.00000, Total charge =  0.00000
