  ==> Input File <==

--------------------------------------------------------------------------
set {
	reference rhf
	basis 6-31G*
}

set_num_threads( 1 )
memory 2 gb

molecule MOL {
0 1

O	 3.225979	 0.970355	 -0.599647
C	 2.701189	 0.057885	 -0.047330
C	 1.245376	 -0.013843	 0.345420
O	 3.347903	 -1.046386	 0.304773
C	 0.455112	 1.231400	 -0.050772
H	 0.838542	 -0.913825	 -0.103701
H	 1.208210	 -0.175333	 1.419774
C	 -0.998893	 1.219485	 0.433193
H	 0.482531	 1.345121	 -1.130325
H	 0.957290	 2.103070	 0.354729
C	 -1.213258	 0.600703	 1.817486
H	 -1.590334	 0.664012	 -0.290943
H	 -1.391384	 2.235321	 0.427052
C	 -2.690118	 0.512353	 2.207459
H	 -0.776557	 -0.396696	 1.834955
H	 -0.684880	 1.178795	 2.572204
C	 -2.916085	 -0.099625	 3.591132
H	 -3.224043	 -0.076446	 1.463500
H	 -3.130058	 1.508036	 2.179762
C	 -4.393707	 -0.187772	 3.971348
H	 -2.476193	 -1.094236	 3.620871
H	 -2.386723	 0.490067	 4.336666
H	 -4.521343	 -0.625378	 4.956649
H	 -4.944746	 -0.800555	 3.263501
H	 -4.854633	 0.795923	 3.984180
C	 4.728119	 -1.109107	 -0.004993
H	 4.882018	 -1.033965	 -1.071845
H	 5.068212	 -2.067527	 0.355250
H	 5.265056	 -0.311663	 0.488280

	symmetry c1
}
set optking {
	frozen_dihedral = ("
		21 17 14 11,
		17 14 11 15,
		15 11 8 5,
		6 3 5 9,
		2 4 26 27,
		1 2 4 26,
		6 3 2 1
	")
}

ee = energy('scf')
oeprop('DIPOLE', 'QUADRUPOLE', 'MULLIKEN_CHARGES')
f=open( 'psi4out.xyz', 'w' )
f.write( "29  " )
f.write( str(ee) + "\n" )
f.write( MOL.save_string_xyz() )
f.close()
--------------------------------------------------------------------------

    Molecular point group: c1

    Geometry (in Angstrom), charge = 0, multiplicity = 1:

       Center              X                  Y                   Z               Mass
    ------------   -----------------  -----------------  -----------------  -----------------
           O          2.866819047204     0.792220919936    -1.683077872104    15.994914619560
           C          2.342029047204    -0.120249080064    -1.130760872104    12.000000000000
           C          0.886216047204    -0.191977080064    -0.738010872104    12.000000000000
           O          2.988743047204    -1.224520080064    -0.778657872104    15.994914619560
           C          0.095952047204     1.053265919936    -1.134202872104    12.000000000000
           H          0.479382047204    -1.091959080064    -1.187131872104     1.007825032070
           H          0.849050047204    -0.353467080064     0.336343127896     1.007825032070
           C         -1.358052952796     1.041350919936    -0.650237872104    12.000000000000
           H          0.123371047204     1.166986919936    -2.213755872104     1.007825032070
           H          0.598130047204     1.924935919936    -0.728701872104     1.007825032070
           C         -1.572417952796     0.422568919936     0.734055127896    12.000000000000
           H         -1.949493952796     0.485877919936    -1.374373872104     1.007825032070
           H         -1.750543952796     2.057186919936    -0.656378872104     1.007825032070
           C         -3.049277952796     0.334218919936     1.124028127896    12.000000000000
           H         -1.135716952796    -0.574830080064     0.751524127896     1.007825032070
           H         -1.044039952796     1.000660919936     1.488773127896     1.007825032070
           C         -3.275244952796    -0.277759080064     2.507701127896    12.000000000000
           H         -3.583202952796    -0.254580080064     0.380069127896     1.007825032070
           H         -3.489217952796     1.329901919936     1.096331127896     1.007825032070
           C         -4.752866952796    -0.365906080064     2.887917127896    12.000000000000
           H         -2.835352952796    -1.272370080064     2.537440127896     1.007825032070
           H         -2.745882952796     0.311932919936     3.253235127896     1.007825032070
           H         -4.880502952796    -0.803512080064     3.873218127896     1.007825032070
           H         -5.303905952796    -0.978689080064     2.180070127896     1.007825032070
           H         -5.213792952796     0.617788919936     2.900749127896     1.007825032070
           C          4.368959047204    -1.287241080064    -1.088423872104    12.000000000000
           H          4.522858047204    -1.212099080064    -2.155275872104     1.007825032070
           H          4.709052047204    -2.245661080064    -0.728180872104     1.007825032070
           H          4.905896047204    -0.489797080064    -0.595150872104     1.007825032070

  Charge       = 0
  Multiplicity = 1
  Basis Set: 6-31G*
  Basis Set:

    Orbital Energies (a.u.)
    -----------------------

    Doubly Occupied:

       1A    -20.603192     2A    -20.544680     3A    -11.371506
       4A    -11.280540     5A    -11.234216     6A    -11.218666
       7A    -11.217303     8A    -11.216398     9A    -11.216209
      10A    -11.214699    11A    -11.209337    12A     -1.468765
      13A     -1.362128    14A     -1.099745    15A     -1.066407
      16A     -1.018616    17A     -0.976784    18A     -0.929147
      19A     -0.864676    20A     -0.798860    21A     -0.791809
      22A     -0.760183    23A     -0.701315    24A     -0.682378
      25A     -0.671275    26A     -0.652744    27A     -0.630412
      28A     -0.605357    29A     -0.593456    30A     -0.579272
      31A     -0.568036    32A     -0.551633    33A     -0.531223
      34A     -0.529567    35A     -0.518902    36A     -0.511810
      37A     -0.496945    38A     -0.479310    39A     -0.468192
      40A     -0.461273    41A     -0.457869    42A     -0.453427
      43A     -0.440625    44A     -0.436255

  @DF-RHF Final Energy:  -501.03925231755818

   => Energetics <=

    Nuclear Repulsion Energy =            615.0694616580293541
    One-Electron Energy =               -1901.2471757602140769
    Two-Electron Energy =                 785.1384617846269975
    DFT Exchange-Correlation Energy =       0.0000000000000000
    Empirical Dispersion Energy =           0.0000000000000000
    PCM Polarization Energy =               0.0000000000000000
    EFP Energy =                            0.0000000000000000
    Total Energy =                       -501.0392523175578390

  Mulliken Charges: (a.u.)
   Center  Symbol    Alpha    Beta     Spin     Total
       1     O     4.28606  4.28606  0.00000 -0.57212
       2     C     2.60326  2.60326  0.00000  0.79349
       3     C     3.21531  3.21531  0.00000 -0.43062
       4     O     4.30754  4.30754  0.00000 -0.61508
       5     C     3.15296  3.15296  0.00000 -0.30593
       6     H     0.40105  0.40105  0.00000  0.19789
       7     H     0.39684  0.39684  0.00000  0.20633
       8     C     3.15479  3.15479  0.00000 -0.30957
       9     H     0.41054  0.41054  0.00000  0.17893
      10     H     0.41088  0.41088  0.00000  0.17824
      11     C     3.16067  3.16067  0.00000 -0.32134
      12     H     0.42311  0.42311  0.00000  0.15378
      13     H     0.41767  0.41767  0.00000  0.16465
      14     C     3.14924  3.14924  0.00000 -0.29848
      15     H     0.42123  0.42123  0.00000  0.15754
      16     H     0.42269  0.42269  0.00000  0.15462
      17     C     3.15155  3.15155  0.00000 -0.30310
      18     H     0.42374  0.42374  0.00000  0.15252
      19     H     0.42349  0.42349  0.00000  0.15303
      20     C     3.23934  3.23934  0.00000 -0.47867
      21     H     0.42336  0.42336  0.00000  0.15327
      22     H     0.42307  0.42307  0.00000  0.15386
      23     H     0.41920  0.41920  0.00000  0.16159
      24     H     0.42174  0.42174  0.00000  0.15651
      25     H     0.42152  0.42152  0.00000  0.15696
      26     C     3.09234  3.09234  0.00000 -0.18469
      27     H     0.40910  0.40910  0.00000  0.18180
      28     H     0.40857  0.40857  0.00000  0.18287
      29     H     0.40914  0.40914  0.00000  0.18172

   Total alpha = 44.00000, Total beta = 44.00000, Total charge =  0.00000
