  ==> Input File <==

--------------------------------------------------------------------------
set {
	reference rhf
	basis 6-31G*
}

set_num_threads( 4 )
memory 2 gb

molecule MOL {
0 1

O	 -0.291628	 1.323815	 -0.000732
C	 -0.449655	 0.146360	 0.000961
C	 -1.783294	 -0.549321	 -0.000296
O	 0.550821	 -0.724572	 0.000672
H	 -1.863538	 -1.185371	 -0.874187
H	 -2.574672	 0.185258	 -0.002793
H	 -1.866414	 -1.182381	 0.875436
C	 1.569127	 -0.532554	 0.966313
H	 2.045331	 0.427638	 0.829869
H	 2.279659	 -1.328633	 0.807718
H	 1.160369	 -0.588236	 1.964892

	symmetry c1
}
set optking {
	frozen_dihedral = ("
		8 4 2 1
	")
}

ee = optimize('scf')
oeprop('DIPOLE', 'QUADRUPOLE', 'MULLIKEN_CHARGES')
f=open( 'psi4out.xyz', 'w' )
f.write( "11  " )
f.write( str(ee) + "\n" )
f.write( MOL.save_string_xyz() )
f.close()
--------------------------------------------------------------------------

    Molecular point group: c1
  Charge       = 0
  Multiplicity = 1
  Basis Set: 6-31G*
  Basis Set:
  @DF-RHF Final Energy:  -266.82428615299574
    Total Energy =                       -266.8242861529959100
    Molecular point group: c1
  Basis Set: 6-31G*
  Basis Set:
  Basis Set: 6-31G*
  Basis Set:
  @DF-RHF Final Energy:  -266.82177769502778
    Total Energy =                       -266.8217776950278903
  Basis Set: 6-31G*
  Basis Set:
  Basis Set: 6-31G*
  Basis Set:
  @DF-RHF Final Energy:  -266.82504853363838
    Total Energy =                       -266.8250485336381530
  Basis Set: 6-31G*
  Basis Set:
  Basis Set: 6-31G*
  Basis Set:
  @DF-RHF Final Energy:  -266.82511666167682
    Total Energy =                       -266.8251166616765886
  Basis Set: 6-31G*
  Basis Set:
  @DF-RHF Final Energy:  -266.82512191985904
    Total Energy =                       -266.8251219198592707
  Basis Set: 6-31G*
  Basis Set:
  @DF-RHF Final Energy:  -266.82512322133596
    Total Energy =                       -266.8251232213356730
  Basis Set: 6-31G*
  Basis Set:
  Basis Set: 6-31G*
  Basis Set:
  @DF-RHF Final Energy:  -266.82512218838008
    Total Energy =                       -266.8251221883801918
  Basis Set: 6-31G*
  Basis Set:
  Basis Set: 6-31G*
  Basis Set:
  @DF-RHF Final Energy:  -266.82505156792917
    Total Energy =                       -266.8250515679289947
  Basis Set: 6-31G*
  Basis Set:
  Charge       = 0
  Multiplicity = 1
  Basis Set: 6-31G*
  Basis Set:

    Orbital Energies (a.u.)
    -----------------------

    Doubly Occupied:

       1A    -20.594742     2A    -20.552878     3A    -11.378291
       4A    -11.287016     5A    -11.235809     6A     -1.464095
       7A     -1.366576     8A     -1.032006     9A     -0.956291
      10A     -0.777360    11A     -0.695082    12A     -0.679989
      13A     -0.672155    14A     -0.602953    15A     -0.593278
      16A     -0.568119    17A     -0.534981    18A     -0.508382
      19A     -0.455997    20A     -0.440989

  @DF-RHF Final Energy:  -266.82512347128807

   => Energetics <=

    Nuclear Repulsion Energy =            182.5356377440806739
    One-Electron Energy =                -725.9275440776982578
    Two-Electron Energy =                 276.5667828623294326
    DFT Exchange-Correlation Energy =       0.0000000000000000
    Empirical Dispersion Energy =           0.0000000000000000
    PCM Polarization Energy =               0.0000000000000000
    EFP Energy =                            0.0000000000000000
    Total Energy =                       -266.8251234712881796
    Molecular point group: c1
  Basis Set: 6-31G*
  Basis Set:

  -Total Gradient:
     Atom            X                  Y                   Z
    ------   -----------------  -----------------  -----------------
       1       -0.000321726114    -0.000233101852    -0.009898938329
       2       -0.001345155552    -0.001774566170     0.017210219294
       3        0.000028428781    -0.000001735636    -0.000076965504
       4        0.005492938870     0.006281638906    -0.012505567680
       5       -0.000001630020     0.000056786566     0.000002264761
       6       -0.000046525172    -0.000018203480     0.000013520695
       7        0.000009249472     0.000016068894     0.000027563417
       8       -0.003846761523    -0.004278184312     0.005243054905
       9        0.000017730958    -0.000017499272    -0.000022597355
      10        0.000004512503     0.000000761846    -0.000010466139
      11        0.000008937798    -0.000031965491     0.000017911937

  **** Optimization is complete! (in 9 steps) ****
    Final optimized geometry and variables:
    Molecular point group: c1

    Geometry (in Angstrom), charge = 0, multiplicity = 1:

    O           -0.229706640622     1.390081802307    -0.215850501927
    C           -0.398613750618     0.218466358617    -0.172220026530
    C           -1.739142354826    -0.459959661634    -0.227401592773
    O            0.609423187922    -0.666773766852    -0.179184212426
    H           -1.764952519052    -1.138766562653    -1.072072410627
    H           -2.523691201423     0.276665928313    -0.316945810850
    H           -1.885173237655    -1.052124039986     0.669629177366
    C            1.663197337764    -0.456068977852     0.742148567775
    H            2.095277861352     0.526015779655     0.617157847630
    H            2.402545121605    -1.214299765749     0.536581444568
    H            1.300106763127    -0.571160179447     1.756727643307

  Mulliken Charges: (a.u.)
   Center  Symbol    Alpha    Beta     Spin     Total
       1     O     4.26564  4.26564  0.00000 -0.53127
       2     C     2.62304  2.62304  0.00000  0.75393
       3     C     3.28375  3.28375  0.00000 -0.56751
       4     O     4.30682  4.30682  0.00000 -0.61364
       5     H     0.39754  0.39754  0.00000  0.20492
       6     H     0.39732  0.39732  0.00000  0.20535
       7     H     0.40423  0.40423  0.00000  0.19155
       8     C     3.09482  3.09482  0.00000 -0.18964
       9     H     0.40233  0.40233  0.00000  0.19533
      10     H     0.40566  0.40566  0.00000  0.18868
      11     H     0.41885  0.41885  0.00000  0.16229

   Total alpha = 20.00000, Total beta = 20.00000, Total charge =  0.00000
