                              Psi4 1.0.54 Driver

  ==> Input File <==

--------------------------------------------------------------------------
set {
	reference rhf
	basis cc-pvtz
}

set_num_threads( 4 )
memory 2 gb

molecule MOL {
0 1

H	 -4.024094	 -0.454727	 0.000004
C	 -2.962215	 -0.297920	 0.000004
C	 -2.454736	 0.988978	 0.000025
C	 -2.105837	 -1.382632	 -0.000016
H	 -3.120052	 1.830438	 0.000041
C	 -1.090106	 1.189676	 0.000026
H	 -2.500390	 -2.380229	 -0.000033
C	 -0.739175	 -1.183302	 -0.000016
H	 -0.680214	 2.179144	 0.000042
C	 -0.227341	 0.104540	 0.000006
H	 -0.073209	 -2.021168	 -0.000032
C	 1.238974	 0.374429	 0.000004
O	 1.938845	 -0.565659	 -0.606957
O	 1.733076	 1.332802	 0.492514
C	 3.341704	 -0.395150	 -0.656709
H	 3.595332	 0.512170	 -1.183793
H	 3.725255	 -1.253200	 -1.184182
H	 3.754566	 -0.353274	 0.339880

	symmetry c1
}
set optking {
	frozen_dihedral = ("
		13 12 10 6
	")
}

ee,wfn = optimize('scf', return_wfn=True)
oeprop( wfn, 'DIPOLE', 'QUADRUPOLE', 'MULLIKEN_CHARGES')
f=open( 'psi4out.xyz', 'w' )
f.write( "18  " )
f.write( str(ee) + "\n" )
f.write( MOL.save_string_xyz() )
f.close()
--------------------------------------------------------------------------

    Molecular point group: c1
  Charge       = 0
  Multiplicity = 1
  Basis Set: CC-PVTZ
  Basis Set:
  @DF-RHF Final Energy:  -457.50785091009266
    Total Energy =                       -457.5078509100927704
    Molecular point group: c1
  Basis Set: CC-PVTZ
  Basis Set:
  Basis Set: CC-PVTZ
  Basis Set:
  @DF-RHF Final Energy:  -457.50586834136755
    Total Energy =                       -457.5058683413678864
  Basis Set: CC-PVTZ
  Basis Set:
  Basis Set: CC-PVTZ
  Basis Set:
  @DF-RHF Final Energy:  -457.50794405040273
    Total Energy =                       -457.5079440504030117
  Basis Set: CC-PVTZ
  Basis Set:
  Basis Set: CC-PVTZ
  Basis Set:
  @DF-RHF Final Energy:  -457.50807373050543
    Total Energy =                       -457.5080737305053162
  Basis Set: CC-PVTZ
  Basis Set:
  Basis Set: CC-PVTZ
  Basis Set:
  @DF-RHF Final Energy:  -457.50808108123408
    Total Energy =                       -457.5080810812338541
  Basis Set: CC-PVTZ
  Basis Set:
  Charge       = 0
  Multiplicity = 1
  Basis Set: CC-PVTZ
  Basis Set:

    Orbital Energies (a.u.)
    -----------------------

    Doubly Occupied:

       1A    -20.601762     2A    -20.535653     3A    -11.372056
       4A    -11.281469     5A    -11.246103     6A    -11.242854
       7A    -11.242455     8A    -11.240812     9A    -11.236713
      10A    -11.236010    11A     -1.477483    12A     -1.369235
      13A     -1.171284    14A     -1.052269    15A     -1.029464
      16A     -0.980847    17A     -0.863239    18A     -0.839698
      19A     -0.781795    20A     -0.744180    21A     -0.687979
      22A     -0.682213    23A     -0.678092    24A     -0.633701
      25A     -0.631656    26A     -0.601024    27A     -0.589932
      28A     -0.561240    29A     -0.533960    30A     -0.519990
      31A     -0.511021    32A     -0.503717    33A     -0.463682
      34A     -0.449563    35A     -0.349662    36A     -0.346788

  @DF-RHF Final Energy:  -457.50808146941466

   => Energetics <=

    Nuclear Repulsion Energy =            493.8766920237295039
    One-Electron Energy =               -1602.1903429992180463
    Two-Electron Energy =                 650.8055695060738799
    DFT Exchange-Correlation Energy =       0.0000000000000000
    Empirical Dispersion Energy =           0.0000000000000000
    PCM Polarization Energy =               0.0000000000000000
    EFP Energy =                            0.0000000000000000
    Total Energy =                       -457.5080814694147193
    Molecular point group: c1
  Basis Set: CC-PVTZ
  Basis Set:

  -Total Gradient:
     Atom            X                  Y                   Z
    ------   -----------------  -----------------  -----------------
       1       -0.000001743331     0.000005200552    -0.000002948144
       2        0.000009958823    -0.000051803334     0.000011540992
       3        0.000045259683     0.000034250882    -0.000001206366
       4       -0.000047761520     0.000014294418    -0.000007823286
       5       -0.000006539964    -0.000001886807    -0.000000324699
       6       -0.000106117536    -0.000016729982    -0.003565755551
       7        0.000001965640    -0.000000423423     0.000000596103
       8        0.000016458729     0.000033857825     0.000009150326
       9        0.000004735719    -0.000002201052    -0.000000091659
      10       -0.000091760880     0.000572187089     0.004068461854
      11       -0.000004793585    -0.000000412664    -0.000001636317
      12        0.000492850879    -0.002374382978     0.002549187398
      13       -0.000389971229     0.001826357812    -0.003050538860
      14        0.000048931506    -0.000037132655    -0.000013039611
      15        0.000038205640    -0.000013148302     0.000005420903
      16       -0.000010725536     0.000004780447    -0.000002662076
      17        0.000004984964     0.000006497810     0.000000114707
      18       -0.000003937998     0.000000694368     0.000001554289

  **** Optimization is complete! (in 6 steps) ****
    Final optimized geometry and variables:
    Molecular point group: c1

    Geometry (in Angstrom), charge = 0, multiplicity = 1:

    H           -4.014352633522    -0.495768126064     0.073405722528
    C           -2.953473377162    -0.332841139536     0.082037632938
    C           -2.453483336324     0.956542473797     0.090169228262
    C           -2.090232101664    -1.412481687465     0.080660625645
    H           -3.123640296153     1.794239196849     0.083005521807
    C           -1.089557934878     1.165921571141     0.109414915622
    H           -2.478624941958    -2.412523585117     0.072506174754
    C           -0.724970235084    -1.204502564069     0.079250855113
    H           -0.687687590569     2.159063816685     0.129164725937
    C           -0.222400544454     0.085753403463     0.110505464273
    H           -0.052699264773    -2.038199327968     0.057808452214
    C            1.243896977828     0.357915838008     0.094770504945
    O            1.933168105046    -0.589807547107    -0.511976177774
    O            1.738655231967     1.337164173071     0.542244322019
    C            3.336867826860    -0.428322807405    -0.572319914635
    H            3.591575413452     0.468708883582    -1.116280456439
    H            3.712946978446    -1.296877626138    -1.087783270377
    H            3.756703705177    -0.371212782637     0.420864236682

  Mulliken Charges: (a.u.)
   Center  Symbol    Alpha    Beta     Spin     Total
       1     H     0.42058  0.42058  0.00000  0.15884
       2     C     3.07324  3.07324  0.00000 -0.14647
       3     C     3.07227  3.07227  0.00000 -0.14453
       4     C     3.07225  3.07225  0.00000 -0.14449
       5     H     0.42074  0.42074  0.00000  0.15852
       6     C     3.08393  3.08393  0.00000 -0.16785
       7     H     0.42176  0.42176  0.00000  0.15649
       8     C     3.08455  3.08455  0.00000 -0.16911
       9     H     0.40976  0.40976  0.00000  0.18048
      10     C     2.97554  2.97554  0.00000  0.04892
      11     H     0.41526  0.41526  0.00000  0.16947
      12     C     2.81011  2.81011  0.00000  0.37978
      13     O     4.14604  4.14604  0.00000 -0.29208
      14     O     4.20777  4.20777  0.00000 -0.41553
      15     C     3.03664  3.03664  0.00000 -0.07327
      16     H     0.45177  0.45177  0.00000  0.09646
      17     H     0.44436  0.44436  0.00000  0.11128
      18     H     0.45345  0.45345  0.00000  0.09310

   Total alpha = 36.00000, Total beta = 36.00000, Total charge = -0.00000

*** Psi4 exiting successfully. Buy a developer a beer!
