                              Psi4 1.0.54 Driver

  ==> Input File <==

--------------------------------------------------------------------------
set {
	reference rhf
	basis cc-pvtz
}

set_num_threads( 4 )
memory 2 gb

molecule MOL {
0 1

H	 -4.015897	 0.630923	 -0.663016
O	 -3.515113	 -0.019339	 -0.206321
C	 -2.302264	 0.528872	 0.237390
C	 -1.175688	 -0.398187	 -0.171891
H	 -2.148018	 1.514076	 -0.197759
H	 -2.310727	 0.646384	 1.319032
C	 0.196029	 0.106276	 0.266738
H	 -1.201873	 -0.515469	 -1.250677
H	 -1.365975	 -1.378728	 0.252664
C	 1.330220	 -0.826136	 -0.155230
H	 0.359542	 1.097229	 -0.145561
H	 0.212134	 0.218135	 1.348778
C	 2.719700	 -0.407669	 0.328325
H	 1.339388	 -0.911200	 -1.239363
H	 1.119001	 -1.821953	 0.224128
C	 3.241564	 0.893452	 -0.276737
H	 3.418299	 -1.204729	 0.093035
H	 2.711776	 -0.323368	 1.411960
H	 3.254204	 0.841071	 -1.360784
H	 2.634460	 1.745075	 0.005842
H	 4.254264	 1.092401	 0.054971

	symmetry c1
}
set optking {
	frozen_dihedral = ("
		1 2 3 5
	")
}

ee,wfn = optimize('scf', return_wfn=True)
oeprop( wfn, 'DIPOLE', 'QUADRUPOLE', 'MULLIKEN_CHARGES')
f=open( 'psi4out.xyz', 'w' )
f.write( "21  " )
f.write( str(ee) + "\n" )
f.write( MOL.save_string_xyz() )
f.close()
--------------------------------------------------------------------------

    Molecular point group: c1
  Charge       = 0
  Multiplicity = 1
  Basis Set: CC-PVTZ
  Basis Set:
  @DF-RHF Final Energy:  -310.33118571459454
    Total Energy =                       -310.3311857145944259
    Molecular point group: c1
  Basis Set: CC-PVTZ
  Basis Set:
  Basis Set: CC-PVTZ
  Basis Set:
  @DF-RHF Final Energy:  -310.33138146616614
    Total Energy =                       -310.3313814661663628
  Basis Set: CC-PVTZ
  Basis Set:
  Basis Set: CC-PVTZ
  Basis Set:
  @DF-RHF Final Energy:  -310.33147821067604
    Total Energy =                       -310.3314782106762664
  Basis Set: CC-PVTZ
  Basis Set:
  Charge       = 0
  Multiplicity = 1
  Basis Set: CC-PVTZ
  Basis Set:

    Orbital Energies (a.u.)
    -----------------------

    Doubly Occupied:

       1A    -20.544194     2A    -11.265374     3A    -11.213449
       4A    -11.213345     5A    -11.211700     6A    -11.208861
       7A    -11.206532     8A     -1.361726     9A     -1.087625
      10A     -1.034512    11A     -0.955709    12A     -0.877315
      13A     -0.809627    14A     -0.779326    15A     -0.702442
      16A     -0.652854    17A     -0.624317    18A     -0.603553
      19A     -0.592281    20A     -0.572436    21A     -0.538902
      22A     -0.522271    23A     -0.511189    24A     -0.488302
      25A     -0.478714    26A     -0.462790    27A     -0.457912
      28A     -0.454490    29A     -0.425960

  @DF-RHF Final Energy:  -310.33147874338323

   => Energetics <=

    Nuclear Repulsion Energy =            312.6492139816439817
    One-Electron Energy =               -1040.2459634992469546
    Two-Electron Energy =                 417.2652707742196299
    DFT Exchange-Correlation Energy =       0.0000000000000000
    Empirical Dispersion Energy =           0.0000000000000000
    PCM Polarization Energy =               0.0000000000000000
    EFP Energy =                            0.0000000000000000
    Total Energy =                       -310.3314787433833999
    Molecular point group: c1
  Basis Set: CC-PVTZ
  Basis Set:

  -Total Gradient:
     Atom            X                  Y                   Z
    ------   -----------------  -----------------  -----------------
       1        0.000325279480    -0.000287382214    -0.000820838664
       2       -0.000663068638     0.000433032620     0.001104832327
       3        0.000574228537    -0.000509709495    -0.000964963254
       4        0.000033603656     0.000032234845     0.000064581010
       5       -0.000341294858     0.000318132547     0.000648115521
       6        0.000053606755     0.000008256383    -0.000015349995
       7       -0.000033734135    -0.000020455226    -0.000021012320
       8       -0.000005245487     0.000011677963     0.000016118100
       9       -0.000021124660     0.000010190643     0.000003903305
      10        0.000030328129     0.000037162911    -0.000019554960
      11       -0.000018370795    -0.000031844531     0.000011020533
      12        0.000000095676     0.000001371517    -0.000002487371
      13        0.000009674542    -0.000008163696     0.000006378784
      14        0.000002630955     0.000004867686    -0.000004984400
      15        0.000005804195     0.000009473818    -0.000007940787
      16        0.000013239532    -0.000002247476    -0.000003417962
      17        0.000016314648     0.000000591145     0.000016572433
      18       -0.000006024402     0.000008810897    -0.000004155859
      19       -0.000003136028     0.000004101913    -0.000002107918
      20        0.000030506418    -0.000012442682     0.000001861793
      21       -0.000003313520    -0.000007659568    -0.000006570316

  **** Optimization is complete! (in 4 steps) ****
    Final optimized geometry and variables:
    Molecular point group: c1

    Geometry (in Angstrom), charge = 0, multiplicity = 1:

    H           -4.074935846371     0.647315942061    -0.510639159734
    O           -3.542441018468    -0.002429490624    -0.094607040387
    C           -2.296117712714     0.537321421782     0.270047419993
    C           -1.177898157881    -0.385267483233    -0.176557362566
    H           -2.164054690469     1.524275696166    -0.164664080633
    H           -2.265631428681     0.659771465735     1.349219172471
    C            0.202030394682     0.100784019771     0.256842988722
    H           -1.217066186923    -0.481800105734    -1.257406394184
    H           -1.369187527956    -1.373513596821     0.229777131214
    C            1.326328332590    -0.828163808908    -0.198013756173
    H            0.367232892100     1.100081276915    -0.134833569791
    H            0.230180809103     0.188636164721     1.340687603684
    C            2.722714939534    -0.432450911073     0.284850788636
    H            1.326487712601    -0.885749253919    -1.284027982686
    H            1.110587577892    -1.831675078827     0.157627005936
    C            3.251229644076     0.877994459213    -0.293568848339
    H            3.413004634210    -1.229395957052     0.025916517626
    H            2.723238753818    -0.373378142433     1.370109951757
    H            3.253745420523     0.851578231046    -1.378642129891
    H            2.654737036416     1.728048686549     0.015027561783
    H            4.268642052742     1.059658092260     0.033495510398

  Mulliken Charges: (a.u.)
   Center  Symbol    Alpha    Beta     Spin     Total
       1     H     0.39137  0.39137  0.00000  0.21725
       2     O     4.20348  4.20348  0.00000 -0.40697
       3     C     2.96833  2.96833  0.00000  0.06333
       4     C     3.08000  3.08000  0.00000 -0.16000
       5     H     0.47469  0.47469  0.00000  0.05062
       6     H     0.46729  0.46729  0.00000  0.06541
       7     C     3.10395  3.10395  0.00000 -0.20790
       8     H     0.45529  0.45529  0.00000  0.08942
       9     H     0.45001  0.45001  0.00000  0.09999
      10     C     3.09378  3.09378  0.00000 -0.18757
      11     H     0.45431  0.45431  0.00000  0.09138
      12     H     0.45445  0.45445  0.00000  0.09109
      13     C     3.08996  3.08996  0.00000 -0.17992
      14     H     0.45352  0.45352  0.00000  0.09296
      15     H     0.44851  0.44851  0.00000  0.10298
      16     C     3.15242  3.15242  0.00000 -0.30484
      17     H     0.44840  0.44840  0.00000  0.10321
      18     H     0.45472  0.45472  0.00000  0.09056
      19     H     0.45493  0.45493  0.00000  0.09015
      20     H     0.45425  0.45425  0.00000  0.09150
      21     H     0.44633  0.44633  0.00000  0.10735

   Total alpha = 29.00000, Total beta = 29.00000, Total charge = -0.00000

*** Psi4 exiting successfully. Buy a developer a beer!
