  ==> Input File <==

--------------------------------------------------------------------------
set {
	reference rhf
	basis 6-31G*
}

set_num_threads( 4 )
memory 2 gb

molecule MOL {
0 1

H	 2.513983	 -0.951439	 -0.236847
O	 1.654024	 -0.625927	 -0.460906
C	 1.135793	 0.118896	 0.612333
C	 0.031547	 1.023609	 0.088541
H	 1.915668	 0.729681	 1.063582
H	 0.754543	 -0.542641	 1.387006
C	 -1.134819	 0.293262	 -0.585751
H	 0.474374	 1.714721	 -0.623187
H	 -0.338529	 1.620940	 0.920081
C	 -1.917817	 -0.639439	 0.339494
H	 -0.758119	 -0.268455	 -1.433105
H	 -1.813832	 1.041889	 -0.986690
H	 -2.777680	 -1.057197	 -0.174994
H	 -1.310268	 -1.471279	 0.680599
H	 -2.283753	 -0.111424	 1.216626

	symmetry c1
}
set optking {
	frozen_dihedral = ("
		1 2 3 4
	")
}

ee = optimize('scf')
oeprop('DIPOLE', 'QUADRUPOLE', 'MULLIKEN_CHARGES')
f=open( 'psi4out.xyz', 'w' )
f.write( "15  " )
f.write( str(ee) + "\n" )
f.write( MOL.save_string_xyz() )
f.close()
--------------------------------------------------------------------------

    Molecular point group: c1
  Charge       = 0
  Multiplicity = 1
  Basis Set: 6-31G*
  Basis Set:
  @DF-RHF Final Energy:  -232.14332831363461
    Total Energy =                       -232.1433283136346972
    Molecular point group: c1
  Basis Set: 6-31G*
  Basis Set:
  Basis Set: 6-31G*
  Basis Set:
  @DF-RHF Final Energy:  -232.14332769153387
    Total Energy =                       -232.1433276915337274
  Basis Set: 6-31G*
  Basis Set:
  Basis Set: 6-31G*
  Basis Set:
  @DF-RHF Final Energy:  -232.14333395668092
    Total Energy =                       -232.1433339566808058
  Basis Set: 6-31G*
  Basis Set:
  Basis Set: 6-31G*
  Basis Set:
  @DF-RHF Final Energy:  -232.14335201880232
    Total Energy =                       -232.1433520188020339
  Basis Set: 6-31G*
  Basis Set:
  Charge       = 0
  Multiplicity = 1
  Basis Set: 6-31G*
  Basis Set:

    Orbital Energies (a.u.)
    -----------------------

    Doubly Occupied:

       1A    -20.552899     2A    -11.267514     3A    -11.212168
       4A    -11.207979     5A    -11.203355     6A     -1.359463
       7A     -1.063158     8A     -0.969294     9A     -0.867957
      10A     -0.774347    11A     -0.703097    12A     -0.647669
      13A     -0.607922    14A     -0.569921    15A     -0.564386
      16A     -0.530969    17A     -0.508777    18A     -0.475116
      19A     -0.465672    20A     -0.451187    21A     -0.429367

  @DF-RHF Final Energy:  -232.14335200725426

   => Energetics <=

    Nuclear Repulsion Energy =            191.8975654737776324
    One-Electron Energy =                -695.2173996055526004
    Two-Electron Energy =                 271.1764821245207031
    DFT Exchange-Correlation Energy =       0.0000000000000000
    Empirical Dispersion Energy =           0.0000000000000000
    PCM Polarization Energy =               0.0000000000000000
    EFP Energy =                            0.0000000000000000
    Total Energy =                       -232.1433520072542933
    Molecular point group: c1
  Basis Set: 6-31G*
  Basis Set:

  -Total Gradient:
     Atom            X                  Y                   Z
    ------   -----------------  -----------------  -----------------
       1        0.000680344188     0.001359874370    -0.000632017977
       2       -0.000634947482    -0.001382865645     0.000711757194
       3       -0.000731086294    -0.000677424057     0.000109280586
       4        0.000685807171     0.000676873532    -0.000215110918
       5        0.000012078883     0.000005376130     0.000010758631
       6       -0.000032391408     0.000007726400    -0.000000421679
       7        0.000001263784     0.000016972269     0.000004562911
       8       -0.000003214267     0.000001499415     0.000000443803
       9        0.000010062622    -0.000013339563     0.000001572852
      10        0.000005105506    -0.000009585911    -0.000000225759
      11       -0.000003336097    -0.000004369779     0.000004113310
      12        0.000005889541     0.000012891956    -0.000003079544
      13        0.000003768024    -0.000002930037    -0.000002620656
      14        0.000015960437     0.000008848489     0.000009393592
      15       -0.000015304605     0.000000452433     0.000001593655

  **** Optimization is complete! (in 5 steps) ****
    Final optimized geometry and variables:
    Molecular point group: c1

    Geometry (in Angstrom), charge = 0, multiplicity = 1:

    H            2.500813734799    -0.969658343649    -0.238713147521
    O            1.640539962215    -0.642093830554    -0.456623330154
    C            1.135936801051     0.119988189806     0.612382216132
    C            0.029838458239     1.025660678173     0.093262135459
    H            1.921701733819     0.735575394827     1.045818975585
    H            0.766439436404    -0.532330048135     1.400057055201
    C           -1.133627912428     0.294353839298    -0.585493577545
    H            0.471056949679     1.721104633211    -0.615046843073
    H           -0.343863297778     1.616362366577     0.928088240743
    C           -1.915403360505    -0.642585166707     0.336477225933
    H           -0.753117700039    -0.265158905280    -1.432931931827
    H           -1.813309726756     1.042049483551    -0.987028572532
    H           -2.769830469742    -1.066198014137    -0.182318768592
    H           -1.303531412011    -1.469774883441     0.680818679283
    H           -2.289312237257    -0.116190681578     1.211208557736

  Mulliken Charges: (a.u.)
   Center  Symbol    Alpha    Beta     Spin     Total
       1     H     0.28013  0.28013  0.00000  0.43973
       2     O     4.37069  4.37069  0.00000 -0.74138
       3     C     2.99950  2.99950  0.00000  0.00100
       4     C     3.15965  3.15965  0.00000 -0.31930
       5     H     0.43010  0.43010  0.00000  0.13981
       6     H     0.42874  0.42874  0.00000  0.14252
       7     C     3.15394  3.15394  0.00000 -0.30788
       8     H     0.41605  0.41605  0.00000  0.16790
       9     H     0.42523  0.42523  0.00000  0.14955
      10     C     3.24341  3.24341  0.00000 -0.48682
      11     H     0.40713  0.40713  0.00000  0.18575
      12     H     0.42311  0.42311  0.00000  0.15379
      13     H     0.41926  0.41926  0.00000  0.16147
      14     H     0.41780  0.41780  0.00000  0.16441
      15     H     0.42527  0.42527  0.00000  0.14946

   Total alpha = 21.00000, Total beta = 21.00000, Total charge =  0.00000
