  ==> Input File <==

--------------------------------------------------------------------------
set {
	reference rhf
	basis 6-31G*
}

set_num_threads( 4 )
memory 2 gb

molecule MOL {
0 1

H	 -3.244591	 -0.402407	 1.473992
C	 -3.298160	 -0.341785	 0.379882
C	 -2.671831	 0.890549	 -0.221514
O	 -3.822311	 -1.208455	 -0.241325
C	 -1.231331	 1.113306	 0.259729
H	 -2.723213	 0.808341	 -1.301009
H	 -3.284866	 1.739661	 0.078237
C	 -0.252658	 0.041456	 -0.226725
H	 -0.900055	 2.087947	 -0.086126
H	 -1.216632	 1.157303	 1.347665
C	 1.180775	 0.282413	 0.250794
H	 -0.272569	 0.008506	 -1.314091
H	 -0.582491	 -0.939577	 0.109911
C	 2.148627	 -0.814315	 -0.201312
H	 1.516199	 1.249228	 -0.115937
H	 1.192670	 0.346017	 1.338083
C	 3.580890	 -0.659131	 0.322722
H	 2.166869	 -0.852443	 -1.289387
H	 1.762857	 -1.776509	 0.128956
C	 4.324889	 0.564933	 -0.213704
H	 4.142010	 -1.551473	 0.056605
H	 3.564836	 -0.624694	 1.410140
H	 4.342616	 0.565491	 -1.300421
H	 3.866655	 1.493402	 0.110242
H	 5.353900	 0.572371	 0.132816

	symmetry c1
}
set optking {
	frozen_dihedral = ("
		12 8 11 14
	")
}

ee = optimize('scf')
oeprop('DIPOLE', 'QUADRUPOLE', 'MULLIKEN_CHARGES')
f=open( 'psi4out.xyz', 'w' )
f.write( "25  " )
f.write( str(ee) + "\n" )
f.write( MOL.save_string_xyz() )
f.close()
--------------------------------------------------------------------------

    Molecular point group: c1
  Charge       = 0
  Multiplicity = 1
  Basis Set: 6-31G*
  Basis Set:
  @DF-RHF Final Energy:  -387.12203637395004
    Total Energy =                       -387.1220363739504364
    Molecular point group: c1
  Basis Set: 6-31G*
  Basis Set:
  Basis Set: 6-31G*
  Basis Set:
  @DF-RHF Final Energy:  -387.12167221594547
    Total Energy =                       -387.1216722159451820
  Basis Set: 6-31G*
  Basis Set:
  Basis Set: 6-31G*
  Basis Set:
  @DF-RHF Final Energy:  -387.12202057500366
    Total Energy =                       -387.1220205750040577
  Basis Set: 6-31G*
  Basis Set:
  Basis Set: 6-31G*
  Basis Set:
  @DF-RHF Final Energy:  -387.12201934398848
    Total Energy =                       -387.1220193439883133
  Basis Set: 6-31G*
  Basis Set:
  Basis Set: 6-31G*
  Basis Set:
  @DF-RHF Final Energy:  -387.12200558857052
    Total Energy =                       -387.1220055885701186
  Basis Set: 6-31G*
  Basis Set:
  Basis Set: 6-31G*
  Basis Set:
  @DF-RHF Final Energy:  -387.12204084001195
    Total Energy =                       -387.1220408400117776
  Basis Set: 6-31G*
  Basis Set:
  Basis Set: 6-31G*
  Basis Set:
  @DF-RHF Final Energy:  -387.12202445960111
    Total Energy =                       -387.1220244596007660
  Basis Set: 6-31G*
  Basis Set:
  Charge       = 0
  Multiplicity = 1
  Basis Set: 6-31G*
  Basis Set:

    Orbital Energies (a.u.)
    -----------------------

    Doubly Occupied:

       1A    -20.562017     2A    -11.326174     3A    -11.235358
       4A    -11.234678     5A    -11.224008     6A    -11.219909
       7A    -11.218078     8A    -11.217015     9A    -11.210723
      10A     -1.401959    11A     -1.104007    12A     -1.069726
      13A     -1.013400    14A     -0.942520    15A     -0.875272
      16A     -0.820644    17A     -0.788093    18A     -0.781381
      19A     -0.664442    20A     -0.662210    21A     -0.632784
      22A     -0.626008    23A     -0.601073    24A     -0.594703
      25A     -0.576041    26A     -0.549044    27A     -0.536453
      28A     -0.524930    29A     -0.507912    30A     -0.495099
      31A     -0.491943    32A     -0.479578    33A     -0.464578
      34A     -0.459106    35A     -0.441256    36A     -0.409549

  @DF-RHF Final Energy:  -387.12204363806399

   => Energetics <=

    Nuclear Repulsion Energy =            439.1065380798556248
    One-Electron Energy =               -1394.5338266108772132
    Two-Electron Energy =                 568.3052448929570346
    DFT Exchange-Correlation Energy =       0.0000000000000000
    Empirical Dispersion Energy =           0.0000000000000000
    PCM Polarization Energy =               0.0000000000000000
    EFP Energy =                            0.0000000000000000
    Total Energy =                       -387.1220436380644969
    Molecular point group: c1
  Basis Set: 6-31G*
  Basis Set:

  -Total Gradient:
     Atom            X                  Y                   Z
    ------   -----------------  -----------------  -----------------
       1       -0.000003201492     0.000002483370    -0.000000963285
       2        0.000009237175    -0.000005954699     0.000004858415
       3       -0.000001233428     0.000000046261    -0.000003534838
       4       -0.000002317959     0.000004699781    -0.000002486272
       5       -0.000005303405     0.000001153520     0.000014348286
       6       -0.000001709141     0.000000280150    -0.000000130228
       7       -0.000000790474    -0.000000366159    -0.000001269963
       8        0.000067610254    -0.000550400775     0.000084052720
       9        0.000000362458    -0.000007335673     0.000002376124
      10       -0.000004584423     0.000005195261     0.000005773362
      11        0.000057924176     0.000293986854    -0.000331221311
      12       -0.000068586029     0.000396369918    -0.000014808807
      13        0.000009764684     0.000008449295    -0.000000174823
      14       -0.000057893936    -0.000149926824     0.000239895591
      15       -0.000000670124    -0.000005649165    -0.000006007831
      16        0.000000315082     0.000007579761     0.000006682923
      17        0.000000371803     0.000004246302     0.000005862460
      18       -0.000001464875    -0.000002480420    -0.000003138251
      19       -0.000001020854     0.000001737211     0.000000798826
      20       -0.000001764923    -0.000003607435     0.000000659553
      21        0.000000603348     0.000001997948    -0.000001042740
      22        0.000003953413     0.000000726584    -0.000000366922
      23       -0.000000176739     0.000000308252    -0.000002779442
      24       -0.000002406714    -0.000003265832    -0.000000157855
      25        0.000002982132    -0.000000273486     0.000002774308

  **** Optimization is complete! (in 8 steps) ****
    Final optimized geometry and variables:
    Molecular point group: c1

    Geometry (in Angstrom), charge = 0, multiplicity = 1:

    H           -3.260481881284    -0.377640294232     1.460184366271
    C           -3.304078547239    -0.318178600413     0.365477399950
    C           -2.668797612993     0.911698426812    -0.231702879948
    O           -3.830733904815    -1.181258961162    -0.258679233156
    C           -1.229895042959     1.127688139555     0.257630220802
    H           -2.714423850781     0.829974814791    -1.311544057581
    H           -3.279737958964     1.763377570685     0.064779006471
    C           -0.252251642286     0.053680543392    -0.226803435282
    H           -0.893184695832     2.102518300803    -0.083040106727
    H           -1.220827894320     1.167894715964     1.345593492995
    C            1.182036094377     0.297276206746     0.246947634948
    H           -0.273921278102     0.020815044672    -1.314149115218
    H           -0.582167785710    -0.926349219013     0.112555673656
    C            2.151316672620    -0.797358053937    -0.207307291575
    H            1.513978015760     1.265998052423    -0.117626163541
    H            1.196388408908     0.357780614615     1.334351439605
    C            3.584792119358    -0.638258075128     0.312181130165
    H            2.166887869963    -0.836121071055    -1.295347391530
    H            1.768632039646    -1.760165894103     0.124466014013
    C            4.324452454579     0.587293727218    -0.227439655050
    H            4.147201680449    -1.529658006038     0.045848630464
    H            3.571302181770    -0.602645698904     1.399683727353
    H            4.343274101105     0.584442894148    -1.314015500807
    H            3.862576882389     1.515249431675     0.093157151924
    H            5.353030485375     0.599884904145     0.119657431654

  Mulliken Charges: (a.u.)
   Center  Symbol    Alpha    Beta     Spin     Total
       1     H     0.43262  0.43262  0.00000  0.13477
       2     C     2.83082  2.83082  0.00000  0.33835
       3     C     3.20818  3.20818  0.00000 -0.41636
       4     O     4.23775  4.23775  0.00000 -0.47551
       5     C     3.16658  3.16658  0.00000 -0.33315
       6     H     0.39971  0.39971  0.00000  0.20058
       7     H     0.40661  0.40661  0.00000  0.18678
       8     C     3.15470  3.15470  0.00000 -0.30939
       9     H     0.41292  0.41292  0.00000  0.17416
      10     H     0.41962  0.41962  0.00000  0.16077
      11     C     3.15424  3.15424  0.00000 -0.30848
      12     H     0.41798  0.41798  0.00000  0.16405
      13     H     0.41846  0.41846  0.00000  0.16308
      14     C     3.15307  3.15307  0.00000 -0.30614
      15     H     0.42064  0.42064  0.00000  0.15871
      16     H     0.42394  0.42394  0.00000  0.15212
      17     C     3.15278  3.15278  0.00000 -0.30555
      18     H     0.42297  0.42297  0.00000  0.15405
      19     H     0.42066  0.42066  0.00000  0.15869
      20     C     3.24135  3.24135  0.00000 -0.48270
      21     H     0.41993  0.41993  0.00000  0.16014
      22     H     0.42330  0.42330  0.00000  0.15340
      23     H     0.42185  0.42185  0.00000  0.15631
      24     H     0.42070  0.42070  0.00000  0.15861
      25     H     0.41865  0.41865  0.00000  0.16271

   Total alpha = 36.00000, Total beta = 36.00000, Total charge =  0.00000
