  ==> Input File <==

--------------------------------------------------------------------------
set {
	reference rhf
	basis 6-31G*
}

set_num_threads( 4 )
memory 2 gb

molecule MOL {
0 1

H	 -1.748661	 -2.220942	 -0.005015
C	 -1.343207	 -1.225221	 -0.013879
N	 -0.055091	 -1.100174	 -0.261126
C	 -2.150779	 -0.125890	 0.222726
C	 0.449969	 0.122615	 -0.277109
H	 -3.200618	 -0.238980	 0.422496
N	 -1.660212	 1.097703	 0.209594
C	 -0.371804	 1.219904	 -0.038265
C	 1.928147	 0.267347	 -0.541394
H	 0.029131	 2.217482	 -0.051283
C	 2.773826	 0.017262	 0.711720
H	 2.207254	 -0.442701	 -1.312623
H	 2.130889	 1.260067	 -0.930725
H	 3.830959	 0.102189	 0.480948
H	 2.589700	 -0.976469	 1.102970
H	 2.541029	 0.736522	 1.490681

	symmetry c1
}
set optking {
	frozen_dihedral = ("
		12 9 5 3
	")
}

ee = optimize('scf')
oeprop('DIPOLE', 'QUADRUPOLE', 'MULLIKEN_CHARGES')
f=open( 'psi4out.xyz', 'w' )
f.write( "16  " )
f.write( str(ee) + "\n" )
f.write( MOL.save_string_xyz() )
f.close()
--------------------------------------------------------------------------

    Molecular point group: c1
  Charge       = 0
  Multiplicity = 1
  Basis Set: 6-31G*
  Basis Set:
  @DF-RHF Final Energy:  -340.75833943435822
    Total Energy =                       -340.7583394343585041
    Molecular point group: c1
  Basis Set: 6-31G*
  Basis Set:
  Basis Set: 6-31G*
  Basis Set:
  @DF-RHF Final Energy:  -340.75834855951274
    Total Energy =                       -340.7583485595129105
  Basis Set: 6-31G*
  Basis Set:
  Basis Set: 6-31G*
  Basis Set:
  @DF-RHF Final Energy:  -340.75834291117394
    Total Energy =                       -340.7583429111737701
  Basis Set: 6-31G*
  Basis Set:
  Basis Set: 6-31G*
  Basis Set:
  @DF-RHF Final Energy:  -340.75835363159871
    Total Energy =                       -340.7583536315988226
  Basis Set: 6-31G*
  Basis Set:
  Charge       = 0
  Multiplicity = 1
  Basis Set: 6-31G*
  Basis Set:

    Orbital Energies (a.u.)
    -----------------------

    Doubly Occupied:

       1A    -15.586937     2A    -15.582468     3A    -11.281142
       4A    -11.276263     5A    -11.272290     6A    -11.272089
       7A    -11.232717     8A    -11.219429     9A     -1.313465
      10A     -1.222079    11A     -1.084866    12A     -1.014143
      13A     -0.904282    14A     -0.893998    15A     -0.828537
      16A     -0.715979    17A     -0.710201    18A     -0.659110
      19A     -0.611124    20A     -0.604068    21A     -0.582030
      22A     -0.561220    23A     -0.521980    24A     -0.506788
      25A     -0.501106    26A     -0.485945    27A     -0.428865
      28A     -0.395121    29A     -0.345163

  @DF-RHF Final Energy:  -340.75835392793135

   => Energetics <=

    Nuclear Repulsion Energy =            349.8255034745462808
    One-Electron Energy =               -1153.9409040269799789
    Two-Electron Energy =                 463.3570466245025727
    DFT Exchange-Correlation Energy =       0.0000000000000000
    Empirical Dispersion Energy =           0.0000000000000000
    PCM Polarization Energy =               0.0000000000000000
    EFP Energy =                            0.0000000000000000
    Total Energy =                       -340.7583539279311253
    Molecular point group: c1
  Basis Set: 6-31G*
  Basis Set:

  -Total Gradient:
     Atom            X                  Y                   Z
    ------   -----------------  -----------------  -----------------
       1       -0.000018652736     0.000003055865    -0.000036875655
       2        0.000174408843    -0.000062842551     0.000042546504
       3       -0.000206487713    -0.000073590044    -0.000414490050
       4       -0.000008630700     0.000172864121     0.000035824600
       5        0.000093119567     0.000085379318     0.000659035903
       6       -0.000004489167    -0.000013312172    -0.000014841921
       7       -0.000146414953    -0.000104565183     0.000022391072
       8        0.000147567441    -0.000054536388    -0.000086153526
       9       -0.000152237972     0.000424304054    -0.000632998011
      10       -0.000000809120    -0.000006384699     0.000036976157
      11        0.000011963141    -0.000000719298    -0.000007933846
      12        0.000121950253    -0.000349656578     0.000367676754
      13       -0.000016464050    -0.000015579056     0.000023904323
      14        0.000010719284    -0.000006589315     0.000003944999
      15       -0.000005649778    -0.000000499306     0.000007218851
      16        0.000000107658     0.000002671233    -0.000006226152

  **** Optimization is complete! (in 5 steps) ****
    Final optimized geometry and variables:
    Molecular point group: c1

    Geometry (in Angstrom), charge = 0, multiplicity = 1:

    H           -1.745540262279    -2.255467500684    -0.012090626403
    C           -1.340526364471    -1.259548586710    -0.022328105847
    N           -0.052646178072    -1.134490883004    -0.275678208735
    C           -2.146995360381    -0.161151302452     0.217306785462
    C            0.451319048307     0.087897250940    -0.293516304219
    H           -3.195943097650    -0.274297416690     0.421697421401
    N           -1.657168293690     1.063535530142     0.199850437828
    C           -0.370847588416     1.185823920141    -0.053997813931
    C            1.929340355625     0.235772448414    -0.555221414849
    H            0.029643242970     2.183774952857    -0.072487517495
    C            2.769410230937    -0.019125455229     0.701855402219
    H            2.209251919805    -0.475165801780    -1.323977599437
    H            2.134663914051     1.230308502931    -0.938776562179
    H            3.827681968807     0.068558267321     0.478014249209
    H            2.585630151623    -1.015837908051     1.086887304947
    H            2.531318887223     0.694477213811     1.484578507027

  Mulliken Charges: (a.u.)
   Center  Symbol    Alpha    Beta     Spin     Total
       1     H     0.39378  0.39378  0.00000  0.21243
       2     C     2.99065  2.99065  0.00000  0.01871
       3     N     3.75266  3.75266  0.00000 -0.50533
       4     C     2.99790  2.99790  0.00000  0.00419
       5     C     2.87739  2.87739  0.00000  0.24522
       6     H     0.39426  0.39426  0.00000  0.21149
       7     N     3.72907  3.72907  0.00000 -0.45814
       8     C     2.99779  2.99779  0.00000  0.00443
       9     C     3.16860  3.16860  0.00000 -0.33719
      10     H     0.39516  0.39516  0.00000  0.20968
      11     C     3.24225  3.24225  0.00000 -0.48449
      12     H     0.40277  0.40277  0.00000  0.19447
      13     H     0.41442  0.41442  0.00000  0.17115
      14     H     0.41627  0.41627  0.00000  0.16747
      15     H     0.40857  0.40857  0.00000  0.18285
      16     H     0.41847  0.41847  0.00000  0.16306

   Total alpha = 29.00000, Total beta = 29.00000, Total charge =  0.00000
