  ==> Input File <==

--------------------------------------------------------------------------
set {
	reference rhf
	basis 6-31G*
}

set_num_threads( 4 )
memory 2 gb

molecule MOL {
0 1

O	 -0.291628	 1.323815	 -0.000732
C	 -0.449655	 0.146360	 0.000961
C	 -1.783294	 -0.549321	 -0.000296
O	 0.550821	 -0.724572	 0.000672
H	 -1.863538	 -1.185371	 -0.874187
H	 -2.574672	 0.185258	 -0.002793
H	 -1.866414	 -1.182381	 0.875436
C	 1.033134	 -1.147532	 -1.262166
H	 0.249313	 -1.634642	 -1.824041
H	 1.832173	 -1.842061	 -1.055002
H	 1.405450	 -0.305443	 -1.827506

	symmetry c1
}
set optking {
	frozen_dihedral = ("
		8 4 2 1
	")
}

ee = optimize('scf')
oeprop('DIPOLE', 'QUADRUPOLE', 'MULLIKEN_CHARGES')
f=open( 'psi4out.xyz', 'w' )
f.write( "11  " )
f.write( str(ee) + "\n" )
f.write( MOL.save_string_xyz() )
f.close()
--------------------------------------------------------------------------

    Molecular point group: c1
  Charge       = 0
  Multiplicity = 1
  Basis Set: 6-31G*
  Basis Set:
  @DF-RHF Final Energy:  -266.81447130324801
    Total Energy =                       -266.8144713032480126
    Molecular point group: c1
  Basis Set: 6-31G*
  Basis Set:
  Basis Set: 6-31G*
  Basis Set:
  @DF-RHF Final Energy:  -266.81321606935938
    Total Energy =                       -266.8132160693592141
  Basis Set: 6-31G*
  Basis Set:
  Basis Set: 6-31G*
  Basis Set:
  @DF-RHF Final Energy:  -266.81550919435335
    Total Energy =                       -266.8155091943531829
  Basis Set: 6-31G*
  Basis Set:
  Basis Set: 6-31G*
  Basis Set:
  @DF-RHF Final Energy:  -266.81601518386810
    Total Energy =                       -266.8160151838682168
  Basis Set: 6-31G*
  Basis Set:
  Basis Set: 6-31G*
  Basis Set:
  @DF-RHF Final Energy:  -266.81603095602600
    Total Energy =                       -266.8160309560260544
  Basis Set: 6-31G*
  Basis Set:
  Basis Set: 6-31G*
  Basis Set:
  @DF-RHF Final Energy:  -266.81603467974651
    Total Energy =                       -266.8160346797467355
  Basis Set: 6-31G*
  Basis Set:
  Charge       = 0
  Multiplicity = 1
  Basis Set: 6-31G*
  Basis Set:

    Orbital Energies (a.u.)
    -----------------------

    Doubly Occupied:

       1A    -20.587435     2A    -20.559199     3A    -11.379638
       4A    -11.293614     5A    -11.239289     6A     -1.460996
       7A     -1.369616     8A     -1.026590     9A     -0.964408
      10A     -0.779084    11A     -0.694752    12A     -0.683534
      13A     -0.668963    14A     -0.613896    15A     -0.590150
      16A     -0.578308    17A     -0.542040    18A     -0.494875
      19A     -0.460489    20A     -0.441522

  @DF-RHF Final Energy:  -266.81603326641346

   => Energetics <=

    Nuclear Repulsion Energy =            182.3387116178222129
    One-Electron Energy =                -725.4526939797517571
    Two-Electron Energy =                 276.2979490955160031
    DFT Exchange-Correlation Energy =       0.0000000000000000
    Empirical Dispersion Energy =           0.0000000000000000
    PCM Polarization Energy =               0.0000000000000000
    EFP Energy =                            0.0000000000000000
    Total Energy =                       -266.8160332664135126
    Molecular point group: c1
  Basis Set: 6-31G*
  Basis Set:

  -Total Gradient:
     Atom            X                  Y                   Z
    ------   -----------------  -----------------  -----------------
       1       -0.000049407625    -0.000161070528     0.002647880413
       2       -0.000744031368    -0.000551232493    -0.003542506255
       3        0.000004339647     0.000003063620    -0.000219495534
       4        0.002439221497     0.002548493335     0.001212742925
       5        0.000000152074     0.000009758570    -0.000023670701
       6       -0.000016262062    -0.000021978318    -0.000016056386
       7        0.000006612969    -0.000012425684    -0.000014482126
       8       -0.001643406526    -0.001808640330    -0.000032789916
       9        0.000000740410    -0.000012529638    -0.000018465054
      10       -0.000000943307    -0.000004358399     0.000010463350
      11        0.000002984291     0.000010919865    -0.000003620715

  **** Optimization is complete! (in 7 steps) ****
    Final optimized geometry and variables:
    Molecular point group: c1

    Geometry (in Angstrom), charge = 0, multiplicity = 1:

    O           -0.107207649778     1.505681368698     0.288198263167
    C           -0.290569932649     0.339925028022     0.252672930974
    C           -1.646156703536    -0.314258486546     0.285719872599
    O            0.735004043562    -0.544007230517     0.254380094039
    H           -1.761774153693    -0.990935486230    -0.553994749187
    H           -2.422573675509     0.435969058236     0.262721986698
    H           -1.729819244133    -0.906035852102     1.190754683647
    C            1.246547146943    -0.924664346623    -1.004899189810
    H            0.492316234558    -1.430937191354    -1.598791389109
    H            2.060985724990    -1.605391348910    -0.812859282989
    H            1.615129703225    -0.060922769387    -1.544331896556

  Mulliken Charges: (a.u.)
   Center  Symbol    Alpha    Beta     Spin     Total
       1     O     4.24702  4.24702  0.00000 -0.49403
       2     C     2.63064  2.63064  0.00000  0.73872
       3     C     3.28660  3.28660  0.00000 -0.57320
       4     O     4.30923  4.30923  0.00000 -0.61846
       5     H     0.40715  0.40715  0.00000  0.18569
       6     H     0.39629  0.39629  0.00000  0.20742
       7     H     0.39677  0.39677  0.00000  0.20646
       8     C     3.09253  3.09253  0.00000 -0.18505
       9     H     0.42296  0.42296  0.00000  0.15408
      10     H     0.40201  0.40201  0.00000  0.19599
      11     H     0.40881  0.40881  0.00000  0.18239

   Total alpha = 20.00000, Total beta = 20.00000, Total charge =  0.00000
