  ==> Input File <==

--------------------------------------------------------------------------
set {
	reference rhf
	basis 6-31G*
}

set_num_threads( 1 )
memory 2 gb

molecule MOL {
0 1

H	 2.138795	 -0.055401	 -1.039860
O	 1.654024	 -0.625927	 -0.460906
C	 1.135793	 0.118896	 0.612333
C	 0.031547	 1.023609	 0.088541
H	 1.915668	 0.729681	 1.063582
H	 0.754543	 -0.542641	 1.387006
C	 -1.134819	 0.293262	 -0.585751
H	 0.474374	 1.714721	 -0.623187
H	 -0.338529	 1.620940	 0.920081
C	 -1.917817	 -0.639439	 0.339494
H	 -0.758119	 -0.268455	 -1.433105
H	 -1.813832	 1.041889	 -0.986690
H	 -2.777680	 -1.057197	 -0.174994
H	 -1.310268	 -1.471279	 0.680599
H	 -2.283753	 -0.111424	 1.216626

	symmetry c1
}
set optking {
	frozen_dihedral = ("
		8 4 7 11,
		2 3 4 8
	")
}

ee = energy('scf')
oeprop('DIPOLE', 'QUADRUPOLE', 'MULLIKEN_CHARGES')
f=open( 'psi4out.xyz', 'w' )
f.write( "15  " )
f.write( str(ee) + "\n" )
f.write( MOL.save_string_xyz() )
f.close()
--------------------------------------------------------------------------

    Molecular point group: c1

    Geometry (in Angstrom), charge = 0, multiplicity = 1:

       Center              X                  Y                   Z               Mass
    ------------   -----------------  -----------------  -----------------  -----------------
           H          2.141463592432    -0.071029435146    -1.027726234930     1.007825032070
           O          1.656692592432    -0.641555435146    -0.448772234930    15.994914619560
           C          1.138461592432     0.103267564854     0.624466765070    12.000000000000
           C          0.034215592432     1.007980564854     0.100674765070    12.000000000000
           H          1.918336592432     0.714052564854     1.075715765070     1.007825032070
           H          0.757211592432    -0.558269435146     1.399139765070     1.007825032070
           C         -1.132150407568     0.277633564854    -0.573617234930    12.000000000000
           H          0.477042592432     1.699092564854    -0.611053234930     1.007825032070
           H         -0.335860407568     1.605311564854     0.932214765070     1.007825032070
           C         -1.915148407568    -0.655067435146     0.351627765070    12.000000000000
           H         -0.755450407568    -0.284083435146    -1.420971234930     1.007825032070
           H         -1.811163407568     1.026260564854    -0.974556234930     1.007825032070
           H         -2.775011407568    -1.072825435146    -0.162860234930     1.007825032070
           H         -1.307599407568    -1.486907435146     0.692732765070     1.007825032070
           H         -2.281084407568    -0.127052435146     1.228759765070     1.007825032070

  Charge       = 0
  Multiplicity = 1
  Basis Set: 6-31G*
  Basis Set:

    Orbital Energies (a.u.)
    -----------------------

    Doubly Occupied:

       1A    -20.552855     2A    -11.268669     3A    -11.214579
       4A    -11.211919     5A    -11.205937     6A     -1.360989
       7A     -1.065462     8A     -0.970673     9A     -0.874515
      10A     -0.784942    11A     -0.683691    12A     -0.643267
      13A     -0.629043    14A     -0.579870    15A     -0.561968
      16A     -0.539521    17A     -0.503228    18A     -0.483544
      19A     -0.470418    20A     -0.453770    21A     -0.425449

  @DF-RHF Final Energy:  -232.14197765417228

   => Energetics <=

    Nuclear Repulsion Energy =            192.3284222852674645
    One-Electron Energy =                -695.9722099161132292
    Two-Electron Energy =                 271.5018099766741102
    DFT Exchange-Correlation Energy =       0.0000000000000000
    Empirical Dispersion Energy =           0.0000000000000000
    PCM Polarization Energy =               0.0000000000000000
    EFP Energy =                            0.0000000000000000
    Total Energy =                       -232.1419776541716260

  Mulliken Charges: (a.u.)
   Center  Symbol    Alpha    Beta     Spin     Total
       1     H     0.28153  0.28153  0.00000  0.43693
       2     O     4.36836  4.36836  0.00000 -0.73671
       3     C     3.00155  3.00155  0.00000 -0.00311
       4     C     3.16539  3.16539  0.00000 -0.33077
       5     H     0.42780  0.42780  0.00000  0.14440
       6     H     0.41400  0.41400  0.00000  0.17201
       7     C     3.14997  3.14997  0.00000 -0.29993
       8     H     0.42743  0.42743  0.00000  0.14515
       9     H     0.42564  0.42564  0.00000  0.14872
      10     C     3.24434  3.24434  0.00000 -0.48868
      11     H     0.41181  0.41181  0.00000  0.17637
      12     H     0.42287  0.42287  0.00000  0.15427
      13     H     0.41849  0.41849  0.00000  0.16302
      14     H     0.41632  0.41632  0.00000  0.16736
      15     H     0.42450  0.42450  0.00000  0.15099

   Total alpha = 21.00000, Total beta = 21.00000, Total charge =  0.00000
