  ==> Input File <==

--------------------------------------------------------------------------
set {
	reference rhf
	basis cc-pvtz
}

set_num_threads( 4 )
memory 2 gb

molecule MOL {
0 1

H	 2.065282	 1.291343	 -0.948302
O	 1.193361	 0.928626	 -0.992205
C	 1.050374	 0.054877	 0.000135
C	 -0.318151	 -0.570512	 0.000144
O	 1.919991	 -0.173187	 0.768068
C	 -1.454884	 0.441630	 -0.000560
H	 -0.371613	 -1.223646	 -0.864985
H	 -0.371920	 -1.222758	 0.865929
C	 -2.822577	 -0.232186	 0.000063
H	 -1.359760	 1.084704	 -0.867077
H	 -1.359641	 1.085996	 0.864983
H	 -2.954352	 -0.858985	 -0.875745
H	 -3.615886	 0.505352	 0.000019
H	 -2.953878	 -0.858359	 0.876394

	symmetry c1
}
set optking {
	frozen_dihedral = ("
		2 3 4 7
	")
}

ee = optimize('scf')
oeprop('DIPOLE', 'QUADRUPOLE', 'MULLIKEN_CHARGES')
f=open( 'psi4out.xyz', 'w' )
f.write( "14  " )
f.write( str(ee) + "\n" )
f.write( MOL.save_string_xyz() )
f.close()
--------------------------------------------------------------------------

    Molecular point group: c1
  Charge       = 0
  Multiplicity = 1
  Basis Set: CC-PVTZ
  Basis Set:
  @DF-RHF Final Energy:  -305.99919955934990
    Total Energy =                       -305.9991995593497904
    Molecular point group: c1
  Basis Set: CC-PVTZ
  Basis Set:
  Basis Set: CC-PVTZ
  Basis Set:
  @DF-RHF Final Energy:  -305.99939656524492
    Total Energy =                       -305.9993965652446946
  Basis Set: CC-PVTZ
  Basis Set:
  Basis Set: CC-PVTZ
  Basis Set:
  @DF-RHF Final Energy:  -305.99931236761779
    Total Energy =                       -305.9993123676176197
  Basis Set: CC-PVTZ
  Basis Set:
  Basis Set: CC-PVTZ
  Basis Set:
  @DF-RHF Final Energy:  -305.99948221607349
    Total Energy =                       -305.9994822160734884
  Basis Set: CC-PVTZ
  Basis Set:
  Charge       = 0
  Multiplicity = 1
  Basis Set: CC-PVTZ
  Basis Set:

    Orbital Energies (a.u.)
    -----------------------

    Doubly Occupied:

       1A    -20.605088     2A    -20.539424     3A    -11.373176
       4A    -11.239001     5A    -11.231871     6A    -11.218855
       7A     -1.477886     8A     -1.368332     9A     -1.087392
      10A     -0.980519    11A     -0.849946    12A     -0.816855
      13A     -0.704915    14A     -0.687521    15A     -0.654727
      16A     -0.628909    17A     -0.595346    18A     -0.566454
      19A     -0.552893    20A     -0.522678    21A     -0.500660
      22A     -0.488522    23A     -0.478095    24A     -0.440645

  @DF-RHF Final Energy:  -305.99948291801053

   => Energetics <=

    Nuclear Repulsion Energy =            240.8906202356103563
    One-Electron Energy =                -894.5607830681778978
    Two-Electron Energy =                 347.6706799145572973
    DFT Exchange-Correlation Energy =       0.0000000000000000
    Empirical Dispersion Energy =           0.0000000000000000
    PCM Polarization Energy =               0.0000000000000000
    EFP Energy =                            0.0000000000000000
    Total Energy =                       -305.9994829180101874
    Molecular point group: c1
  Basis Set: CC-PVTZ
  Basis Set:

  -Total Gradient:
     Atom            X                  Y                   Z
    ------   -----------------  -----------------  -----------------
       1        0.000028929728     0.000028010113    -0.000023416748
       2       -0.000138462396     0.000463348550     0.000368352524
       3        0.000338223428    -0.000889474972    -0.000308061631
       4       -0.000423563134     0.000852639905    -0.000311266112
       5       -0.000029034603     0.000129241755    -0.000083953062
       6        0.000022811713    -0.000032364264    -0.000032521735
       7        0.000233993429    -0.000513452858     0.000382004503
       8       -0.000009663509    -0.000031478993    -0.000002191166
       9       -0.000016846613     0.000003306083     0.000032206743
      10        0.000011862424     0.000012139725     0.000002807340
      11       -0.000000914132    -0.000014477045    -0.000025802486
      12        0.000001867312     0.000008171617     0.000000937141
      13       -0.000008641096     0.000001873976     0.000006333525
      14       -0.000010562548    -0.000017483590    -0.000005428839

  **** Optimization is complete! (in 5 steps) ****
    Final optimized geometry and variables:
    Molecular point group: c1

    Geometry (in Angstrom), charge = 0, multiplicity = 1:

    H            2.140618223500     1.201190157537    -0.858421995910
    O            1.259591800699     0.863042048078    -0.915470433498
    C            1.093174568136    -0.036830273548     0.049617708932
    C           -0.277973884184    -0.657381435696     0.039698877857
    O            1.957116481164    -0.304878986278     0.811590686781
    C           -1.424674926346     0.355016951475     0.028375286199
    H           -0.335091053233    -1.290495020244    -0.840853086362
    H           -0.335658552014    -1.299390395237     0.906852007996
    C           -2.786687079669    -0.328760628986     0.065917048667
    H           -1.349103549035     0.977182215625    -0.853952447104
    H           -1.327103264837     1.014891709006     0.884715218834
    H           -2.924829600490    -0.972833972065    -0.795974601813
    H           -3.585845201706     0.402562500551     0.064003636082
    H           -2.896970699032    -0.938329676445     0.956078257411

  Mulliken Charges: (a.u.)
   Center  Symbol    Alpha    Beta     Spin     Total
       1     H     0.38060  0.38060  0.00000  0.23880
       2     O     4.16236  4.16236  0.00000 -0.32471
       3     C     2.80972  2.80972  0.00000  0.38056
       4     C     3.08735  3.08735  0.00000 -0.17469
       5     O     4.19326  4.19326  0.00000 -0.38652
       6     C     3.09117  3.09117  0.00000 -0.18235
       7     H     0.44564  0.44564  0.00000  0.10871
       8     H     0.43594  0.43594  0.00000  0.12813
       9     C     3.15009  3.15009  0.00000 -0.30017
      10     H     0.44223  0.44223  0.00000  0.11555
      11     H     0.44890  0.44890  0.00000  0.10220
      12     H     0.45417  0.45417  0.00000  0.09165
      13     H     0.44562  0.44562  0.00000  0.10876
      14     H     0.45296  0.45296  0.00000  0.09408

   Total alpha = 24.00000, Total beta = 24.00000, Total charge =  0.00000
