                              Psi4 1.0.54 Driver

  ==> Input File <==

--------------------------------------------------------------------------
set {
	reference rhf
	basis cc-pvtz
}

set_num_threads( 4 )
memory 2 gb

molecule MOL {
0 1

H	 -3.056975	 -1.253730	 1.352367
C	 -3.196774	 -0.861308	 0.335831
C	 -2.729370	 0.554469	 0.133339
O	 -3.692185	 -1.538658	 -0.496679
C	 -1.290237	 0.777170	 0.607656
H	 -2.849433	 0.810747	 -0.911285
H	 -3.398306	 1.187757	 0.711938
C	 -0.247837	 0.040196	 -0.230469
H	 -1.083001	 1.841562	 0.586137
H	 -1.203294	 0.473913	 1.648170
C	 1.181757	 0.280428	 0.247371
H	 -0.340161	 0.353437	 -1.267032
H	 -0.454572	 -1.026846	 -0.220035
C	 2.151032	 -0.811012	 -0.202643
H	 1.515939	 1.247397	 -0.115449
H	 1.191514	 0.341223	 1.333422
C	 3.580021	 -0.656538	 0.320835
H	 2.170545	 -0.847575	 -1.289412
H	 1.766632	 -1.772905	 0.124928
C	 4.327657	 0.562694	 -0.213579
H	 4.138806	 -1.549270	 0.057813
H	 3.561991	 -0.620783	 1.406976
H	 4.355973	 0.557257	 -1.298551
H	 3.867136	 1.491650	 0.100501
H	 5.351524	 0.571613	 0.142204

	symmetry c1
}
set optking {
	frozen_dihedral = ("
		12 8 11 14
	")
}

ee,wfn = optimize('scf', return_wfn=True)
oeprop( wfn, 'DIPOLE', 'QUADRUPOLE', 'MULLIKEN_CHARGES')
f=open( 'psi4out.xyz', 'w' )
f.write( "25  " )
f.write( str(ee) + "\n" )
f.write( MOL.save_string_xyz() )
f.close()
--------------------------------------------------------------------------

    Molecular point group: c1
  Charge       = 0
  Multiplicity = 1
  Basis Set: CC-PVTZ
  Basis Set:
  @DF-RHF Final Energy:  -387.25873153736586
    Total Energy =                       -387.2587315373658612
    Molecular point group: c1
  Basis Set: CC-PVTZ
  Basis Set:
  Basis Set: CC-PVTZ
  Basis Set:
  @DF-RHF Final Energy:  -387.25880326913290
    Total Energy =                       -387.2588032691328408
  Basis Set: CC-PVTZ
  Basis Set:
  Basis Set: CC-PVTZ
  Basis Set:
  @DF-RHF Final Energy:  -387.25892185217214
    Total Energy =                       -387.2589218521723069
  Basis Set: CC-PVTZ
  Basis Set:
  Basis Set: CC-PVTZ
  Basis Set:
  @DF-RHF Final Energy:  -387.25803876079601
    Total Energy =                       -387.2580387607956709
  Basis Set: CC-PVTZ
  Basis Set:
  @DF-RHF Final Energy:  -387.25894294599061
    Total Energy =                       -387.2589429459909525
  Basis Set: CC-PVTZ
  Basis Set:
  @DF-RHF Final Energy:  -387.25894399906633
    Total Energy =                       -387.2589439990659912
  Basis Set: CC-PVTZ
  Basis Set:
  Basis Set: CC-PVTZ
  Basis Set:
  @DF-RHF Final Energy:  -387.25894822113332
    Total Energy =                       -387.2589482211336644
  Basis Set: CC-PVTZ
  Basis Set:
  Basis Set: CC-PVTZ
  Basis Set:
  @DF-RHF Final Energy:  -387.25895090647487
    Total Energy =                       -387.2589509064746380
  Basis Set: CC-PVTZ
  Basis Set:
  Charge       = 0
  Multiplicity = 1
  Basis Set: CC-PVTZ
  Basis Set:

    Orbital Energies (a.u.)
    -----------------------

    Doubly Occupied:

       1A    -20.551327     2A    -11.320935     3A    -11.233659
       4A    -11.232790     5A    -11.221742     6A    -11.217721
       7A    -11.216279     8A    -11.215222     9A    -11.208774
      10A     -1.406336    11A     -1.104979    12A     -1.070938
      13A     -1.014215    14A     -0.943648    15A     -0.875691
      16A     -0.820998    17A     -0.788410    18A     -0.782568
      19A     -0.667604    20A     -0.663832    21A     -0.634184
      22A     -0.627490    23A     -0.602662    24A     -0.593889
      25A     -0.580616    26A     -0.549230    27A     -0.537927
      28A     -0.528141    29A     -0.507603    30A     -0.497912
      31A     -0.492665    32A     -0.479776    33A     -0.462997
      34A     -0.460235    35A     -0.442494    36A     -0.411767

  @DF-RHF Final Energy:  -387.25895089783842

   => Energetics <=

    Nuclear Repulsion Energy =            439.7766924652371472
    One-Electron Energy =               -1396.1367744465203486
    Two-Electron Energy =                 569.1011310834451251
    DFT Exchange-Correlation Energy =       0.0000000000000000
    Empirical Dispersion Energy =           0.0000000000000000
    PCM Polarization Energy =               0.0000000000000000
    EFP Energy =                            0.0000000000000000
    Total Energy =                       -387.2589508978380763
    Molecular point group: c1
  Basis Set: CC-PVTZ
  Basis Set:

  -Total Gradient:
     Atom            X                  Y                   Z
    ------   -----------------  -----------------  -----------------
       1       -0.000007608869    -0.000009877703    -0.000012136953
       2        0.000006764471     0.000014185866    -0.000024532870
       3        0.000005644762    -0.000000981467     0.000010140487
       4       -0.000000394524    -0.000015060646     0.000018954318
       5        0.000005903076     0.000019824421    -0.000013184583
       6       -0.000002061457     0.000003002329     0.000006010085
       7       -0.000000823907    -0.000004108800     0.000003948866
       8        0.001007676949    -0.004598868567    -0.000549723659
       9        0.000007365515    -0.000001429733    -0.000000603129
      10       -0.000003016954     0.000005511933     0.000002899928
      11        0.000445553406     0.002727683477    -0.002749803236
      12       -0.000968236789     0.003263412191     0.001141376124
      13       -0.000007182493    -0.000004959029     0.000001703988
      14       -0.000481769230    -0.001396399596     0.002170953308
      15        0.000006462179     0.000007332361     0.000003895827
      16       -0.000000612184    -0.000005918538    -0.000005004297
      17        0.000005983284    -0.000011129251    -0.000001612576
      18        0.000000879993     0.000003396799     0.000002602418
      19        0.000003274879    -0.000003041199     0.000000638222
      20       -0.000011130191     0.000009271736    -0.000002681615
      21       -0.000010307064    -0.000000422631     0.000002025284
      22       -0.000000162550    -0.000000265129    -0.000010081937
      23        0.000003922427    -0.000000682261     0.000004708309
      24       -0.000002842035     0.000001082699    -0.000004508062
      25       -0.000003282700    -0.000001559264     0.000004015754

  **** Optimization is complete! (in 9 steps) ****
    Final optimized geometry and variables:
    Molecular point group: c1

    Geometry (in Angstrom), charge = 0, multiplicity = 1:

    H           -3.132535440245    -1.101080094136     1.236426072834
    C           -3.240037050348    -0.668897111502     0.232145369641
    C           -2.737791119144     0.742596010343     0.092491285818
    O           -3.730214522352    -1.304400903666    -0.635703156014
    C           -1.306211356563     0.915309508371     0.608108278793
    H           -2.827510473796     1.038974262948    -0.944536478497
    H           -3.406759106426     1.369290631407     0.678228982879
    C           -0.260031818235     0.173694162712    -0.224197840511
    H           -1.071478537374     1.974435809723     0.620627080112
    H           -1.253131235932     0.582541093688     1.641657801534
    C            1.168859224764     0.431168327876     0.259233967306
    H           -0.357785414423     0.503971585750    -1.254437743672
    H           -0.468585864044    -0.891886586053    -0.212540743487
    C            2.161626127635    -0.632032557569    -0.207854851564
    H            1.480711952310     1.417669259890    -0.065851053340
    H            1.179569684184     0.452284239725     1.346920659144
    C            3.599880203013    -0.419909765394     0.267393682627
    H            2.149284541178    -0.689042866094    -1.294272512144
    H            1.818647730668    -1.598899248812     0.148676919147
    C            4.297144336692     0.798959132106    -0.332031785965
    H            4.176196472547    -1.305808656257     0.019548031917
    H            3.611869654429    -0.345538303322     1.351757171233
    H            4.298649056487     0.751947600397    -1.416279930617
    H            3.817190290594     1.725871099676    -0.042004582255
    H            5.328806353819     0.851338882436    -0.003525636117

  Mulliken Charges: (a.u.)
   Center  Symbol    Alpha    Beta     Spin     Total
       1     H     0.46421  0.46421  0.00000  0.07159
       2     C     2.90461  2.90461  0.00000  0.19078
       3     C     3.08921  3.08921  0.00000 -0.17843
       4     O     4.16638  4.16638  0.00000 -0.33276
       5     C     3.11530  3.11530  0.00000 -0.23060
       6     H     0.44292  0.44292  0.00000  0.11416
       7     H     0.44053  0.44053  0.00000  0.11893
       8     C     3.09109  3.09109  0.00000 -0.18219
       9     H     0.44308  0.44308  0.00000  0.11384
      10     H     0.45029  0.45029  0.00000  0.09941
      11     C     3.09415  3.09415  0.00000 -0.18829
      12     H     0.44903  0.44903  0.00000  0.10194
      13     H     0.44795  0.44795  0.00000  0.10410
      14     C     3.09555  3.09555  0.00000 -0.19109
      15     H     0.44888  0.44888  0.00000  0.10224
      16     H     0.45576  0.45576  0.00000  0.08847
      17     C     3.09076  3.09076  0.00000 -0.18151
      18     H     0.45229  0.45229  0.00000  0.09541
      19     H     0.44833  0.44833  0.00000  0.10334
      20     C     3.15200  3.15200  0.00000 -0.30399
      21     H     0.44760  0.44760  0.00000  0.10479
      22     H     0.45501  0.45501  0.00000  0.08998
      23     H     0.45432  0.45432  0.00000  0.09136
      24     H     0.45461  0.45461  0.00000  0.09079
      25     H     0.44614  0.44614  0.00000  0.10773

   Total alpha = 36.00000, Total beta = 36.00000, Total charge =  0.00000

*** Psi4 exiting successfully. Buy a developer a beer!
