  ==> Input File <==

--------------------------------------------------------------------------
set {
	reference rhf
	basis 6-31G*
}

set_num_threads( 1 )
memory 2 gb

molecule MOL {
0 1

H	 1.136379	 0.211822	 1.465562
C	 1.135357	 0.094285	 0.374742
C	 0.065331	 0.871482	 -0.349150
O	 1.941633	 -0.601957	 -0.151457
C	 0.644936	 1.815299	 -1.412516
H	 -0.519814	 1.413142	 0.385100
H	 -0.589070	 0.146521	 -0.831179
C	 1.470432	 2.958437	 -0.820727
H	 -0.175454	 2.224380	 -1.993570
H	 1.254536	 1.243844	 -2.109271
H	 0.870182	 3.563120	 -0.147983
H	 1.849171	 3.606809	 -1.603982
H	 2.322539	 2.590124	 -0.257123

	symmetry c1
}
set optking {
	frozen_dihedral = ("
		6 3 5 9
	")
}

ee = energy('scf')
oeprop('DIPOLE', 'QUADRUPOLE', 'MULLIKEN_CHARGES')
f=open( 'psi4out.xyz', 'w' )
f.write( "13  " )
f.write( str(ee) + "\n" )
f.write( MOL.save_string_xyz() )
f.close()
--------------------------------------------------------------------------

    Molecular point group: c1

    Geometry (in Angstrom), charge = 0, multiplicity = 1:

       Center              X                  Y                   Z               Mass
    ------------   -----------------  -----------------  -----------------  -----------------
           H          0.067156627329    -0.820171969358     1.938054680261     1.007825032070
           C          0.066134627329    -0.937708969358     0.847234680261    12.000000000000
           C         -1.003891372671    -0.160511969358     0.123342680261    12.000000000000
           O          0.872410627329    -1.633950969358     0.321035680261    15.994914619560
           C         -0.424286372671     0.783305030642    -0.940023319739    12.000000000000
           H         -1.589036372671     0.381148030642     0.857592680261     1.007825032070
           H         -1.658292372671    -0.885472969358    -0.358686319739     1.007825032070
           C          0.401209627329     1.926443030642    -0.348234319739    12.000000000000
           H         -1.244676372671     1.192386030642    -1.521077319739     1.007825032070
           H          0.185313627329     0.211850030642    -1.636778319739     1.007825032070
           H         -0.199040372671     2.531126030642     0.324509680261     1.007825032070
           H          0.779948627329     2.574815030642    -1.131489319739     1.007825032070
           H          1.253316627329     1.558130030642     0.215369680261     1.007825032070

  Charge       = 0
  Multiplicity = 1
  Basis Set: 6-31G*
  Basis Set:

    Orbital Energies (a.u.)
    -----------------------

    Doubly Occupied:

       1A    -20.563617     2A    -11.327524     3A    -11.235897
       4A    -11.232486     5A    -11.219253     6A     -1.403931
       7A     -1.081782     8A     -0.973124     9A     -0.853882
      10A     -0.768947    11A     -0.685092    12A     -0.639897
      13A     -0.622761    14A     -0.593626    15A     -0.559170
      16A     -0.531552    17A     -0.503442    18A     -0.488358
      19A     -0.478828    20A     -0.409818

  @DF-RHF Final Energy:  -230.98291971950127

   => Energetics <=

    Nuclear Repulsion Energy =            175.2439392269438088
    One-Electron Energy =                -660.1077296157640149
    Two-Electron Energy =                 253.8808706693187673
    DFT Exchange-Correlation Energy =       0.0000000000000000
    Empirical Dispersion Energy =           0.0000000000000000
    PCM Polarization Energy =               0.0000000000000000
    EFP Energy =                            0.0000000000000000
    Total Energy =                       -230.9829197195014672

  Mulliken Charges: (a.u.)
   Center  Symbol    Alpha    Beta     Spin     Total
       1     H     0.42845  0.42845  0.00000  0.14309
       2     C     2.84262  2.84262  0.00000  0.31475
       3     C     3.20299  3.20299  0.00000 -0.40598
       4     O     4.23720  4.23720  0.00000 -0.47441
       5     C     3.15704  3.15704  0.00000 -0.31407
       6     H     0.41584  0.41584  0.00000  0.16833
       7     H     0.39905  0.39905  0.00000  0.20191
       8     C     3.24547  3.24547  0.00000 -0.49095
       9     H     0.41559  0.41559  0.00000  0.16882
      10     H     0.40429  0.40429  0.00000  0.19142
      11     H     0.42149  0.42149  0.00000  0.15703
      12     H     0.41391  0.41391  0.00000  0.17219
      13     H     0.41606  0.41606  0.00000  0.16788

   Total alpha = 20.00000, Total beta = 20.00000, Total charge = -0.00000
