                              Psi4 1.0.54 Driver

  ==> Input File <==

--------------------------------------------------------------------------
set {
	reference rhf
	basis cc-pvtz
}

set_num_threads( 4 )
memory 2 gb

molecule MOL {
0 1

O	 -2.440701	 -0.934798	 -0.415053
C	 -1.922978	 0.063265	 -0.045005
C	 -2.632749	 1.372204	 0.158357
O	 -0.637375	 0.157174	 0.243149
H	 -2.187724	 2.129143	 -0.474664
H	 -3.677681	 1.257276	 -0.079438
H	 -2.516788	 1.693160	 1.185542
C	 0.162530	 -1.009518	 0.097799
C	 1.587210	 -0.664190	 0.477086
H	 0.096803	 -1.356267	 -0.924704
H	 -0.233803	 -1.785900	 0.736810
C	 2.256770	 0.342732	 -0.454344
H	 2.154716	 -1.590834	 0.479041
H	 1.598751	 -0.289614	 1.496104
C	 2.872745	 1.518781	 0.296055
H	 3.028100	 -0.162358	 -1.029697
H	 1.529631	 0.709892	 -1.169401
H	 3.344119	 2.215055	 -0.387608
H	 3.627718	 1.184468	 1.000073
H	 2.119329	 2.063678	 0.855044

	symmetry c1
}
set optking {
	frozen_dihedral = ("
		16 12 9 8
	")
}

ee,wfn = optimize('scf', return_wfn=True)
oeprop( wfn, 'DIPOLE', 'QUADRUPOLE', 'MULLIKEN_CHARGES')
f=open( 'psi4out.xyz', 'w' )
f.write( "20  " )
f.write( str(ee) + "\n" )
f.write( MOL.save_string_xyz() )
f.close()
--------------------------------------------------------------------------

    Molecular point group: c1
  Charge       = 0
  Multiplicity = 1
  Basis Set: CC-PVTZ
  Basis Set:
  @DF-RHF Final Energy:  -384.08238307788338
    Total Energy =                       -384.0823830778836054
    Molecular point group: c1
  Basis Set: CC-PVTZ
  Basis Set:
  Basis Set: CC-PVTZ
  Basis Set:
  @DF-RHF Final Energy:  -384.08261465993519
    Total Energy =                       -384.0826146599357571
  Basis Set: CC-PVTZ
  Basis Set:
  Basis Set: CC-PVTZ
  Basis Set:
  @DF-RHF Final Energy:  -384.08257954391314
    Total Energy =                       -384.0825795439130843
  Basis Set: CC-PVTZ
  Basis Set:
  Basis Set: CC-PVTZ
  Basis Set:
  @DF-RHF Final Energy:  -384.08269391652129
    Total Energy =                       -384.0826939165215208
  Basis Set: CC-PVTZ
  Basis Set:
  Basis Set: CC-PVTZ
  Basis Set:
  @DF-RHF Final Energy:  -384.08269329492811
    Total Energy =                       -384.0826932949283901
  Basis Set: CC-PVTZ
  Basis Set:
  Basis Set: CC-PVTZ
  Basis Set:
  @DF-RHF Final Energy:  -384.08269831054997
    Total Energy =                       -384.0826983105503132
  Basis Set: CC-PVTZ
  Basis Set:
  Charge       = 0
  Multiplicity = 1
  Basis Set: CC-PVTZ
  Basis Set:

    Orbital Energies (a.u.)
    -----------------------

    Doubly Occupied:

       1A    -20.594793     2A    -20.532997     3A    -11.367018
       4A    -11.280391     5A    -11.231979     6A    -11.223241
       7A    -11.219202     8A    -11.210365     9A     -1.471393
      10A     -1.365587    11A     -1.084892    12A     -1.028559
      13A     -0.982238    14A     -0.881417    15A     -0.810615
      16A     -0.778538    17A     -0.693408    18A     -0.687069
      19A     -0.670112    20A     -0.624467    21A     -0.605495
      22A     -0.595473    23A     -0.575913    24A     -0.553742
      25A     -0.538874    26A     -0.535231    27A     -0.514439
      28A     -0.481192    29A     -0.475376    30A     -0.470602
      31A     -0.452385    32A     -0.442005

  @DF-RHF Final Energy:  -384.08269837232012

   => Energetics <=

    Nuclear Repulsion Energy =            389.0327315325666859
    One-Electron Energy =               -1294.2728384552033276
    Two-Electron Energy =                 521.1574085503166316
    DFT Exchange-Correlation Energy =       0.0000000000000000
    Empirical Dispersion Energy =           0.0000000000000000
    PCM Polarization Energy =               0.0000000000000000
    EFP Energy =                            0.0000000000000000
    Total Energy =                       -384.0826983723200101
    Molecular point group: c1
  Basis Set: CC-PVTZ
  Basis Set:

  -Total Gradient:
     Atom            X                  Y                   Z
    ------   -----------------  -----------------  -----------------
       1        0.000016197747    -0.000008240990     0.000001793795
       2        0.000002166635     0.000038226780     0.000002712687
       3       -0.000009630969    -0.000004861911     0.000000519462
       4       -0.000014686988    -0.000023551216    -0.000003421977
       5       -0.000001014614    -0.000004894997     0.000003070583
       6        0.000000302441     0.000003790037     0.000001250105
       7        0.000000467101    -0.000000916731    -0.000005240194
       8       -0.000405133524     0.000894042209     0.000699029903
       9        0.000819531620    -0.001171942574    -0.000698222566
      10       -0.000000583199    -0.000005170391    -0.000007221384
      11        0.000005072712     0.000006292138    -0.000002725251
      12       -0.001489378619    -0.000057855018    -0.001135230175
      13        0.000002261311    -0.000000365897     0.000003141150
      14       -0.000000459403    -0.000001362298    -0.000001175942
      15       -0.000004998023    -0.000001573732    -0.000000501580
      16        0.001077809356     0.000337164865     0.001141013810
      17        0.000001757597     0.000000592098    -0.000001614286
      18       -0.000001582804    -0.000002631092     0.000001248932
      19        0.000001007559     0.000001251812    -0.000000511444
      20        0.000000894065     0.000002006901     0.000002084370

  **** Optimization is complete! (in 7 steps) ****
    Final optimized geometry and variables:
    Molecular point group: c1

    Geometry (in Angstrom), charge = 0, multiplicity = 1:

    O           -2.331155887181    -1.041625172713    -0.482865996213
    C           -1.812751252579    -0.050451292881    -0.096023678352
    C           -2.517390564233     1.260272055457     0.111460081425
    O           -0.529948665167     0.032656626166     0.208453198899
    H           -2.059820910759     2.020801687076    -0.508097406948
    H           -3.559877220372     1.153972973621    -0.140654255336
    H           -2.412526903491     1.569876062882     1.143247766199
    C            0.265287784156    -1.137135581465     0.061315090460
    C            1.689540927753    -0.786709061082     0.437180277261
    H            0.194975478050    -1.484373890785    -0.960689740002
    H           -0.130159824109    -1.911934650513     0.702925696939
    C            2.355127270488     0.242975048290    -0.497518468825
    H            2.259065991169    -1.709554594225     0.450105003892
    H            1.685319918223    -0.415771879920     1.456428629259
    C            2.981181036133     1.416937261345     0.249892538889
    H            3.126510564955    -0.245518247420    -1.082799323849
    H            1.625839413764     0.624251607937    -1.202253673036
    H            3.454155999066     2.110413784560    -0.436066932866
    H            3.737345025395     1.076703277704     0.949850459544
    H            2.230915366178     1.961665407338     0.812275981490

  Mulliken Charges: (a.u.)
   Center  Symbol    Alpha    Beta     Spin     Total
       1     O     4.19716  4.19716  0.00000 -0.39432
       2     C     2.80841  2.80841  0.00000  0.38318
       3     C     3.13830  3.13830  0.00000 -0.27660
       4     O     4.15380  4.15380  0.00000 -0.30760
       5     H     0.44609  0.44609  0.00000  0.10783
       6     H     0.43782  0.43782  0.00000  0.12435
       7     H     0.44567  0.44567  0.00000  0.10866
       8     C     2.99491  2.99491  0.00000  0.01018
       9     C     3.08969  3.08969  0.00000 -0.17937
      10     H     0.45021  0.45021  0.00000  0.09958
      11     H     0.44424  0.44424  0.00000  0.11151
      12     C     3.08590  3.08590  0.00000 -0.17180
      13     H     0.44681  0.44681  0.00000  0.10638
      14     H     0.45287  0.45287  0.00000  0.09425
      15     C     3.14833  3.14833  0.00000 -0.29666
      16     H     0.44971  0.44971  0.00000  0.10059
      17     H     0.45274  0.45274  0.00000  0.09452
      18     H     0.44957  0.44957  0.00000  0.10086
      19     H     0.45492  0.45492  0.00000  0.09016
      20     H     0.45285  0.45285  0.00000  0.09430

   Total alpha = 32.00000, Total beta = 32.00000, Total charge = -0.00000

*** Psi4 exiting successfully. Buy a developer a beer!
