  ==> Input File <==

--------------------------------------------------------------------------
set {
	reference rhf
	basis 6-31G*
}

set_num_threads( 4 )
memory 2 gb

molecule MOL {
0 1

H	 -0.000158	 1.970498	 0.756846
O	 -0.000074	 1.880206	 -0.189275
C	 -0.000015	 0.544847	 -0.545111
C	 -1.278788	 -0.123820	 -0.051541
C	 1.278802	 -0.123718	 -0.051505
H	 -0.000001	 0.490777	 -1.623619
F	 -1.018640	 -0.835943	 1.023982
F	 -2.212903	 0.751192	 0.255287
F	 -1.766059	 -0.942740	 -0.969981
F	 2.323327	 0.466644	 -0.591854
F	 1.326242	 -1.401483	 -0.363667
F	 1.388946	 -0.015632	 1.262939

	symmetry c1
}
set optking {
	frozen_dihedral = ("
		7 4 3 6
	")
}

ee = optimize('scf')
oeprop('DIPOLE', 'QUADRUPOLE', 'MULLIKEN_CHARGES')
f=open( 'psi4out.xyz', 'w' )
f.write( "12  " )
f.write( str(ee) + "\n" )
f.write( MOL.save_string_xyz() )
f.close()
--------------------------------------------------------------------------

    Molecular point group: c1
  Charge       = 0
  Multiplicity = 1
  Basis Set: 6-31G*
  Basis Set:
  @DF-RHF Final Energy:  -786.27127370328503
    Total Energy =                       -786.2712737032852601
    Molecular point group: c1
  Basis Set: 6-31G*
  Basis Set:
  Basis Set: 6-31G*
  Basis Set:
  @DF-RHF Final Energy:  -786.27289883876404
    Total Energy =                       -786.2728988387630125
  Basis Set: 6-31G*
  Basis Set:
  Basis Set: 6-31G*
  Basis Set:
  @DF-RHF Final Energy:  -786.27338592935632
    Total Energy =                       -786.2733859293560954
  Basis Set: 6-31G*
  Basis Set:
  Basis Set: 6-31G*
  Basis Set:
  @DF-RHF Final Energy:  -786.27348509376839
    Total Energy =                       -786.2734850937683859
  Basis Set: 6-31G*
  Basis Set:
  Basis Set: 6-31G*
  Basis Set:
  @DF-RHF Final Energy:  -786.27350090405525
    Total Energy =                       -786.2735009040557088
  Basis Set: 6-31G*
  Basis Set:
  Basis Set: 6-31G*
  Basis Set:
  @DF-RHF Final Energy:  -786.27350309214285
    Total Energy =                       -786.2735030921421640
  Basis Set: 6-31G*
  Basis Set:
  Charge       = 0
  Multiplicity = 1
  Basis Set: 6-31G*
  Basis Set:

    Orbital Energies (a.u.)
    -----------------------

    Doubly Occupied:

       1A    -26.362475     2A    -26.362126     3A    -26.360598
       4A    -26.359791     5A    -26.357742     6A    -26.357178
       7A    -20.617742     8A    -11.525822     9A    -11.524832
      10A    -11.349182    11A     -1.764140    12A     -1.757670
      13A     -1.660042    14A     -1.658774    15A     -1.655903
      16A     -1.653569    17A     -1.436122    18A     -1.100917
      19A     -0.995223    20A     -0.937108    21A     -0.864193
      22A     -0.860588    23A     -0.850280    24A     -0.844917
      25A     -0.832445    26A     -0.813135    27A     -0.734706
      28A     -0.729989    29A     -0.727291    30A     -0.721411
      31A     -0.687609    32A     -0.685522    33A     -0.683424
      34A     -0.675661    35A     -0.667785    36A     -0.661221
      37A     -0.656440    38A     -0.651681    39A     -0.618439
      40A     -0.548890    41A     -0.505759

  @DF-RHF Final Energy:  -786.27350344489264

   => Energetics <=

    Nuclear Repulsion Energy =            670.1980641742075022
    One-Electron Energy =               -2427.3064486146759009
    Two-Electron Energy =                 970.8348809955754177
    DFT Exchange-Correlation Energy =       0.0000000000000000
    Empirical Dispersion Energy =           0.0000000000000000
    PCM Polarization Energy =               0.0000000000000000
    EFP Energy =                            0.0000000000000000
    Total Energy =                       -786.2735034448929810
    Molecular point group: c1
  Basis Set: 6-31G*
  Basis Set:

  -Total Gradient:
     Atom            X                  Y                   Z
    ------   -----------------  -----------------  -----------------
       1       -0.000006016724    -0.000011424103    -0.000006869397
       2       -0.000000826429     0.000029690205     0.000017307868
       3       -0.002407382764     0.003489599363    -0.000999706468
       4       -0.000683345956     0.003039206355     0.002857863559
       5        0.000030787516     0.000029011020     0.000049245149
       6        0.002254970673    -0.003734722618     0.000210900632
       7        0.000905175216    -0.002907489445    -0.002136101972
       8       -0.000030536363     0.000046989555     0.000012783007
       9        0.000022449226     0.000027605768     0.000030150419
      10       -0.000006509033     0.000025565249    -0.000017325652
      11       -0.000053646077    -0.000033594720     0.000006355745
      12       -0.000025119299    -0.000000436639    -0.000024602892

  **** Optimization is complete! (in 7 steps) ****
    Final optimized geometry and variables:
    Molecular point group: c1

    Geometry (in Angstrom), charge = 0, multiplicity = 1:

    H            0.033654947130     2.021348017034     0.796686759233
    O            0.018245285759     1.928798924303    -0.148513338269
    C           -0.004442416829     0.600165345120    -0.513146461629
    C           -1.276381539742    -0.133132589533    -0.044465846167
    C            1.269662945175    -0.095002157903    -0.045661290680
    H            0.009110075047     0.544627783205    -1.590876258222
    F           -1.076376436044    -0.863346728268     1.038732695816
    F           -2.240293445705     0.720306367002     0.216690850932
    F           -1.696269796356    -0.952121215278    -0.991460912791
    F            2.311873188776     0.417175574999    -0.665460531306
    F            1.235176566104    -1.387067243139    -0.303474736245
    F            1.455310122983     0.070075273062     1.253184253364

  Mulliken Charges: (a.u.)
   Center  Symbol    Alpha    Beta     Spin     Total
       1     H     0.26702  0.26702  0.00000  0.46596
       2     O     4.35939  4.35939  0.00000 -0.71878
       3     C     3.05920  3.05920  0.00000 -0.11841
       4     C     2.44150  2.44150  0.00000  1.11700
       5     C     2.43928  2.43928  0.00000  1.12144
       6     H     0.37251  0.37251  0.00000  0.25498
       7     F     4.67740  4.67740  0.00000 -0.35480
       8     F     4.67274  4.67274  0.00000 -0.34548
       9     F     4.67766  4.67766  0.00000 -0.35531
      10     F     4.67541  4.67541  0.00000 -0.35083
      11     F     4.67631  4.67631  0.00000 -0.35262
      12     F     4.68158  4.68158  0.00000 -0.36317

   Total alpha = 41.00000, Total beta = 41.00000, Total charge =  0.00000
