  ==> Input File <==

--------------------------------------------------------------------------
set {
	reference rhf
	basis 6-31G*
}

set_num_threads( 1 )
memory 2 gb

molecule MOL {
0 1

H	 -1.276382	 2.828137	 -2.023254
C	 -0.408372	 2.952225	 -1.363873
C	 -0.638152	 2.558383	 0.073034
O	 0.615749	 3.370813	 -1.797128
C	 -1.220012	 1.144545	 0.209990
H	 0.298716	 2.657471	 0.608916
H	 -1.340764	 3.277027	 0.493204
C	 -0.252658	 0.041456	 -0.226725
H	 -1.501725	 0.987572	 1.246948
H	 -2.140643	 1.075275	 -0.367416
C	 1.180775	 0.282413	 0.250794
H	 -0.266029	 -0.034465	 -1.312038
H	 -0.597733	 -0.921000	 0.146291
C	 2.148627	 -0.814315	 -0.201312
H	 1.516199	 1.249228	 -0.115937
H	 1.192670	 0.346017	 1.338083
C	 3.580890	 -0.659131	 0.322722
H	 2.166869	 -0.852443	 -1.289387
H	 1.762857	 -1.776509	 0.128956
C	 4.324889	 0.564933	 -0.213704
H	 4.142010	 -1.551473	 0.056605
H	 3.564836	 -0.624694	 1.410140
H	 4.342616	 0.565491	 -1.300421
H	 3.866655	 1.493402	 0.110242
H	 5.353900	 0.572371	 0.132816

	symmetry c1
}
set optking {
	frozen_dihedral = ("
		6 3 5 8,
		6 3 2 4,
		12 8 11 14,
		8 11 14 18,
		20 17 14 18
	")
}

ee = energy('scf')
oeprop('DIPOLE', 'QUADRUPOLE', 'MULLIKEN_CHARGES')
f=open( 'psi4out.xyz', 'w' )
f.write( "25  " )
f.write( str(ee) + "\n" )
f.write( MOL.save_string_xyz() )
f.close()
--------------------------------------------------------------------------

    Molecular point group: c1

    Geometry (in Angstrom), charge = 0, multiplicity = 1:

       Center              X                  Y                   Z               Mass
    ------------   -----------------  -----------------  -----------------  -----------------
           H         -2.335464189589     1.765648985918    -1.685478701632     1.007825032070
           C         -1.467454189589     1.889736985918    -1.026097701632    12.000000000000
           C         -1.697234189589     1.495894985918     0.410809298368    12.000000000000
           O         -0.443333189589     2.308324985918    -1.459352701632    15.994914619560
           C         -2.279094189589     0.082056985918     0.547765298368    12.000000000000
           H         -0.760366189589     1.594982985918     0.946691298368     1.007825032070
           H         -2.399846189589     2.214538985918     0.830979298368     1.007825032070
           C         -1.311740189589    -1.021032014082     0.111050298368    12.000000000000
           H         -2.560807189589    -0.074916014082     1.584723298368     1.007825032070
           H         -3.199725189589     0.012786985918    -0.029640701632     1.007825032070
           C          0.121692810411    -0.780075014082     0.588569298368    12.000000000000
           H         -1.325111189589    -1.096953014082    -0.974262701632     1.007825032070
           H         -1.656815189589    -1.983488014082     0.484066298368     1.007825032070
           C          1.089544810411    -1.876803014082     0.136463298368    12.000000000000
           H          0.457116810411     0.186739985918     0.221838298368     1.007825032070
           H          0.133587810411    -0.716471014082     1.675858298368     1.007825032070
           C          2.521807810411    -1.721619014082     0.660497298368    12.000000000000
           H          1.107786810411    -1.914931014082    -0.951611701632     1.007825032070
           H          0.703774810411    -2.838997014082     0.466731298368     1.007825032070
           C          3.265806810411    -0.497555014082     0.124071298368    12.000000000000
           H          3.082927810411    -2.613961014082     0.394380298368     1.007825032070
           H          2.505753810411    -1.687182014082     1.747915298368     1.007825032070
           H          3.283533810411    -0.496997014082    -0.962645701632     1.007825032070
           H          2.807572810411     0.430913985918     0.448017298368     1.007825032070
           H          4.294817810411    -0.490117014082     0.470591298368     1.007825032070

  Charge       = 0
  Multiplicity = 1
  Basis Set: 6-31G*
  Basis Set:

    Orbital Energies (a.u.)
    -----------------------

    Doubly Occupied:

       1A    -20.564047     2A    -11.327492     3A    -11.234820
       4A    -11.233861     5A    -11.222861     6A    -11.214503
       7A    -11.213464     8A    -11.212863     9A    -11.203638
      10A     -1.403996    11A     -1.105416    12A     -1.064822
      13A     -1.006380    14A     -0.942320    15A     -0.877821
      16A     -0.820320    17A     -0.787537    18A     -0.769344
      19A     -0.667622    20A     -0.658811    21A     -0.638374
      22A     -0.616144    23A     -0.604927    24A     -0.596546
      25A     -0.565306    26A     -0.547156    27A     -0.539168
      28A     -0.520324    29A     -0.513201    30A     -0.496770
      31A     -0.477625    32A     -0.475605    33A     -0.460106
      34A     -0.450490    35A     -0.441792    36A     -0.409983

  @DF-RHF Final Energy:  -387.11691926413744

   => Energetics <=

    Nuclear Repulsion Energy =            459.0993874519169822
    One-Electron Energy =               -1434.6615315821663899
    Two-Electron Energy =                 588.4452248661110616
    DFT Exchange-Correlation Energy =       0.0000000000000000
    Empirical Dispersion Energy =           0.0000000000000000
    PCM Polarization Energy =               0.0000000000000000
    EFP Energy =                            0.0000000000000000
    Total Energy =                       -387.1169192641383461

  Mulliken Charges: (a.u.)
   Center  Symbol    Alpha    Beta     Spin     Total
       1     H     0.43093  0.43093  0.00000  0.13814
       2     C     2.82937  2.82937  0.00000  0.34127
       3     C     3.21791  3.21791  0.00000 -0.43581
       4     O     4.23928  4.23928  0.00000 -0.47855
       5     C     3.16455  3.16455  0.00000 -0.32911
       6     H     0.39562  0.39562  0.00000  0.20876
       7     H     0.40494  0.40494  0.00000  0.19012
       8     C     3.15707  3.15707  0.00000 -0.31414
       9     H     0.41253  0.41253  0.00000  0.17493
      10     H     0.41750  0.41750  0.00000  0.16500
      11     C     3.16485  3.16485  0.00000 -0.32971
      12     H     0.42051  0.42051  0.00000  0.15897
      13     H     0.41721  0.41721  0.00000  0.16558
      14     C     3.15112  3.15112  0.00000 -0.30224
      15     H     0.40779  0.40779  0.00000  0.18442
      16     H     0.42492  0.42492  0.00000  0.15017
      17     C     3.15268  3.15268  0.00000 -0.30536
      18     H     0.42227  0.42227  0.00000  0.15546
      19     H     0.42390  0.42390  0.00000  0.15220
      20     C     3.24123  3.24123  0.00000 -0.48246
      21     H     0.42130  0.42130  0.00000  0.15740
      22     H     0.42444  0.42444  0.00000  0.15111
      23     H     0.42012  0.42012  0.00000  0.15975
      24     H     0.41775  0.41775  0.00000  0.16449
      25     H     0.42020  0.42020  0.00000  0.15960

   Total alpha = 36.00000, Total beta = 36.00000, Total charge =  0.00000
