  ==> Input File <==

--------------------------------------------------------------------------
set {
	reference rhf
	basis 6-31G*
}

set_num_threads( 4 )
memory 2 gb

molecule MOL {
0 1

H	 -3.420663	 1.227371	 -1.044276
O	 -3.452007	 0.283848	 -0.965577
C	 -3.181085	 -0.079926	 0.364119
C	 -1.765924	 0.277073	 0.805136
H	 -3.327791	 -1.152017	 0.410903
H	 -3.905698	 0.375695	 1.036898
C	 -0.863971	 0.728738	 -0.344210
H	 -1.817212	 1.060597	 1.561722
H	 -1.331586	 -0.591315	 1.297553
C	 0.546815	 1.106061	 0.112398
H	 -1.324304	 1.573139	 -0.847986
H	 -0.802918	 -0.070029	 -1.081528
C	 1.445508	 1.551443	 -1.044352
H	 0.478297	 1.897017	 0.855441
H	 1.004897	 0.254625	 0.614216
C	 2.895457	 1.855308	 -0.650055
H	 1.011590	 2.430092	 -1.519101
H	 1.450619	 0.770138	 -1.801552
C	 3.063229	 3.061586	 0.275769
H	 3.469317	 2.030183	 -1.556914
H	 3.332189	 0.976155	 -0.180418
H	 2.624187	 3.953807	 -0.162777
H	 4.114223	 3.266089	 0.455844
H	 2.593694	 2.901837	 1.240746

	symmetry c1
}
set optking {
	frozen_dihedral = ("
		7 4 3 2
	")
}

ee = optimize('scf')
oeprop('DIPOLE', 'QUADRUPOLE', 'MULLIKEN_CHARGES')
f=open( 'psi4out.xyz', 'w' )
f.write( "24  " )
f.write( str(ee) + "\n" )
f.write( MOL.save_string_xyz() )
f.close()
--------------------------------------------------------------------------

    Molecular point group: c1
  Charge       = 0
  Multiplicity = 1
  Basis Set: 6-31G*
  Basis Set:
  @DF-RHF Final Energy:  -349.23850611537767
    Total Energy =                       -349.2385061153776746
    Molecular point group: c1
  Basis Set: 6-31G*
  Basis Set:
  Basis Set: 6-31G*
  Basis Set:
  @DF-RHF Final Energy:  -349.23898301775256
    Total Energy =                       -349.2389830177527301
  Basis Set: 6-31G*
  Basis Set:
  Basis Set: 6-31G*
  Basis Set:
  @DF-RHF Final Energy:  -349.24001814280183
    Total Energy =                       -349.2400181428015458
  Basis Set: 6-31G*
  Basis Set:
  Basis Set: 6-31G*
  Basis Set:
  @DF-RHF Final Energy:  -349.24004510303297
    Total Energy =                       -349.2400451030331396
  Basis Set: 6-31G*
  Basis Set:
  Basis Set: 6-31G*
  Basis Set:
  @DF-RHF Final Energy:  -349.24005001434534
    Total Energy =                       -349.2400500143453428
  Basis Set: 6-31G*
  Basis Set:
  Basis Set: 6-31G*
  Basis Set:
  @DF-RHF Final Energy:  -349.24005652141358
    Total Energy =                       -349.2400565214136350
  Basis Set: 6-31G*
  Basis Set:
  Charge       = 0
  Multiplicity = 1
  Basis Set: 6-31G*
  Basis Set:

    Orbital Energies (a.u.)
    -----------------------

    Doubly Occupied:

       1A    -20.553565     2A    -11.267950     3A    -11.216052
       4A    -11.214392     5A    -11.213622     6A    -11.212561
       7A    -11.211965     8A    -11.207749     9A     -1.359567
      10A     -1.088150    11A     -1.045720    12A     -0.983828
      13A     -0.917288    14A     -0.852386    15A     -0.794434
      16A     -0.776855    17A     -0.687654    18A     -0.648807
      19A     -0.625675    20A     -0.612852    21A     -0.600170
      22A     -0.586309    23A     -0.555347    24A     -0.544063
      25A     -0.514217    26A     -0.509736    27A     -0.497056
      28A     -0.478544    29A     -0.460887    30A     -0.455639
      31A     -0.453081    32A     -0.449972    33A     -0.421341

  @DF-RHF Final Energy:  -349.24005670614832

   => Energetics <=

    Nuclear Repulsion Energy =            385.1935230955674001
    One-Electron Energy =               -1236.8322986888802006
    Two-Electron Energy =                 502.3987188871645913
    DFT Exchange-Correlation Energy =       0.0000000000000000
    Empirical Dispersion Energy =           0.0000000000000000
    PCM Polarization Energy =               0.0000000000000000
    EFP Energy =                            0.0000000000000000
    Total Energy =                       -349.2400567061482661
    Molecular point group: c1
  Basis Set: 6-31G*
  Basis Set:

  -Total Gradient:
     Atom            X                  Y                   Z
    ------   -----------------  -----------------  -----------------
       1       -0.000005466144     0.000002089102    -0.000021082870
       2        0.001030299594    -0.002553778340    -0.000840761825
       3       -0.001754277287     0.004636488221     0.001193791630
       4        0.001557353164    -0.004536800949    -0.000676104520
       5        0.000044152045    -0.000005629794     0.000051190886
       6        0.000028860462    -0.000006139674     0.000051080988
       7       -0.000845727069     0.002523200687     0.000235208609
       8       -0.000031321165    -0.000012521868     0.000018990655
       9       -0.000031942552    -0.000018484079    -0.000003443119
      10        0.000005236520     0.000009089010     0.000000708929
      11        0.000013154729    -0.000000758725    -0.000002954923
      12        0.000009682360    -0.000012850099    -0.000010428517
      13       -0.000007525764    -0.000035197114    -0.000011765213
      14        0.000023910236     0.000021346397     0.000027369236
      15        0.000001207971     0.000002802150    -0.000011194834
      16        0.000003825153     0.000020879369    -0.000023979253
      17        0.000002330381    -0.000010054976    -0.000011038718
      18       -0.000011285773    -0.000011638055     0.000011144179
      19       -0.000011954675    -0.000010768701     0.000010019033
      20       -0.000006232754     0.000010218505     0.000002418183
      21        0.000010389366     0.000000826359    -0.000013478818
      22        0.000010520013    -0.000006088685    -0.000003353911
      23       -0.000001756612    -0.000003944122     0.000012734451
      24       -0.000033432180    -0.000002284617     0.000014929741

  **** Optimization is complete! (in 7 steps) ****
    Final optimized geometry and variables:
    Molecular point group: c1

    Geometry (in Angstrom), charge = 0, multiplicity = 1:

    H           -3.410867872212    -0.000281760746    -0.897731223475
    O           -3.307945030140    -0.932385910631    -0.768522890942
    C           -2.968285362641    -1.194264403284     0.569409065493
    C           -1.542665234637    -0.753828041215     0.979840717333
    H           -3.058322210522    -2.267753353700     0.667371735489
    H           -3.703271471653    -0.753935053698     1.238546341178
    C           -0.638791062918    -0.323493468597    -0.178735779276
    H           -1.606879672412     0.071189518519     1.686762661455
    H           -1.069468179388    -1.569180862701     1.520371217503
    C            0.775463483172     0.030136920103     0.286855850154
    H           -1.070916313156     0.537727977544    -0.682322591555
    H           -0.593252166048    -1.113735357423    -0.921985864439
    C            1.680443606108     0.485678550903    -0.861067754759
    H            0.717223117348     0.807135934652     1.045302557058
    H            1.222162196374    -0.836790276626     0.771624941039
    C            3.134449615565     0.760519563755    -0.460513911763
    H            1.260198707894     1.380537747279    -1.317896974052
    H            1.674019500310    -0.279961090392    -1.633980304403
    C            3.318469080617     1.941493304298     0.494367991814
    H            3.710423976400     0.949445880454    -1.363147063136
    H            3.559181508949    -0.135581292519    -0.012526950840
    H            2.893531546370     2.850535917377     0.076894959860
    H            4.372053977552     2.126030338442     0.680693902976
    H            2.844900811938     1.765510291856     1.454511233893

  Mulliken Charges: (a.u.)
   Center  Symbol    Alpha    Beta     Spin     Total
       1     H     0.28211  0.28211  0.00000  0.43577
       2     O     4.36826  4.36826  0.00000 -0.73652
       3     C     2.99368  2.99368  0.00000  0.01265
       4     C     3.18380  3.18380  0.00000 -0.36760
       5     H     0.41478  0.41478  0.00000  0.17045
       6     H     0.42802  0.42802  0.00000  0.14396
       7     C     3.14381  3.14381  0.00000 -0.28763
       8     H     0.42293  0.42293  0.00000  0.15415
       9     H     0.41779  0.41779  0.00000  0.16443
      10     C     3.15503  3.15503  0.00000 -0.31006
      11     H     0.43070  0.43070  0.00000  0.13861
      12     H     0.41294  0.41294  0.00000  0.17412
      13     C     3.15225  3.15225  0.00000 -0.30449
      14     H     0.42313  0.42313  0.00000  0.15373
      15     H     0.42420  0.42420  0.00000  0.15160
      16     C     3.15227  3.15227  0.00000 -0.30454
      17     H     0.42514  0.42514  0.00000  0.14972
      18     H     0.42120  0.42120  0.00000  0.15760
      19     C     3.24109  3.24109  0.00000 -0.48217
      20     H     0.42107  0.42107  0.00000  0.15787
      21     H     0.42340  0.42340  0.00000  0.15321
      22     H     0.42274  0.42274  0.00000  0.15451
      23     H     0.41940  0.41940  0.00000  0.16120
      24     H     0.42029  0.42029  0.00000  0.15943

   Total alpha = 33.00000, Total beta = 33.00000, Total charge =  0.00000
