  ==> Input File <==

--------------------------------------------------------------------------
set {
	reference rhf
	basis 6-31G*
}

set_num_threads( 4 )
memory 2 gb

molecule MOL {
0 1

H	 -3.686706	 -0.489520	 -1.459772
O	 -3.452007	 0.283848	 -0.965577
C	 -3.181085	 -0.079926	 0.364119
C	 -1.765924	 0.277073	 0.805136
H	 -3.327791	 -1.152017	 0.410903
H	 -3.905698	 0.375695	 1.036898
C	 -0.677594	 -0.417312	 -0.014550
H	 -1.637766	 1.358238	 0.744969
H	 -1.659588	 0.017670	 1.857098
C	 0.738335	 -0.034840	 0.421385
H	 -0.814977	 -0.178223	 -1.064632
H	 -0.802730	 -1.495410	 0.071702
C	 1.822265	 -0.738362	 -0.399735
H	 0.853533	 1.043532	 0.342250
H	 0.871597	 -0.279636	 1.474438
C	 3.258060	 -0.455774	 0.057203
H	 1.718003	 -0.459167	 -1.447053
H	 1.651028	 -1.811884	 -0.354513
C	 3.709143	 0.994797	 -0.123830
H	 3.930637	 -1.101717	 -0.501982
H	 3.365259	 -0.739518	 1.102287
H	 3.601178	 1.310569	 -1.158127
H	 4.753787	 1.110486	 0.148516
H	 3.135362	 1.678896	 0.492569

	symmetry c1
}
set optking {
	frozen_dihedral = ("
		1 2 3 5
	")
}

ee = optimize('scf')
oeprop('DIPOLE', 'QUADRUPOLE', 'MULLIKEN_CHARGES')
f=open( 'psi4out.xyz', 'w' )
f.write( "24  " )
f.write( str(ee) + "\n" )
f.write( MOL.save_string_xyz() )
f.close()
--------------------------------------------------------------------------

    Molecular point group: c1
  Charge       = 0
  Multiplicity = 1
  Basis Set: 6-31G*
  Basis Set:
  @DF-RHF Final Energy:  -349.24453577898572
    Total Energy =                       -349.2445357789860054
    Molecular point group: c1
  Basis Set: 6-31G*
  Basis Set:
  Basis Set: 6-31G*
  Basis Set:
  @DF-RHF Final Energy:  -349.24565801547845
    Total Energy =                       -349.2456580154783410
  Basis Set: 6-31G*
  Basis Set:
  Basis Set: 6-31G*
  Basis Set:
  @DF-RHF Final Energy:  -349.24602228834499
    Total Energy =                       -349.2460222883448182
  Basis Set: 6-31G*
  Basis Set:
  Basis Set: 6-31G*
  Basis Set:
  @DF-RHF Final Energy:  -349.24602582234570
    Total Energy =                       -349.2460258223460414
  Basis Set: 6-31G*
  Basis Set:
  Basis Set: 6-31G*
  Basis Set:
  @DF-RHF Final Energy:  -349.24602883194814
    Total Energy =                       -349.2460288319482515
  Basis Set: 6-31G*
  Basis Set:
  Charge       = 0
  Multiplicity = 1
  Basis Set: 6-31G*
  Basis Set:

    Orbital Energies (a.u.)
    -----------------------

    Doubly Occupied:

       1A    -20.551738     2A    -11.268129     3A    -11.213366
       4A    -11.211508     5A    -11.211336     6A    -11.210779
       7A    -11.210255     8A    -11.206093     9A     -1.357862
      10A     -1.087293    11A     -1.047109    12A     -0.985175
      13A     -0.914488    14A     -0.846705    15A     -0.790441
      16A     -0.775381    17A     -0.704576    18A     -0.642654
      19A     -0.630946    20A     -0.608002    21A     -0.595269
      22A     -0.577041    23A     -0.559185    24A     -0.536843
      25A     -0.512420    26A     -0.508034    27A     -0.496617
      28A     -0.471812    29A     -0.465889    30A     -0.460027
      31A     -0.454578    32A     -0.450124    33A     -0.417409

  @DF-RHF Final Energy:  -349.24602899155644

   => Energetics <=

    Nuclear Repulsion Energy =            384.5166385494805468
    One-Electron Energy =               -1235.5671639417091683
    Two-Electron Energy =                 501.8044964006716100
    DFT Exchange-Correlation Energy =       0.0000000000000000
    Empirical Dispersion Energy =           0.0000000000000000
    PCM Polarization Energy =               0.0000000000000000
    EFP Energy =                            0.0000000000000000
    Total Energy =                       -349.2460289915569547
    Molecular point group: c1
  Basis Set: 6-31G*
  Basis Set:

  -Total Gradient:
     Atom            X                  Y                   Z
    ------   -----------------  -----------------  -----------------
       1        0.000149118925    -0.000024481783    -0.000035814896
       2       -0.000227332682     0.000025993804     0.000051173262
       3        0.000201237763    -0.000031974612    -0.000066185085
       4       -0.000004984271     0.000001556752     0.000029757787
       5       -0.000137384097     0.000023892296     0.000022530812
       6        0.000008088505    -0.000002710937     0.000009651905
       7       -0.000006013791    -0.000008455345    -0.000003125384
       8       -0.000009166348     0.000005441655    -0.000001388363
       9        0.000013463160     0.000009691951    -0.000008146693
      10        0.000002457483    -0.000008807742     0.000004393308
      11        0.000001995454     0.000007206862     0.000001482902
      12        0.000002567242     0.000005738957    -0.000005613482
      13        0.000004023669    -0.000000555144     0.000002578841
      14       -0.000000346949    -0.000004704288    -0.000003408364
      15       -0.000001525038     0.000002579547     0.000004214673
      16       -0.000000177266     0.000000329281    -0.000000462915
      17       -0.000002404342     0.000001422736     0.000001228286
      18        0.000004681024    -0.000000941581    -0.000001718628
      19        0.000001967294    -0.000000647974    -0.000001255250
      20        0.000001112656    -0.000001767866     0.000001226441
      21       -0.000002361486     0.000002079410     0.000000175890
      22       -0.000000987246     0.000001018051    -0.000000744670
      23        0.000000287507    -0.000000593432    -0.000001245732
      24        0.000001682839    -0.000001310599     0.000000695354

  **** Optimization is complete! (in 6 steps) ****
    Final optimized geometry and variables:
    Molecular point group: c1

    Geometry (in Angstrom), charge = 0, multiplicity = 1:

    H           -3.669341172439    -0.379046915601    -1.496816295239
    O           -3.428148177534     0.349339489762    -0.946325101460
    C           -3.179344098458    -0.091209042366     0.369206329855
    C           -1.768631441125     0.279513794262     0.801945960466
    H           -3.322313028014    -1.166748949254     0.446743583055
    H           -3.902617480030     0.376961913952     1.029762562746
    C           -0.677756780581    -0.420417867533    -0.008704123939
    H           -1.657631355895     1.357184542980     0.713027846305
    H           -1.658860821562     0.037538987211     1.858002192194
    C            0.736870826459    -0.029940805053     0.424241832174
    H           -0.813007207848    -0.183370121157    -1.059873949078
    H           -0.796182549650    -1.499778852573     0.085576969326
    C            1.824145458755    -0.731678934357    -0.393909599248
    H            0.845009708895     1.048225558100     0.339283143951
    H            0.871426124513    -0.269202620975     1.478383051253
    C            3.258705919332    -0.437598609300     0.059710674839
    H            1.717250550336    -0.458779647560    -1.442644683303
    H            1.660035354606    -1.806303109844    -0.342393957777
    C            3.700648364806     1.014438137376    -0.131545194143
    H            3.934730843991    -1.083360847262    -0.495578177263
    H            3.368252031817    -0.713573375022     1.106647797129
    H            3.589928596975     1.322539186494    -1.167807658766
    H            4.744789151976     1.138270478802     0.139240542655
    H            3.122940157575     1.699049983372     0.480402567281

  Mulliken Charges: (a.u.)
   Center  Symbol    Alpha    Beta     Spin     Total
       1     H     0.27910  0.27910  0.00000  0.44180
       2     O     4.37212  4.37212  0.00000 -0.74423
       3     C     2.99980  2.99980  0.00000  0.00040
       4     C     3.15693  3.15693  0.00000 -0.31385
       5     H     0.43229  0.43229  0.00000  0.13541
       6     H     0.42075  0.42075  0.00000  0.15850
       7     C     3.15625  3.15625  0.00000 -0.31251
       8     H     0.41510  0.41510  0.00000  0.16980
       9     H     0.42571  0.42571  0.00000  0.14859
      10     C     3.15336  3.15336  0.00000 -0.30672
      11     H     0.41368  0.41368  0.00000  0.17264
      12     H     0.42907  0.42907  0.00000  0.14187
      13     C     3.15220  3.15220  0.00000 -0.30441
      14     H     0.42020  0.42020  0.00000  0.15961
      15     H     0.42559  0.42559  0.00000  0.14882
      16     C     3.15219  3.15219  0.00000 -0.30437
      17     H     0.42393  0.42393  0.00000  0.15214
      18     H     0.42360  0.42360  0.00000  0.15280
      19     C     3.24107  3.24107  0.00000 -0.48214
      20     H     0.42160  0.42160  0.00000  0.15681
      21     H     0.42386  0.42386  0.00000  0.15229
      22     H     0.42207  0.42207  0.00000  0.15586
      23     H     0.41979  0.41979  0.00000  0.16042
      24     H     0.41976  0.41976  0.00000  0.16049

   Total alpha = 33.00000, Total beta = 33.00000, Total charge = -0.00000
