  ==> Input File <==

--------------------------------------------------------------------------
set {
	reference rhf
	basis 6-31G*
}

set_num_threads( 4 )
memory 2 gb

molecule MOL {
0 1

H	 -3.859045	 0.973546	 0.256203
O	 -3.004959	 1.289074	 -0.002165
C	 -2.026376	 0.340750	 0.341611
C	 -0.673256	 0.843270	 -0.132153
H	 -2.005435	 0.191207	 1.419635
H	 -2.247894	 -0.621207	 -0.119066
C	 0.486613	 -0.083066	 0.235839
H	 -0.715586	 0.970948	 -1.210718
H	 -0.508072	 1.829858	 0.297090
C	 1.840406	 0.433480	 -0.254303
H	 0.300215	 -1.068318	 -0.178947
H	 0.519509	 -0.203625	 1.318070
C	 3.000220	 -0.489290	 0.118523
H	 1.809207	 0.553576	 -1.335192
H	 2.021860	 1.424500	 0.157276
H	 2.864959	 -1.479103	 -0.307933
H	 3.946603	 -0.099227	 -0.243630
H	 3.080049	 -0.602997	 1.196117

	symmetry c1
}
set optking {
	frozen_dihedral = ("
		2 3 4 8
	")
}

ee = optimize('scf')
oeprop('DIPOLE', 'QUADRUPOLE', 'MULLIKEN_CHARGES')
f=open( 'psi4out.xyz', 'w' )
f.write( "18  " )
f.write( str(ee) + "\n" )
f.write( MOL.save_string_xyz() )
f.close()
--------------------------------------------------------------------------

    Molecular point group: c1
  Charge       = 0
  Multiplicity = 1
  Basis Set: 6-31G*
  Basis Set:
  @DF-RHF Final Energy:  -271.17963806603632
    Total Energy =                       -271.1796380660362047
    Molecular point group: c1
  Basis Set: 6-31G*
  Basis Set:
  Basis Set: 6-31G*
  Basis Set:
  @DF-RHF Final Energy:  -271.17971666565234
    Total Energy =                       -271.1797166656525633
  Basis Set: 6-31G*
  Basis Set:
  Basis Set: 6-31G*
  Basis Set:
  @DF-RHF Final Energy:  -271.17972857947234
    Total Energy =                       -271.1797285794722825
  Basis Set: 6-31G*
  Basis Set:
  Charge       = 0
  Multiplicity = 1
  Basis Set: 6-31G*
  Basis Set:

    Orbital Energies (a.u.)
    -----------------------

    Doubly Occupied:

       1A    -20.551957     2A    -11.267247     3A    -11.216379
       4A    -11.215590     5A    -11.210865     6A    -11.208849
       7A     -1.358785     8A     -1.080535     9A     -1.011254
      10A     -0.913255    11A     -0.819841    12A     -0.792543
      13A     -0.692470    14A     -0.662632    15A     -0.621236
      16A     -0.587671    17A     -0.571423    18A     -0.555639
      19A     -0.531432    20A     -0.493332    21A     -0.490330
      22A     -0.469045    23A     -0.464426    24A     -0.450982
      25A     -0.434162

  @DF-RHF Final Energy:  -271.17972886599591

   => Energetics <=

    Nuclear Repulsion Energy =            245.2571378065383954
    One-Electron Energy =                -853.5299722246686542
    Two-Electron Energy =                 337.0931055521343751
    DFT Exchange-Correlation Energy =       0.0000000000000000
    Empirical Dispersion Energy =           0.0000000000000000
    PCM Polarization Energy =               0.0000000000000000
    EFP Energy =                            0.0000000000000000
    Total Energy =                       -271.1797288659959122
    Molecular point group: c1
  Basis Set: 6-31G*
  Basis Set:

  -Total Gradient:
     Atom            X                  Y                   Z
    ------   -----------------  -----------------  -----------------
       1        0.000008694907    -0.000006610756    -0.000002147781
       2        0.000055064578     0.000194042715     0.000322615601
       3       -0.000019147242    -0.000355543045    -0.000439874167
       4       -0.000173695633     0.000608193248     0.000146166011
       5        0.000002697806    -0.000004410490     0.000003203488
       6       -0.000001777322     0.000002940075     0.000006062901
       7       -0.000024264783     0.000038717493     0.000031566013
       8        0.000154388966    -0.000458679409    -0.000055948106
       9        0.000011898696    -0.000027620512     0.000001361335
      10        0.000026621156     0.000027496614    -0.000000749328
      11       -0.000018953618    -0.000025215231    -0.000000792543
      12       -0.000011226204     0.000007022039    -0.000004452715
      13       -0.000009599211    -0.000005693456    -0.000007799142
      14       -0.000004455603     0.000005636664     0.000001606238
      15        0.000015093337     0.000000485419     0.000007298658
      16        0.000001002606    -0.000007037155    -0.000000852939
      17       -0.000012086115     0.000003047718    -0.000007083761
      18       -0.000000256324     0.000003228068    -0.000000179764

  **** Optimization is complete! (in 4 steps) ****
    Final optimized geometry and variables:
    Molecular point group: c1

    Geometry (in Angstrom), charge = 0, multiplicity = 1:

    H           -3.723421387233     0.576345398361     0.217673040497
    O           -2.872973303210     0.882055515258    -0.063742013838
    C           -1.892674083286    -0.061001488772     0.285923020983
    C           -0.546597397631     0.454370714785    -0.191841400808
    H           -1.872915605223    -0.209297088590     1.364827293010
    H           -2.106776194763    -1.025721842860    -0.171897944511
    C            0.610896174747    -0.472592461739     0.181856330929
    H           -0.589873764488     0.578961799401    -1.270400990731
    H           -0.388307609063     1.441644963976     0.232937151178
    C            1.967865678243     0.037430699719    -0.307040738545
    H            0.432576139176    -1.464037116027    -0.232215875333
    H            0.644723381831    -0.595658497141     1.263301012197
    C            3.123574387443    -0.890457600691     0.065033609574
    H            1.936972959820     0.160846450597    -1.387257159883
    H            2.150326743721     1.026230385578     0.107767926816
    H            2.986659308181    -1.879181188899    -0.363951910565
    H            4.071115427975    -0.502300903055    -0.295520759443
    H            3.202338712013    -1.006550812397     1.142361746581

  Mulliken Charges: (a.u.)
   Center  Symbol    Alpha    Beta     Spin     Total
       1     H     0.28117  0.28117  0.00000  0.43766
       2     O     4.37178  4.37178  0.00000 -0.74357
       3     C     2.98978  2.98978  0.00000  0.02044
       4     C     3.15924  3.15924  0.00000 -0.31848
       5     H     0.43285  0.43285  0.00000  0.13429
       6     H     0.43272  0.43272  0.00000  0.13455
       7     C     3.15896  3.15896  0.00000 -0.31793
       8     H     0.41522  0.41522  0.00000  0.16957
       9     H     0.41430  0.41430  0.00000  0.17141
      10     C     3.15075  3.15075  0.00000 -0.30151
      11     H     0.42405  0.42405  0.00000  0.15190
      12     H     0.42371  0.42371  0.00000  0.15258
      13     C     3.23948  3.23948  0.00000 -0.47896
      14     H     0.42171  0.42171  0.00000  0.15658
      15     H     0.42159  0.42159  0.00000  0.15681
      16     H     0.42195  0.42195  0.00000  0.15609
      17     H     0.41882  0.41882  0.00000  0.16236
      18     H     0.42190  0.42190  0.00000  0.15619

   Total alpha = 25.00000, Total beta = 25.00000, Total charge =  0.00000
