  ==> Input File <==

--------------------------------------------------------------------------
set {
	reference rhf
	basis 6-31G*
}

set_num_threads( 4 )
memory 2 gb

molecule MOL {
0 1

H	 -1.718180	 2.116119	 -0.779392
C	 -1.187876	 2.280616	 0.150697
C	 0.142680	 1.537454	 0.160132
H	 -1.827880	 1.941592	 0.956140
H	 -1.025305	 3.346941	 0.268159
C	 -0.000005	 0.033229	 -0.000001
H	 0.683427	 1.725944	 1.085583
H	 0.792231	 1.898983	 -0.634711
C	 1.290528	 -0.768786	 0.000276
O	 -1.065946	 -0.489031	 -0.119163
C	 2.545731	 0.095645	 -0.000061
H	 1.275672	 -1.427874	 -0.865626
H	 1.275566	 -1.427086	 0.866768
H	 2.577157	 0.734767	 -0.874036
H	 3.433520	 -0.528139	 0.000137
H	 2.577172	 0.735117	 0.873581

	symmetry c1
}
set optking {
	frozen_dihedral = ("
		3 6 9 12
	")
}

ee = optimize('scf')
oeprop('DIPOLE', 'QUADRUPOLE', 'MULLIKEN_CHARGES')
f=open( 'psi4out.xyz', 'w' )
f.write( "16  " )
f.write( str(ee) + "\n" )
f.write( MOL.save_string_xyz() )
f.close()
--------------------------------------------------------------------------

    Molecular point group: c1
  Charge       = 0
  Multiplicity = 1
  Basis Set: 6-31G*
  Basis Set:
  @DF-RHF Final Energy:  -270.02563298342096
    Total Energy =                       -270.0256329834209055
    Molecular point group: c1
  Basis Set: 6-31G*
  Basis Set:
  Basis Set: 6-31G*
  Basis Set:
  @DF-RHF Final Energy:  -270.02715957290150
    Total Energy =                       -270.0271595729014962
  Basis Set: 6-31G*
  Basis Set:
  Basis Set: 6-31G*
  Basis Set:
  @DF-RHF Final Energy:  -270.02857350609679
    Total Energy =                       -270.0285735060966203
  Basis Set: 6-31G*
  Basis Set:
  Basis Set: 6-31G*
  Basis Set:
  @DF-RHF Final Energy:  -270.02871110505714
    Total Energy =                       -270.0287111050571980
  Basis Set: 6-31G*
  Basis Set:
  Basis Set: 6-31G*
  Basis Set:
  @DF-RHF Final Energy:  -270.02862763408314
    Total Energy =                       -270.0286276340831364
  Basis Set: 6-31G*
  Basis Set:
  Basis Set: 6-31G*
  Basis Set:
  @DF-RHF Final Energy:  -270.02878915089605
    Total Energy =                       -270.0287891508958751
  Basis Set: 6-31G*
  Basis Set:
  Charge       = 0
  Multiplicity = 1
  Basis Set: 6-31G*
  Basis Set:

    Orbital Energies (a.u.)
    -----------------------

    Doubly Occupied:

       1A    -20.545931     2A    -11.324214     3A    -11.233721
       4A    -11.233608     5A    -11.227525     6A    -11.212574
       7A     -1.393306     8A     -1.071538     9A     -1.035104
      10A     -0.906578    11A     -0.867346    12A     -0.721589
      13A     -0.653643    14A     -0.648601    15A     -0.628980
      16A     -0.609311    17A     -0.552019    18A     -0.541188
      19A     -0.536499    20A     -0.510445    21A     -0.506221
      22A     -0.503427    23A     -0.470176    24A     -0.396003

  @DF-RHF Final Energy:  -270.02878953907282

   => Energetics <=

    Nuclear Repulsion Energy =            240.3779496488507164
    One-Electron Energy =                -842.1543841151186598
    Two-Electron Energy =                 331.7476449271950969
    DFT Exchange-Correlation Energy =       0.0000000000000000
    Empirical Dispersion Energy =           0.0000000000000000
    PCM Polarization Energy =               0.0000000000000000
    EFP Energy =                            0.0000000000000000
    Total Energy =                       -270.0287895390728181
    Molecular point group: c1
  Basis Set: 6-31G*
  Basis Set:

  -Total Gradient:
     Atom            X                  Y                   Z
    ------   -----------------  -----------------  -----------------
       1       -0.000006533232     0.000000139120    -0.000016878054
       2       -0.000011121479    -0.000015453735     0.000076754552
       3        0.000036466065     0.000053288244    -0.000588802001
       4       -0.000001964516     0.000004780472    -0.000011066631
       5        0.000004059161    -0.000006658468    -0.000004587624
       6        0.000016888305    -0.000007949172     0.000584434393
       7        0.000028200742    -0.000049389627     0.000035692327
       8       -0.000029548765     0.000026279660     0.000042101087
       9       -0.000259051802    -0.000400224032     0.000159868157
      10       -0.000017341306     0.000028557804     0.000010857355
      11        0.000006183806    -0.000006105270    -0.000013334643
      12        0.000215004793     0.000367843662    -0.000295906072
      13        0.000003282488    -0.000006273476    -0.000005476299
      14        0.000028785006    -0.000025463859     0.000009705810
      15        0.000005361408     0.000001376145     0.000007704852
      16       -0.000018670671     0.000035252533     0.000008932793

  **** Optimization is complete! (in 7 steps) ****
    Final optimized geometry and variables:
    Molecular point group: c1

    Geometry (in Angstrom), charge = 0, multiplicity = 1:

    H           -2.095913435881     1.607361418941    -0.798294281796
    C           -1.563394969156     1.803299808229     0.124221298848
    C           -0.195708367580     1.131122107052     0.119332837860
    H           -2.174895592614     1.434754787475     0.938601192897
    H           -1.454215550749     2.877117128781     0.235842115678
    C           -0.270667520188    -0.376785007951    -0.033433250428
    H            0.344647684770     1.352379513707     1.037461157984
    H            0.423618788045     1.524875578415    -0.683312097821
    C            1.013433687952    -1.202592061447    -0.038358098150
    O           -1.318255481617    -0.938577948894    -0.143659778138
    C            2.349836095415    -0.460476469821    -0.027702463861
    H            0.951224074444    -1.846381351736    -0.909979260220
    H            0.947231249820    -1.862496384192     0.822403320153
    H            2.470601430282     0.171215799102    -0.901527489410
    H            3.165265980131    -1.175679477223    -0.029949401488
    H            2.466363232399     0.161293745294     0.853438073206

  Mulliken Charges: (a.u.)
   Center  Symbol    Alpha    Beta     Spin     Total
       1     H     0.41030  0.41030  0.00000  0.17940
       2     C     3.23384  3.23384  0.00000 -0.46767
       3     C     3.21081  3.21081  0.00000 -0.42163
       4     H     0.41048  0.41048  0.00000  0.17904
       5     H     0.42061  0.42061  0.00000  0.15877
       6     C     2.73849  2.73849  0.00000  0.52302
       7     H     0.40832  0.40832  0.00000  0.18335
       8     H     0.40757  0.40757  0.00000  0.18487
       9     C     3.19931  3.19931  0.00000 -0.39861
      10     O     4.26596  4.26596  0.00000 -0.53192
      11     C     3.24957  3.24957  0.00000 -0.49914
      12     H     0.39910  0.39910  0.00000  0.20181
      13     H     0.40027  0.40027  0.00000  0.19946
      14     H     0.41684  0.41684  0.00000  0.16633
      15     H     0.41145  0.41145  0.00000  0.17710
      16     H     0.41709  0.41709  0.00000  0.16583

   Total alpha = 24.00000, Total beta = 24.00000, Total charge =  0.00000
