  ==> Input File <==

--------------------------------------------------------------------------
set {
	reference rhf
	basis 6-31G*
}

set_num_threads( 4 )
memory 2 gb

molecule MOL {
0 1

H	 2.701934	 -0.978852	 0.177891
N	 2.332695	 -0.069570	 0.000000
C	 0.936681	 -0.007078	 0.000000
H	 2.773017	 0.609074	 0.583384
C	 0.227108	 -0.002120	 -1.198267
C	 0.227108	 -0.002120	 1.198267
H	 0.761569	 -0.014657	 -2.132680
C	 -1.156334	 0.010459	 -1.192360
H	 0.761569	 -0.014657	 2.132680
C	 -1.156334	 0.010459	 1.192360
H	 -1.684791	 0.014915	 -2.129421
C	 -1.862085	 0.017996	 0.000000
H	 -1.684791	 0.014915	 2.129421
H	 -2.936703	 0.028387	 0.000000

	symmetry c1
}
set optking {
	frozen_dihedral = ("
		1 2 3 5
	")
}

ee = optimize('scf')
oeprop('DIPOLE', 'QUADRUPOLE', 'MULLIKEN_CHARGES')
f=open( 'psi4out.xyz', 'w' )
f.write( "14  " )
f.write( str(ee) + "\n" )
f.write( MOL.save_string_xyz() )
f.close()
--------------------------------------------------------------------------

    Molecular point group: c1
  Charge       = 0
  Multiplicity = 1
  Basis Set: 6-31G*
  Basis Set:
  @DF-RHF Final Energy:  -285.72284421704097
    Total Energy =                       -285.7228442170410858
    Molecular point group: c1
  Basis Set: 6-31G*
  Basis Set:
  Basis Set: 6-31G*
  Basis Set:
  @DF-RHF Final Energy:  -285.72477125128495
    Total Energy =                       -285.7247712512849489
  Basis Set: 6-31G*
  Basis Set:
  Basis Set: 6-31G*
  Basis Set:
  @DF-RHF Final Energy:  -285.72509118532486
    Total Energy =                       -285.7250911853249136
  Basis Set: 6-31G*
  Basis Set:
  Basis Set: 6-31G*
  Basis Set:
  @DF-RHF Final Energy:  -285.72511481685524
    Total Energy =                       -285.7251148168552390
  Basis Set: 6-31G*
  Basis Set:
  Charge       = 0
  Multiplicity = 1
  Basis Set: 6-31G*
  Basis Set:

    Orbital Energies (a.u.)
    -----------------------

    Doubly Occupied:

       1A    -15.548855     2A    -11.260284     3A    -11.229869
       4A    -11.227995     5A    -11.225422     6A    -11.224751
       7A    -11.220191     8A     -1.207030     9A     -1.126536
      10A     -1.011416    11A     -0.985698    12A     -0.826655
      13A     -0.806540    14A     -0.700984    15A     -0.661864
      16A     -0.645593    17A     -0.621885    18A     -0.589681
      19A     -0.582108    20A     -0.506066    21A     -0.496636
      22A     -0.490834    23A     -0.414211    24A     -0.331057
      25A     -0.319089

  @DF-RHF Final Energy:  -285.72511738553499

   => Energetics <=

    Nuclear Repulsion Energy =            272.3791713668572356
    One-Electron Energy =                -925.6860753221942559
    Two-Electron Energy =                 367.5817865698016931
    DFT Exchange-Correlation Energy =       0.0000000000000000
    Empirical Dispersion Energy =           0.0000000000000000
    PCM Polarization Energy =               0.0000000000000000
    EFP Energy =                            0.0000000000000000
    Total Energy =                       -285.7251173855353272
    Molecular point group: c1
  Basis Set: 6-31G*
  Basis Set:

  -Total Gradient:
     Atom            X                  Y                   Z
    ------   -----------------  -----------------  -----------------
       1        0.000093951566     0.000338104707     0.002212292427
       2       -0.000072980589     0.000341125069    -0.002818312442
       3       -0.000065488763    -0.002291459194     0.000352695594
       4       -0.000020838712    -0.000018588432     0.000044852856
       5        0.000193514182     0.001662673504     0.000061784960
       6       -0.000088286217    -0.000038729120     0.000106926750
       7        0.000008092823     0.000009961720     0.000000602748
       8       -0.000120776964    -0.000056918800     0.000102624664
       9       -0.000004457921     0.000003376204    -0.000019738053
      10        0.000108196016    -0.000011313639     0.000051822444
      11        0.000013681531     0.000008314411     0.000007427212
      12       -0.000009431717     0.000066408701    -0.000124568920
      13       -0.000029881225    -0.000000892248    -0.000007910822
      14       -0.000005294010    -0.000012062883     0.000029500584

  **** Optimization is complete! (in 5 steps) ****
    Final optimized geometry and variables:
    Molecular point group: c1

    Geometry (in Angstrom), charge = 0, multiplicity = 1:

    H            2.721586308658    -0.941909792789     0.092094691411
    N            2.357856654182    -0.018492148369    -0.050969189936
    C            0.928093646728    -0.016981613508    -0.000655227748
    H            2.738890090623     0.556277352035     0.675393626450
    C            0.225175762833    -0.007311217247    -1.197011424785
    C            0.222024350971     0.006877022591     1.196076743090
    H            0.777224948920    -0.002982448380    -2.118779936464
    C           -1.160248554161     0.002982790374    -1.197656412688
    H            0.758628723205     0.004895656511     2.129744036199
    C           -1.163166196693     0.033372959815     1.195651315459
    H           -1.692337003973     0.006132014527    -2.132418369912
    C           -1.859810418642     0.026124366843    -0.001855687231
    H           -1.696334677107     0.055068390508     2.129610537088
    H           -2.934986383969     0.042882208797    -0.002560328412

  Mulliken Charges: (a.u.)
   Center  Symbol    Alpha    Beta     Spin     Total
       1     H     0.32390  0.32390  0.00000  0.35219
       2     N     3.93687  3.93687  0.00000 -0.87374
       3     C     2.90133  2.90133  0.00000  0.19734
       4     H     0.32648  0.32648  0.00000  0.34703
       5     C     3.09972  3.09972  0.00000 -0.19944
       6     C     3.11317  3.11317  0.00000 -0.22633
       7     H     0.39353  0.39353  0.00000  0.21294
       8     C     3.09890  3.09890  0.00000 -0.19779
       9     H     0.40361  0.40361  0.00000  0.19278
      10     C     3.09847  3.09847  0.00000 -0.19693
      11     H     0.39969  0.39969  0.00000  0.20062
      12     C     3.10375  3.10375  0.00000 -0.20751
      13     H     0.40004  0.40004  0.00000  0.19992
      14     H     0.40054  0.40054  0.00000  0.19891

   Total alpha = 25.00000, Total beta = 25.00000, Total charge =  0.00000
