  ==> Input File <==

--------------------------------------------------------------------------
set {
	reference rhf
	basis 6-31G*
}

set_num_threads( 4 )
memory 2 gb

molecule MOL {
0 1

H	 3.729471	 -0.928294	 -0.070608
O	 2.826016	 -1.159218	 0.122261
C	 2.077727	 -0.067559	 -0.035091
C	 0.624473	 -0.343591	 0.253101
O	 2.542965	 0.974826	 -0.363729
C	 -0.265902	 0.883932	 0.072916
H	 0.324016	 -1.163849	 -0.390541
H	 0.565024	 -0.726111	 1.268924
C	 -1.728698	 0.646073	 0.462102
H	 -0.209144	 1.219470	 -0.958188
H	 0.135059	 1.692851	 0.673903
C	 -2.482460	 -0.343073	 -0.431425
H	 -2.245265	 1.602650	 0.432430
H	 -1.779332	 0.308348	 1.496285
C	 -1.620916	 -0.873496	 -1.577231
H	 -2.832055	 -1.177344	 0.173406
H	 -3.370007	 0.127138	 -0.846810
H	 -2.176512	 -1.570439	 -2.196825
H	 -0.743732	 -1.391667	 -1.200567
H	 -1.277193	 -0.064670	 -2.215896

	symmetry c1
}
set optking {
	frozen_dihedral = ("
		16 12 9 6
	")
}

ee = optimize('scf')
oeprop('DIPOLE', 'QUADRUPOLE', 'MULLIKEN_CHARGES')
f=open( 'psi4out.xyz', 'w' )
f.write( "20  " )
f.write( str(ee) + "\n" )
f.write( MOL.save_string_xyz() )
f.close()
--------------------------------------------------------------------------

    Molecular point group: c1
  Charge       = 0
  Multiplicity = 1
  Basis Set: 6-31G*
  Basis Set:
  @DF-RHF Final Energy:  -383.91628007306724
    Total Energy =                       -383.9162800730673553
    Molecular point group: c1
  Basis Set: 6-31G*
  Basis Set:
  Basis Set: 6-31G*
  Basis Set:
  @DF-RHF Final Energy:  -383.93246913979578
    Total Energy =                       -383.9324691397955576
  Basis Set: 6-31G*
  Basis Set:
  Basis Set: 6-31G*
  Basis Set:
  @DF-RHF Final Energy:  -383.93599570575464
    Total Energy =                       -383.9359957057545216
  Basis Set: 6-31G*
  Basis Set:
  Basis Set: 6-31G*
  Basis Set:
  @DF-RHF Final Energy:  -383.93489351541837
    Total Energy =                       -383.9348935154182527
  Basis Set: 6-31G*
  Basis Set:
  @DF-RHF Final Energy:  -383.93702490653902
    Total Energy =                       -383.9370249065391363
  Basis Set: 6-31G*
  Basis Set:
  @DF-RHF Final Energy:  -383.93741958298705
    Total Energy =                       -383.9374195829871041
  Basis Set: 6-31G*
  Basis Set:
  Basis Set: 6-31G*
  Basis Set:
  @DF-RHF Final Energy:  -383.93750052544902
    Total Energy =                       -383.9375005254487405
  Basis Set: 6-31G*
  Basis Set:
  Basis Set: 6-31G*
  Basis Set:
  @DF-RHF Final Energy:  -383.93751193108034
    Total Energy =                       -383.9375119310808486
  Basis Set: 6-31G*
  Basis Set:
  Charge       = 0
  Multiplicity = 1
  Basis Set: 6-31G*
  Basis Set:

    Orbital Energies (a.u.)
    -----------------------

    Doubly Occupied:

       1A    -20.612247     2A    -20.551318     3A    -11.380714
       4A    -11.239459     5A    -11.222432     6A    -11.220971
       7A    -11.220444     8A    -11.213440     9A     -1.474244
      10A     -1.365276    11A     -1.092403    12A     -1.036079
      13A     -0.961297    14A     -0.881486    15A     -0.810816
      16A     -0.768095    17A     -0.698912    18A     -0.688011
      19A     -0.666764    20A     -0.629577    21A     -0.619708
      22A     -0.585113    23A     -0.568091    24A     -0.560430
      25A     -0.535831    26A     -0.510176    27A     -0.509253
      28A     -0.478606    29A     -0.467688    30A     -0.458641
      31A     -0.454544    32A     -0.440671

  @DF-RHF Final Energy:  -383.93751275497078

   => Energetics <=

    Nuclear Repulsion Energy =            383.0449813894072690
    One-Electron Energy =               -1282.1195157300112442
    Two-Electron Energy =                 515.1370215856336472
    DFT Exchange-Correlation Energy =       0.0000000000000000
    Empirical Dispersion Energy =           0.0000000000000000
    PCM Polarization Energy =               0.0000000000000000
    EFP Energy =                            0.0000000000000000
    Total Energy =                       -383.9375127549703848
    Molecular point group: c1
  Basis Set: 6-31G*
  Basis Set:

  -Total Gradient:
     Atom            X                  Y                   Z
    ------   -----------------  -----------------  -----------------
       1        0.000024908605    -0.000010947346     0.000005254632
       2        0.000013650444     0.000035134022    -0.000018533676
       3       -0.000039932872    -0.000026784277    -0.000013823808
       4       -0.000005654631     0.000019004578    -0.000053008732
       5        0.000028126530    -0.000007074354     0.000024766100
       6       -0.000875632952     0.002442884318    -0.001625124101
       7       -0.000034490182    -0.000036408967     0.000002315167
       8       -0.000012328536     0.000009608385     0.000011310750
       9        0.000508711070    -0.003078728281     0.002599436915
      10        0.000006787275    -0.000008245310     0.000044499385
      11        0.000023557719     0.000008069964    -0.000004815803
      12        0.003632487239    -0.001313947517    -0.002053950327
      13       -0.000005491266    -0.000008738266     0.000013315927
      14       -0.000008316092     0.000005558305     0.000001194244
      15       -0.000003428160    -0.000027432637     0.000018640688
      16       -0.003281022438     0.002002524029     0.001056891198
      17       -0.000005734393    -0.000003559725     0.000013967797
      18       -0.000002297311    -0.000007145708    -0.000025307208
      19        0.000032039817     0.000007649642    -0.000007322789
      20        0.000004060138    -0.000001420857     0.000010293643

  **** Optimization is complete! (in 9 steps) ****
    Final optimized geometry and variables:
    Molecular point group: c1

    Geometry (in Angstrom), charge = 0, multiplicity = 1:

    H            3.538749899338    -0.766696929819     0.296371419876
    O            2.653296189654    -0.992035159507     0.564666965956
    C            1.849468488981     0.015771321979     0.226123200454
    C            0.420158336801    -0.254848060882     0.619420489999
    O            2.254908405728     0.991628505261    -0.316655553032
    C           -0.534649833253     0.876283949838     0.239805393161
    H            0.137155904381    -1.202237647717     0.173614686106
    H            0.410210472400    -0.422929333625     1.693256315987
    C           -1.994981130836     0.600810098464     0.630192010404
    H           -0.448174116268     1.089543098244    -0.818086118941
    H           -0.206363750057     1.775984594005     0.749267257591
    C           -2.847470649084    -0.321278109774    -0.290860529730
    H           -2.491886973840     1.564588684269     0.682580824243
    H           -2.017279335772     0.211341945380     1.644561071659
    C           -2.234170405474    -0.792506159852    -1.611470274143
    H           -3.187306650245    -1.182115355951     0.277899102161
    H           -3.760052027419     0.214929667036    -0.536246507036
    H           -2.956263674216    -1.394925470908    -2.153855492043
    H           -1.348706797867    -1.402027172075    -1.470810480028
    H           -1.964797474938     0.041776297722    -2.250600104995

  Mulliken Charges: (a.u.)
   Center  Symbol    Alpha    Beta     Spin     Total
       1     H     0.26792  0.26792  0.00000  0.46415
       2     O     4.35161  4.35161  0.00000 -0.70322
       3     C     2.62297  2.62297  0.00000  0.75405
       4     C     3.21204  3.21204  0.00000 -0.42407
       5     O     4.27942  4.27942  0.00000 -0.55885
       6     C     3.15669  3.15669  0.00000 -0.31338
       7     H     0.39718  0.39718  0.00000  0.20564
       8     H     0.39876  0.39876  0.00000  0.20249
       9     C     3.16276  3.16276  0.00000 -0.32552
      10     H     0.40747  0.40747  0.00000  0.18505
      11     H     0.40976  0.40976  0.00000  0.18048
      12     C     3.15716  3.15716  0.00000 -0.31432
      13     H     0.41578  0.41578  0.00000  0.16845
      14     H     0.42086  0.42086  0.00000  0.15828
      15     C     3.24355  3.24355  0.00000 -0.48711
      16     H     0.41988  0.41988  0.00000  0.16024
      17     H     0.41854  0.41854  0.00000  0.16293
      18     H     0.41736  0.41736  0.00000  0.16529
      19     H     0.42239  0.42239  0.00000  0.15522
      20     H     0.41790  0.41790  0.00000  0.16421

   Total alpha = 32.00000, Total beta = 32.00000, Total charge = -0.00000
