                              Psi4 1.0.54 Driver

  ==> Input File <==

--------------------------------------------------------------------------
set {
	reference rhf
	basis cc-pvtz
}

set_num_threads( 4 )
memory 2 gb

molecule MOL {
0 1

O	 0.749630	 1.305591	 -0.000460
C	 0.576499	 0.134701	 -0.003900
C	 -0.765656	 -0.550508	 -0.002152
O	 1.564816	 -0.744612	 -0.000631
C	 -1.945526	 0.411052	 0.000603
H	 -0.794329	 -1.203792	 -0.868145
H	 -0.791555	 -1.205429	 0.862701
C	 -3.208902	 -0.232066	 0.562034
H	 -2.125336	 0.758872	 -1.009389
H	 -1.689157	 1.289458	 0.580308
H	 -3.504396	 -1.097409	 -0.022067
H	 -4.035118	 0.468485	 0.554416
H	 -3.063484	 -0.559918	 1.586092
C	 2.884339	 -0.237801	 0.002883
H	 3.064150	 0.362814	 -0.876312
H	 3.533055	 -1.098529	 0.004958
H	 3.059365	 0.363432	 0.882614

	symmetry c1
}
set optking {
	frozen_dihedral = ("
		9 5 3 6
	")
}

ee,wfn = optimize('scf', return_wfn=True)
oeprop( wfn, 'DIPOLE', 'QUADRUPOLE', 'MULLIKEN_CHARGES')
f=open( 'psi4out.xyz', 'w' )
f.write( "17  " )
f.write( str(ee) + "\n" )
f.write( MOL.save_string_xyz() )
f.close()
--------------------------------------------------------------------------

    Molecular point group: c1
  Charge       = 0
  Multiplicity = 1
  Basis Set: CC-PVTZ
  Basis Set:
  @DF-RHF Final Energy:  -345.03367695575076
    Total Energy =                       -345.0336769557506500
    Molecular point group: c1
  Basis Set: CC-PVTZ
  Basis Set:
  Basis Set: CC-PVTZ
  Basis Set:
  @DF-RHF Final Energy:  -345.03370781523779
    Total Energy =                       -345.0337078152377899
  Basis Set: CC-PVTZ
  Basis Set:
  Basis Set: CC-PVTZ
  Basis Set:
  @DF-RHF Final Energy:  -345.03270932069006
    Total Energy =                       -345.0327093206898326
  Basis Set: CC-PVTZ
  Basis Set:
  Basis Set: CC-PVTZ
  Basis Set:
  @DF-RHF Final Energy:  -345.03389110759628
    Total Energy =                       -345.0338911075964461
  Basis Set: CC-PVTZ
  Basis Set:
  Basis Set: CC-PVTZ
  Basis Set:
  @DF-RHF Final Energy:  -345.03390191167546
    Total Energy =                       -345.0339019116759118
  Basis Set: CC-PVTZ
  Basis Set:
  Basis Set: CC-PVTZ
  Basis Set:
  @DF-RHF Final Energy:  -345.03390732142037
    Total Energy =                       -345.0339073214203154
  Basis Set: CC-PVTZ
  Basis Set:
  Charge       = 0
  Multiplicity = 1
  Basis Set: CC-PVTZ
  Basis Set:

    Orbital Energies (a.u.)
    -----------------------

    Doubly Occupied:

       1A    -20.596580     2A    -20.534595     3A    -11.364942
       4A    -11.278730     5A    -11.234564     6A    -11.219729
       7A    -11.212372     8A     -1.472599     9A     -1.366169
      10A     -1.080897    11A     -1.002525    12A     -0.939977
      13A     -0.827776    14A     -0.769012    15A     -0.702102
      16A     -0.686596    17A     -0.676318    18A     -0.637242
      19A     -0.597720    20A     -0.574638    21A     -0.570609
      22A     -0.529450    23A     -0.524398    24A     -0.496959
      25A     -0.487513    26A     -0.479464    27A     -0.460455
      28A     -0.441363

  @DF-RHF Final Energy:  -345.03390740332281

   => Energetics <=

    Nuclear Repulsion Energy =            313.0319243357999994
    One-Electron Energy =               -1090.6010716837440668
    Two-Electron Energy =                 432.5352399446213667
    DFT Exchange-Correlation Energy =       0.0000000000000000
    Empirical Dispersion Energy =           0.0000000000000000
    PCM Polarization Energy =               0.0000000000000000
    EFP Energy =                            0.0000000000000000
    Total Energy =                       -345.0339074033227007
    Molecular point group: c1
  Basis Set: CC-PVTZ
  Basis Set:

  -Total Gradient:
     Atom            X                  Y                   Z
    ------   -----------------  -----------------  -----------------
       1        0.000003973120     0.000002686153     0.000005133762
       2       -0.000001542284    -0.000009061752     0.000005387893
       3       -0.002833899959    -0.003548170811     0.002109789296
       4       -0.000008768192     0.000005750627    -0.000007472314
       5        0.003101581912     0.003852979004     0.000201088696
       6        0.001853758775     0.002334729026    -0.001777695128
       7        0.000005391298    -0.000002015303     0.000011587592
       8       -0.000001712543    -0.000003506089    -0.000000178214
       9       -0.002139171876    -0.002631690948    -0.000543338531
      10        0.000001555341    -0.000005685189    -0.000000941670
      11        0.000000471020     0.000008033031     0.000005041797
      12        0.000010703097    -0.000006698685     0.000000704825
      13       -0.000000177333     0.000002648146    -0.000009450941
      14        0.000009948433     0.000001346948    -0.000000341280
      15       -0.000001029014    -0.000000960033     0.000001146628
      16        0.000000597754     0.000000536103     0.000000143482
      17       -0.000001679554    -0.000000920230    -0.000000605894

  **** Optimization is complete! (in 7 steps) ****
    Final optimized geometry and variables:
    Molecular point group: c1

    Geometry (in Angstrom), charge = 0, multiplicity = 1:

    O            0.741282155331     1.300178601723    -0.094477527932
    C            0.567769444118     0.129432507063    -0.082315624922
    C           -0.772859680442    -0.562597972271    -0.039692587217
    O            1.557122718954    -0.748747848842    -0.108532181245
    C           -1.960335476441     0.395373685141    -0.022651892802
    H           -0.801605147890    -1.207775003390    -0.911171566269
    H           -0.769299260041    -1.212634515005     0.828248463996
    C           -3.229324055575    -0.277157878384     0.494663313412
    H           -2.145073020192     0.751136769273    -1.029826169163
    H           -1.723661993489     1.259351955475     0.582384268830
    H           -3.489364939456    -1.145242931759    -0.102513819097
    H           -4.069112836019     0.406680109654     0.464208823636
    H           -3.108592207316    -0.607479756515     1.521028451044
    C            2.875192030306    -0.240718535183    -0.151946764305
    H            3.024841519172     0.355849490873    -1.039597689480
    H            3.525179161549    -1.100459223284    -0.167424191903
    H            3.079277802914     0.365212879616     0.718350683177

  Mulliken Charges: (a.u.)
   Center  Symbol    Alpha    Beta     Spin     Total
       1     O     4.19619  4.19619  0.00000 -0.39239
       2     C     2.80510  2.80510  0.00000  0.38980
       3     C     3.09801  3.09801  0.00000 -0.19602
       4     O     4.14746  4.14746  0.00000 -0.29491
       5     C     3.08115  3.08115  0.00000 -0.16230
       6     H     0.43914  0.43914  0.00000  0.12172
       7     H     0.44113  0.44113  0.00000  0.11773
       8     C     3.15053  3.15053  0.00000 -0.30105
       9     H     0.45138  0.45138  0.00000  0.09725
      10     H     0.44071  0.44071  0.00000  0.11859
      11     H     0.45596  0.45596  0.00000  0.08807
      12     H     0.44641  0.44641  0.00000  0.10718
      13     H     0.45561  0.45561  0.00000  0.08877
      14     C     3.03708  3.03708  0.00000 -0.07416
      15     H     0.45441  0.45441  0.00000  0.09118
      16     H     0.44538  0.44538  0.00000  0.10923
      17     H     0.45435  0.45435  0.00000  0.09130

   Total alpha = 28.00000, Total beta = 28.00000, Total charge =  0.00000

*** Psi4 exiting successfully. Buy a developer a beer!
