  ==> Input File <==

--------------------------------------------------------------------------
set {
	reference rhf
	basis 6-31G*
}

set_num_threads( 1 )
memory 2 gb

molecule MOL {
0 1

O	 -1.422664	 1.209624	 -0.289627
C	 -1.083277	 0.139568	 0.115197
C	 0.323299	 -0.082943	 0.642902
C	 -2.019250	 -1.048534	 0.101166
C	 1.355627	 -0.005344	 -0.493127
H	 0.396251	 -1.044647	 1.143147
H	 0.528637	 0.693580	 1.371677
C	 2.786168	 -0.195604	 0.007473
H	 1.132807	 -0.760304	 -1.243899
H	 1.259610	 0.958506	 -0.981915
H	 3.495561	 -0.130713	 -0.811210
H	 2.912696	 -1.165395	 0.480041
H	 3.049284	 0.565503	 0.735850
H	 -1.549512	 -1.903393	 -0.376569
H	 -2.932749	 -0.793654	 -0.417767
H	 -2.253557	 -1.340499	 1.121490

	symmetry c1
}
set optking {
	frozen_dihedral = ("
		9 5 3 2
	")
}

ee = energy('scf')
oeprop('DIPOLE', 'QUADRUPOLE', 'MULLIKEN_CHARGES')
f=open( 'psi4out.xyz', 'w' )
f.write( "16  " )
f.write( str(ee) + "\n" )
f.write( MOL.save_string_xyz() )
f.close()
--------------------------------------------------------------------------

    Molecular point group: c1

    Geometry (in Angstrom), charge = 0, multiplicity = 1:

       Center              X                  Y                   Z               Mass
    ------------   -----------------  -----------------  -----------------  -----------------
           O         -1.418965964442     1.208763970120    -0.299846282734    15.994914619560
           C         -1.079578964442     0.138707970120     0.104977717266    12.000000000000
           C          0.326997035558    -0.083803029880     0.632682717266    12.000000000000
           C         -2.015551964442    -1.049394029880     0.090946717266    12.000000000000
           C          1.359325035558    -0.006204029880    -0.503346282734    12.000000000000
           H          0.399949035558    -1.045507029880     1.132927717266     1.007825032070
           H          0.532335035558     0.692719970120     1.361457717266     1.007825032070
           C          2.789866035558    -0.196464029880    -0.002746282734    12.000000000000
           H          1.136505035558    -0.761164029880    -1.254118282734     1.007825032070
           H          1.263308035558     0.957645970120    -0.992134282734     1.007825032070
           H          3.499259035558    -0.131573029880    -0.821429282734     1.007825032070
           H          2.916394035558    -1.166255029880     0.469821717266     1.007825032070
           H          3.052982035558     0.564642970120     0.725630717266     1.007825032070
           H         -1.545813964442    -1.904253029880    -0.386788282734     1.007825032070
           H         -2.929050964442    -0.794514029880    -0.427986282734     1.007825032070
           H         -2.249858964442    -1.341359029880     1.111270717266     1.007825032070

  Charge       = 0
  Multiplicity = 1
  Basis Set: 6-31G*
  Basis Set:

    Orbital Energies (a.u.)
    -----------------------

    Doubly Occupied:

       1A    -20.548035     2A    -11.325381     3A    -11.230857
       4A    -11.230079     5A    -11.228735     6A    -11.217946
       7A     -1.394010     8A     -1.080711     9A     -1.013831
      10A     -0.948975    11A     -0.827280    12A     -0.734807
      13A     -0.659022    14A     -0.648290    15A     -0.612951
      16A     -0.605240    17A     -0.574657    18A     -0.559756
      19A     -0.540657    20A     -0.514514    21A     -0.500500
      22A     -0.482783    23A     -0.471076    24A     -0.398349

  @DF-RHF Final Energy:  -270.03032443741608

   => Energetics <=

    Nuclear Repulsion Energy =            236.9906670735863656
    One-Electron Energy =                -835.3451975883069736
    Two-Electron Energy =                 328.3242060773047228
    DFT Exchange-Correlation Energy =       0.0000000000000000
    Empirical Dispersion Energy =           0.0000000000000000
    PCM Polarization Energy =               0.0000000000000000
    EFP Energy =                            0.0000000000000000
    Total Energy =                       -270.0303244374159135

  Mulliken Charges: (a.u.)
   Center  Symbol    Alpha    Beta     Spin     Total
       1     O     4.26294  4.26294  0.00000 -0.52587
       2     C     2.73652  2.73652  0.00000  0.52695
       3     C     3.19998  3.19998  0.00000 -0.39996
       4     C     3.28967  3.28967  0.00000 -0.57935
       5     C     3.15970  3.15970  0.00000 -0.31940
       6     H     0.41695  0.41695  0.00000  0.16610
       7     H     0.40167  0.40167  0.00000  0.19667
       8     C     3.24006  3.24006  0.00000 -0.48012
       9     H     0.42002  0.42002  0.00000  0.15996
      10     H     0.40359  0.40359  0.00000  0.19282
      11     H     0.41549  0.41549  0.00000  0.16902
      12     H     0.42138  0.42138  0.00000  0.15724
      13     H     0.41838  0.41838  0.00000  0.16325
      14     H     0.40979  0.40979  0.00000  0.18041
      15     H     0.39718  0.39718  0.00000  0.20564
      16     H     0.40668  0.40668  0.00000  0.18664

   Total alpha = 24.00000, Total beta = 24.00000, Total charge =  0.00000
