  ==> Input File <==

--------------------------------------------------------------------------
set {
	reference rhf
	basis 6-31G*
}

set_num_threads( 1 )
memory 2 gb

molecule MOL {
0 1

H	 2.591676	 2.013956	 0.335017
O	 3.341076	 1.666752	 -0.126416
C	 3.569581	 0.339145	 0.272707
C	 2.648527	 -0.662386	 -0.415276
H	 4.598905	 0.126949	 0.013593
H	 3.483007	 0.246244	 1.354675
C	 1.166959	 -0.479736	 -0.076950
H	 2.790407	 -0.579770	 -1.489711
H	 2.963797	 -1.664607	 -0.129750
C	 0.274838	 -1.533157	 -0.739705
H	 0.849428	 0.511840	 -0.387299
H	 1.033777	 -0.527819	 1.003925
C	 -1.209393	 -1.447698	 -0.365407
H	 0.378035	 -1.460711	 -1.820884
H	 0.642590	 -2.519846	 -0.466020
C	 -1.927445	 -0.189206	 -0.860459
H	 -1.715766	 -2.319379	 -0.774768
H	 -1.311968	 -1.519620	 0.716324
C	 -3.426726	 -0.199097	 -0.554691
H	 -1.781673	 -0.092083	 -1.935368
H	 -1.483477	 0.696060	 -0.411574
C	 -4.144748	 1.058891	 -1.042107
H	 -3.881768	 -1.074440	 -1.013165
H	 -3.574459	 -0.305851	 0.517999
H	 -4.043141	 1.176580	 -2.117305
H	 -5.205176	 1.020924	 -0.812574
H	 -3.736944	 1.950114	 -0.573298

	symmetry c1
}
set optking {
	frozen_dihedral = ("
		14 10 7 4,
		14 10 13 16,
		10 7 4 8,
		8 4 3 2,
		10 13 16 20,
		20 16 19 22
	")
}

ee = energy('scf')
oeprop('DIPOLE', 'QUADRUPOLE', 'MULLIKEN_CHARGES')
f=open( 'psi4out.xyz', 'w' )
f.write( "27  " )
f.write( str(ee) + "\n" )
f.write( MOL.save_string_xyz() )
f.close()
--------------------------------------------------------------------------

    Molecular point group: c1

    Geometry (in Angstrom), charge = 0, multiplicity = 1:

       Center              X                  Y                   Z               Mass
    ------------   -----------------  -----------------  -----------------  -----------------
           H          2.519454004862     2.129640159543     0.761167147739     1.007825032070
           O          3.268854004862     1.782436159543     0.299734147739    15.994914619560
           C          3.497359004862     0.454829159543     0.698857147739    12.000000000000
           C          2.576305004862    -0.546701840457     0.010874147739    12.000000000000
           H          4.526683004862     0.242633159543     0.439743147739     1.007825032070
           H          3.410785004862     0.361928159543     1.780825147739     1.007825032070
           C          1.094737004862    -0.364051840457     0.349200147739    12.000000000000
           H          2.718185004862    -0.464085840457    -1.063560852261     1.007825032070
           H          2.891575004862    -1.548922840457     0.296400147739     1.007825032070
           C          0.202616004862    -1.417472840457    -0.313554852261    12.000000000000
           H          0.777206004862     0.627524159543     0.038851147739     1.007825032070
           H          0.961555004862    -0.412134840457     1.430075147739     1.007825032070
           C         -1.281614995138    -1.332013840457     0.060743147739    12.000000000000
           H          0.305813004862    -1.345026840457    -1.394733852261     1.007825032070
           H          0.570368004862    -2.404161840457    -0.039869852261     1.007825032070
           C         -1.999666995138    -0.073521840457    -0.434308852261    12.000000000000
           H         -1.787987995138    -2.203694840457    -0.348617852261     1.007825032070
           H         -1.384189995138    -1.403935840457     1.142474147739     1.007825032070
           C         -3.498947995138    -0.083412840457    -0.128540852261    12.000000000000
           H         -1.853894995138     0.023601159543    -1.509217852261     1.007825032070
           H         -1.555698995138     0.811744159543     0.014576147739     1.007825032070
           C         -4.216969995138     1.174575159543    -0.615956852261    12.000000000000
           H         -3.953989995138    -0.958755840457    -0.587014852261     1.007825032070
           H         -3.646680995138    -0.190166840457     0.944149147739     1.007825032070
           H         -4.115362995138     1.292264159543    -1.691154852261     1.007825032070
           H         -5.277397995138     1.136608159543    -0.386423852261     1.007825032070
           H         -3.809165995138     2.065798159543    -0.147147852261     1.007825032070

  Charge       = 0
  Multiplicity = 1
  Basis Set: 6-31G*
  Basis Set:

    Orbital Energies (a.u.)
    -----------------------

    Doubly Occupied:

       1A    -20.552556     2A    -11.267221     3A    -11.218329
       4A    -11.216373     5A    -11.215691     6A    -11.215070
       7A    -11.214368     8A    -11.213743     9A    -11.209067
      10A     -1.359243    11A     -1.094437    12A     -1.060904
      13A     -1.011106    14A     -0.947973    15A     -0.887237
      16A     -0.819077    17A     -0.800846    18A     -0.777391
      19A     -0.696172    20A     -0.650870    21A     -0.636689
      22A     -0.615291    23A     -0.598083    24A     -0.582773
      25A     -0.580004    26A     -0.550884    27A     -0.541328
      28A     -0.530972    29A     -0.505409    30A     -0.492346
      31A     -0.484623    32A     -0.473327    33A     -0.468960
      34A     -0.460720    35A     -0.452277    36A     -0.441896
      37A     -0.421703

  @DF-RHF Final Energy:  -388.28167785136810

   => Energetics <=

    Nuclear Repulsion Energy =            459.6081471947055093
    One-Electron Energy =               -1437.2497295797672905
    Two-Electron Energy =                 589.3599045336959534
    DFT Exchange-Correlation Energy =       0.0000000000000000
    Empirical Dispersion Energy =           0.0000000000000000
    PCM Polarization Energy =               0.0000000000000000
    EFP Energy =                            0.0000000000000000
    Total Energy =                       -388.2816778513658846

  Mulliken Charges: (a.u.)
   Center  Symbol    Alpha    Beta     Spin     Total
       1     H     0.28012  0.28012  0.00000  0.43976
       2     O     4.37040  4.37040  0.00000 -0.74081
       3     C     2.99876  2.99876  0.00000  0.00249
       4     C     3.15936  3.15936  0.00000 -0.31872
       5     H     0.41474  0.41474  0.00000  0.17052
       6     H     0.43210  0.43210  0.00000  0.13581
       7     C     3.16282  3.16282  0.00000 -0.32564
       8     H     0.41506  0.41506  0.00000  0.16988
       9     H     0.42485  0.42485  0.00000  0.15029
      10     C     3.15214  3.15214  0.00000 -0.30428
      11     H     0.42090  0.42090  0.00000  0.15820
      12     H     0.42653  0.42653  0.00000  0.14694
      13     C     3.15346  3.15346  0.00000 -0.30692
      14     H     0.42172  0.42172  0.00000  0.15657
      15     H     0.42184  0.42184  0.00000  0.15632
      16     C     3.15231  3.15231  0.00000 -0.30461
      17     H     0.42139  0.42139  0.00000  0.15723
      18     H     0.42446  0.42446  0.00000  0.15108
      19     C     3.15122  3.15122  0.00000 -0.30243
      20     H     0.42356  0.42356  0.00000  0.15288
      21     H     0.42377  0.42377  0.00000  0.15246
      22     C     3.23913  3.23913  0.00000 -0.47827
      23     H     0.42290  0.42290  0.00000  0.15420
      24     H     0.42342  0.42342  0.00000  0.15316
      25     H     0.42142  0.42142  0.00000  0.15715
      26     H     0.41931  0.41931  0.00000  0.16139
      27     H     0.42231  0.42231  0.00000  0.15537

   Total alpha = 37.00000, Total beta = 37.00000, Total charge =  0.00000
