  ==> Input File <==

--------------------------------------------------------------------------
set {
	reference rhf
	basis 6-31G*
}

set_num_threads( 4 )
memory 2 gb

molecule MOL {
0 1

H	 2.860194	 -1.205266	 2.337986
O	 2.307279	 -1.322725	 1.571668
C	 1.538104	 -0.241380	 1.447265
C	 0.624473	 -0.343591	 0.253101
O	 1.599564	 0.668156	 2.208831
C	 -0.265902	 0.883932	 0.072916
H	 1.253510	 -0.522270	 -0.612785
H	 0.029880	 -1.244869	 0.379235
C	 -1.728698	 0.646073	 0.462102
H	 -0.209144	 1.219470	 -0.958188
H	 0.135059	 1.692851	 0.673903
C	 -2.482460	 -0.343073	 -0.431425
H	 -2.245265	 1.602650	 0.432430
H	 -1.779332	 0.308348	 1.496285
C	 -3.960546	 -0.461025	 -0.060175
H	 -2.395034	 -0.026811	 -1.468912
H	 -2.024850	 -1.327147	 -0.371646
H	 -4.472726	 -1.168004	 -0.705284
H	 -4.465146	 0.496508	 -0.151489
H	 -4.081218	 -0.800940	 0.964585

	symmetry c1
}
set optking {
	frozen_dihedral = ("
		7 4 6 10
	")
}

ee = optimize('scf')
oeprop('DIPOLE', 'QUADRUPOLE', 'MULLIKEN_CHARGES')
f=open( 'psi4out.xyz', 'w' )
f.write( "20  " )
f.write( str(ee) + "\n" )
f.write( MOL.save_string_xyz() )
f.close()
--------------------------------------------------------------------------

    Molecular point group: c1
  Charge       = 0
  Multiplicity = 1
  Basis Set: 6-31G*
  Basis Set:
  @DF-RHF Final Energy:  -383.94450103585979
    Total Energy =                       -383.9445010358593890
    Molecular point group: c1
  Basis Set: 6-31G*
  Basis Set:
  Basis Set: 6-31G*
  Basis Set:
  @DF-RHF Final Energy:  -383.94471208701606
    Total Energy =                       -383.9447120870160006
  Basis Set: 6-31G*
  Basis Set:
  Basis Set: 6-31G*
  Basis Set:
  @DF-RHF Final Energy:  -383.94496847381976
    Total Energy =                       -383.9449684738201540
  Basis Set: 6-31G*
  Basis Set:
  Basis Set: 6-31G*
  Basis Set:
  @DF-RHF Final Energy:  -383.94485442349577
    Total Energy =                       -383.9448544234957126
  Basis Set: 6-31G*
  Basis Set:
  Basis Set: 6-31G*
  Basis Set:
  @DF-RHF Final Energy:  -383.94502394405725
    Total Energy =                       -383.9450239440573114
  Basis Set: 6-31G*
  Basis Set:
  Basis Set: 6-31G*
  Basis Set:
  @DF-RHF Final Energy:  -383.94502568934098
    Total Energy =                       -383.9450256893412643
  Basis Set: 6-31G*
  Basis Set:
  Basis Set: 6-31G*
  Basis Set:
  @DF-RHF Final Energy:  -383.94503643713318
    Total Energy =                       -383.9450364371328988
  Basis Set: 6-31G*
  Basis Set:
  Charge       = 0
  Multiplicity = 1
  Basis Set: 6-31G*
  Basis Set:

    Orbital Energies (a.u.)
    -----------------------

    Doubly Occupied:

       1A    -20.613057     2A    -20.552528     3A    -11.382063
       4A    -11.240166     5A    -11.221293     6A    -11.219195
       7A    -11.217950     8A    -11.211204     9A     -1.475397
      10A     -1.366305    11A     -1.093711    12A     -1.039319
      13A     -0.960191    14A     -0.869515    15A     -0.815533
      16A     -0.775891    17A     -0.701360    18A     -0.691407
      19A     -0.661264    20A     -0.635132    21A     -0.599887
      22A     -0.592812    23A     -0.573543    24A     -0.556856
      25A     -0.538360    26A     -0.507619    27A     -0.500267
      28A     -0.480419    29A     -0.465984    30A     -0.465315
      31A     -0.454757    32A     -0.446162

  @DF-RHF Final Energy:  -383.94503666081209

   => Energetics <=

    Nuclear Repulsion Energy =            378.7314970608283602
    One-Electron Energy =               -1273.5041393449373572
    Two-Electron Energy =                 510.8276056232966198
    DFT Exchange-Correlation Energy =       0.0000000000000000
    Empirical Dispersion Energy =           0.0000000000000000
    PCM Polarization Energy =               0.0000000000000000
    EFP Energy =                            0.0000000000000000
    Total Energy =                       -383.9450366608123772
    Molecular point group: c1
  Basis Set: 6-31G*
  Basis Set:

  -Total Gradient:
     Atom            X                  Y                   Z
    ------   -----------------  -----------------  -----------------
       1        0.000009648370    -0.000004917380     0.000003823429
       2       -0.000011172134     0.000004626365     0.000010998457
       3       -0.000010933140     0.000022924452    -0.000011018320
       4        0.002440648576     0.002077734095     0.001213805416
       5        0.000021834713    -0.000007621014     0.000004807168
       6       -0.002573345877    -0.002077208178    -0.000800292485
       7       -0.001630686925    -0.001382127510    -0.000869562236
       8        0.000008257645     0.000001434409    -0.000015989601
       9       -0.000003483871     0.000002853632    -0.000016197912
      10        0.001741966261     0.001374006667     0.000467681243
      11        0.000006288381    -0.000001315975    -0.000002617375
      12        0.000005677321    -0.000011376943     0.000016876760
      13        0.000001786012     0.000009448181     0.000006369890
      14       -0.000005437722    -0.000008767355    -0.000009360058
      15       -0.000003878765     0.000006128142    -0.000003992623
      16       -0.000000645974    -0.000000624263     0.000000809453
      17        0.000005164468    -0.000002735168     0.000003889362
      18       -0.000004613245     0.000004297754    -0.000004510318
      19        0.000002350877     0.000000097938     0.000008268217
      20        0.000000575020    -0.000006857845    -0.000003788463

  **** Optimization is complete! (in 8 steps) ****
    Final optimized geometry and variables:
    Molecular point group: c1

    Geometry (in Angstrom), charge = 0, multiplicity = 1:

    H            3.116057097581    -1.104770034560     1.670016119906
    O            2.572356311250    -1.230932028345     0.898560640559
    C            1.804893113522    -0.151257445049     0.752339086181
    C            0.904593028824    -0.278879858988    -0.451398415136
    O            1.857383116505     0.765047113175     1.506469178578
    C           -0.002358739361     0.938194974600    -0.692936433776
    H            1.535383532015    -0.494375770392    -1.307788266131
    H            0.328311791970    -1.186856372070    -0.300793412779
    C           -1.464638525564     0.728398463837    -0.285757895026
    H            0.051483372967     1.223363685932    -1.739657358894
    H            0.398204257173     1.775010585441    -0.134697287710
    C           -2.249155567690    -0.214563284562    -1.201784194100
    H           -1.961917112986     1.695403434789    -0.276672087899
    H           -1.501353442347     0.361227496076     0.738509512440
    C           -3.701092099222    -0.395397100194    -0.759599083336
    H           -2.226793304957     0.177182195496    -2.216621209249
    H           -1.767265207814    -1.188644149806    -1.242527942355
    H           -4.237705417424    -1.057474552783    -1.432007990915
    H           -4.226369951873     0.555235702154    -0.741913164098
    H           -3.756737524839    -0.820948094256     0.238335931002

  Mulliken Charges: (a.u.)
   Center  Symbol    Alpha    Beta     Spin     Total
       1     H     0.26762  0.26762  0.00000  0.46476
       2     O     4.35000  4.35000  0.00000 -0.70001
       3     C     2.62781  2.62781  0.00000  0.74438
       4     C     3.21398  3.21398  0.00000 -0.42797
       5     O     4.27874  4.27874  0.00000 -0.55749
       6     C     3.16444  3.16444  0.00000 -0.32889
       7     H     0.39479  0.39479  0.00000  0.21041
       8     H     0.39630  0.39630  0.00000  0.20741
       9     C     3.15523  3.15523  0.00000 -0.31047
      10     H     0.41826  0.41826  0.00000  0.16348
      11     H     0.39439  0.39439  0.00000  0.21122
      12     C     3.15364  3.15364  0.00000 -0.30728
      13     H     0.41851  0.41851  0.00000  0.16297
      14     H     0.42009  0.42009  0.00000  0.15981
      15     C     3.23917  3.23917  0.00000 -0.47834
      16     H     0.42245  0.42245  0.00000  0.15510
      17     H     0.42404  0.42404  0.00000  0.15193
      18     H     0.41884  0.41884  0.00000  0.16231
      19     H     0.42064  0.42064  0.00000  0.15872
      20     H     0.42104  0.42104  0.00000  0.15793

   Total alpha = 32.00000, Total beta = 32.00000, Total charge = -0.00000
