  ==> Input File <==

--------------------------------------------------------------------------
set {
	reference rhf
	basis 6-31G*
}

set_num_threads( 4 )
memory 2 gb

molecule MOL {
0 1

H	 -2.835882	 -0.083948	 0.046364
N	 -1.877375	 0.059520	 0.298667
C	 -1.189835	 0.840777	 -0.714265
H	 -1.449546	 -0.843084	 0.372000
C	 0.265612	 1.014223	 -0.333837
H	 -1.234478	 0.402261	 -1.712119
H	 -1.651877	 1.821764	 -0.768691
O	 0.874168	 -0.245412	 -0.342030
H	 0.763910	 1.675321	 -1.042560
H	 0.334251	 1.459970	 0.656028
C	 2.202317	 -0.244239	 0.074611
H	 2.711377	 -1.041390	 -0.449894
H	 2.692099	 0.699270	 -0.159667
H	 2.283185	 -0.418429	 1.145558

	symmetry c1
}
set optking {
	frozen_dihedral = ("
		5 8 11 13
	")
}

ee = optimize('scf')
oeprop('DIPOLE', 'QUADRUPOLE', 'MULLIKEN_CHARGES')
f=open( 'psi4out.xyz', 'w' )
f.write( "14  " )
f.write( str(ee) + "\n" )
f.write( MOL.save_string_xyz() )
f.close()
--------------------------------------------------------------------------

    Molecular point group: c1
  Charge       = 0
  Multiplicity = 1
  Basis Set: 6-31G*
  Basis Set:
  @DF-RHF Final Energy:  -248.12315568973591
    Total Energy =                       -248.1231556897357677
    Molecular point group: c1
  Basis Set: 6-31G*
  Basis Set:
  Basis Set: 6-31G*
  Basis Set:
  @DF-RHF Final Energy:  -248.12325008669904
    Total Energy =                       -248.1232500866992723
  Basis Set: 6-31G*
  Basis Set:
  Basis Set: 6-31G*
  Basis Set:
  @DF-RHF Final Energy:  -248.12328397499536
    Total Energy =                       -248.1232839749951609
  Basis Set: 6-31G*
  Basis Set:
  Charge       = 0
  Multiplicity = 1
  Basis Set: 6-31G*
  Basis Set:

    Orbital Energies (a.u.)
    -----------------------

    Doubly Occupied:

       1A    -20.555403     2A    -15.528238     3A    -11.266015
       4A    -11.265903     5A    -11.240521     6A     -1.378769
       7A     -1.173367     8A     -0.998871     9A     -0.907340
      10A     -0.815080    11A     -0.683271    12A     -0.672277
      13A     -0.644222    14A     -0.609300    15A     -0.605193
      16A     -0.540526    17A     -0.532469    18A     -0.496785
      19A     -0.472475    20A     -0.414174    21A     -0.379911

  @DF-RHF Final Energy:  -248.12328420590487

   => Energetics <=

    Nuclear Repulsion Energy =            194.5178642854679936
    One-Electron Energy =                -722.9220718337186327
    Two-Electron Energy =                 280.2809233423458863
    DFT Exchange-Correlation Energy =       0.0000000000000000
    Empirical Dispersion Energy =           0.0000000000000000
    PCM Polarization Energy =               0.0000000000000000
    EFP Energy =                            0.0000000000000000
    Total Energy =                       -248.1232842059047243
    Molecular point group: c1
  Basis Set: 6-31G*
  Basis Set:

  -Total Gradient:
     Atom            X                  Y                   Z
    ------   -----------------  -----------------  -----------------
       1        0.000003057247     0.000012773672    -0.000009012304
       2        0.000016548775     0.000010672160    -0.000006651259
       3       -0.000030951424     0.000010523421    -0.000015440733
       4        0.000007066677     0.000009781293    -0.000000198178
       5        0.000664486822     0.000359135040    -0.002243503531
       6       -0.000007289800    -0.000001116280     0.000005751489
       7       -0.000029714105     0.000004996949    -0.000006076684
       8       -0.001133446862    -0.000190763075     0.004037097372
       9       -0.000001347092    -0.000019463444     0.000008118182
      10        0.000010473614     0.000000587891    -0.000004599488
      11        0.001349275183    -0.001306712229    -0.004456358435
      12        0.000011241339    -0.000003969721    -0.000004769858
      13       -0.000851074014     0.001106809193     0.002690198729
      14       -0.000008326363     0.000006745131     0.000005444699

  **** Optimization is complete! (in 4 steps) ****
    Final optimized geometry and variables:
    Molecular point group: c1

    Geometry (in Angstrom), charge = 0, multiplicity = 1:

    H           -2.897508750941    -0.357250687724     0.245053824266
    N           -1.939608658410    -0.210716135573     0.497767386322
    C           -1.254414052788     0.574228639441    -0.513920632995
    H           -1.508599888972    -1.111907338962     0.569752143581
    C            0.199732991701     0.754944401519    -0.132182788613
    H           -1.295321830273     0.135557374681    -1.511861948530
    H           -1.721250260865     1.552950755944    -0.568817030530
    O            0.813072618898    -0.502989119861    -0.144439731296
    H            0.695492540841     1.417696685724    -0.840230194056
    H            0.262872955095     1.201405662729     0.857655623805
    C            2.146046688925    -0.518035540122     0.267085813377
    H            2.651270273612    -1.328376083748    -0.241589174177
    H            2.646751577132     0.419210638600     0.038438956553
    H            2.217139411706    -0.676796131395     1.340704463680

  Mulliken Charges: (a.u.)
   Center  Symbol    Alpha    Beta     Spin     Total
       1     H     0.33288  0.33288  0.00000  0.33424
       2     N     3.92525  3.92525  0.00000 -0.85050
       3     C     3.06892  3.06892  0.00000 -0.13785
       4     H     0.32369  0.32369  0.00000  0.35262
       5     C     2.99024  2.99024  0.00000  0.01951
       6     H     0.42666  0.42666  0.00000  0.14668
       7     H     0.42059  0.42059  0.00000  0.15882
       8     O     4.31215  4.31215  0.00000 -0.62429
       9     H     0.43045  0.43045  0.00000  0.13911
      10     H     0.42273  0.42273  0.00000  0.15453
      11     C     3.07700  3.07700  0.00000 -0.15399
      12     H     0.41480  0.41480  0.00000  0.17041
      13     H     0.43003  0.43003  0.00000  0.13995
      14     H     0.42462  0.42462  0.00000  0.15076

   Total alpha = 21.00000, Total beta = 21.00000, Total charge = -0.00000
