  ==> Input File <==

--------------------------------------------------------------------------
set {
	reference rhf
	basis 6-31G*
}

set_num_threads( 1 )
memory 2 gb

molecule MOL {
0 1

O	 3.225979	 0.970355	 -0.599647
C	 2.701189	 0.057885	 -0.047330
C	 1.245376	 -0.013843	 0.345420
O	 3.347903	 -1.046386	 0.304773
C	 0.455112	 1.231400	 -0.050772
H	 0.838542	 -0.913825	 -0.103701
H	 1.208210	 -0.175333	 1.419774
C	 -0.998893	 1.219485	 0.433193
H	 0.482531	 1.345121	 -1.130325
H	 0.957290	 2.103070	 0.354729
C	 -1.174248	 1.305787	 1.952045
H	 -1.463381	 0.301163	 0.081537
H	 -1.545265	 2.033959	 -0.040220
C	 -2.634670	 1.179486	 2.390469
H	 -0.587648	 0.519674	 2.425065
H	 -0.776876	 2.248175	 2.322143
C	 -2.822512	 1.269543	 3.905968
H	 -3.036308	 0.232045	 2.035117
H	 -3.223745	 1.958749	 1.909387
C	 -4.283288	 1.138671	 4.335743
H	 -2.233742	 0.492169	 4.388337
H	 -2.425585	 2.217780	 4.262447
H	 -4.383935	 1.206509	 5.414573
H	 -4.699639	 0.184858	 4.024152
H	 -4.892972	 1.923431	 3.896753
C	 4.728119	 -1.109107	 -0.004993
H	 4.882018	 -1.033965	 -1.071845
H	 5.068212	 -2.067527	 0.355250
H	 5.265056	 -0.311663	 0.488280

	symmetry c1
}
set optking {
	frozen_dihedral = ("
		21 17 14 11,
		17 14 11 15,
		15 11 8 5,
		6 3 5 9,
		2 4 26 27,
		1 2 4 26,
		6 3 2 1
	")
}

ee = energy('scf')
oeprop('DIPOLE', 'QUADRUPOLE', 'MULLIKEN_CHARGES')
f=open( 'psi4out.xyz', 'w' )
f.write( "29  " )
f.write( str(ee) + "\n" )
f.write( MOL.save_string_xyz() )
f.close()
--------------------------------------------------------------------------

    Molecular point group: c1

    Geometry (in Angstrom), charge = 0, multiplicity = 1:

       Center              X                  Y                   Z               Mass
    ------------   -----------------  -----------------  -----------------  -----------------
           O          2.839634140093     0.423364789169    -1.773832217423    15.994914619560
           C          2.314844140093    -0.489105210831    -1.221515217423    12.000000000000
           C          0.859031140093    -0.560833210831    -0.828765217423    12.000000000000
           O          2.961558140093    -1.593376210831    -0.869412217423    15.994914619560
           C          0.068767140093     0.684409789169    -1.224957217423    12.000000000000
           H          0.452197140093    -1.460815210831    -1.277886217423     1.007825032070
           H          0.821865140093    -0.722323210831     0.245588782577     1.007825032070
           C         -1.385237859907     0.672494789169    -0.740992217423    12.000000000000
           H          0.096186140093     0.798130789169    -2.304510217423     1.007825032070
           H          0.570945140093     1.556079789169    -0.819456217423     1.007825032070
           C         -1.560592859907     0.758796789169     0.777859782577    12.000000000000
           H         -1.849725859907    -0.245827210831    -1.092648217423     1.007825032070
           H         -1.931609859907     1.486968789169    -1.214405217423     1.007825032070
           C         -3.021014859907     0.632495789169     1.216283782577    12.000000000000
           H         -0.973992859907    -0.027316210831     1.250879782577     1.007825032070
           H         -1.163220859907     1.701184789169     1.147957782577     1.007825032070
           C         -3.208856859907     0.722552789169     2.731782782577    12.000000000000
           H         -3.422652859907    -0.314945210831     0.860931782577     1.007825032070
           H         -3.610089859907     1.411758789169     0.735201782577     1.007825032070
           C         -4.669632859907     0.591680789169     3.161557782577    12.000000000000
           H         -2.620086859907    -0.054821210831     3.214151782577     1.007825032070
           H         -2.811929859907     1.670789789169     3.088261782577     1.007825032070
           H         -4.770279859907     0.659518789169     4.240387782577     1.007825032070
           H         -5.085983859907    -0.362132210831     2.849966782577     1.007825032070
           H         -5.279316859907     1.376440789169     2.722567782577     1.007825032070
           C          4.341774140093    -1.656097210831    -1.179178217423    12.000000000000
           H          4.495673140093    -1.580955210831    -2.246030217423     1.007825032070
           H          4.681867140093    -2.614517210831    -0.818935217423     1.007825032070
           H          4.878711140093    -0.858653210831    -0.685905217423     1.007825032070

  Charge       = 0
  Multiplicity = 1
  Basis Set: 6-31G*
  Basis Set:

    Orbital Energies (a.u.)
    -----------------------

    Doubly Occupied:

       1A    -20.603493     2A    -20.545251     3A    -11.372165
       4A    -11.280732     5A    -11.234973     6A    -11.218996
       7A    -11.217636     8A    -11.216125     9A    -11.215908
      10A    -11.214561    11A    -11.209123    12A     -1.469165
      13A     -1.362582    14A     -1.098381    15A     -1.066891
      16A     -1.019501    17A     -0.977263    18A     -0.928585
      19A     -0.861594    20A     -0.799294    21A     -0.790636
      22A     -0.764146    23A     -0.701412    24A     -0.682350
      25A     -0.672291    26A     -0.649840    27A     -0.629477
      28A     -0.605477    29A     -0.595452    30A     -0.580388
      31A     -0.566879    32A     -0.548914    33A     -0.533371
      34A     -0.530442    35A     -0.516163    36A     -0.509920
      37A     -0.498245    38A     -0.477198    39A     -0.469888
      40A     -0.462234    41A     -0.458703    42A     -0.455594
      43A     -0.441434    44A     -0.435628

  @DF-RHF Final Energy:  -501.04330970014428

   => Energetics <=

    Nuclear Repulsion Energy =            611.4614608488274143
    One-Electron Energy =               -1894.0329298041419861
    Two-Electron Energy =                 781.5281592551699532
    DFT Exchange-Correlation Energy =       0.0000000000000000
    Empirical Dispersion Energy =           0.0000000000000000
    PCM Polarization Energy =               0.0000000000000000
    EFP Energy =                            0.0000000000000000
    Total Energy =                       -501.0433097001447322

  Mulliken Charges: (a.u.)
   Center  Symbol    Alpha    Beta     Spin     Total
       1     O     4.28579  4.28579  0.00000 -0.57159
       2     C     2.60467  2.60467  0.00000  0.79067
       3     C     3.21018  3.21018  0.00000 -0.42037
       4     O     4.30746  4.30746  0.00000 -0.61492
       5     C     3.15376  3.15376  0.00000 -0.30752
       6     H     0.40062  0.40062  0.00000  0.19876
       7     H     0.39924  0.39924  0.00000  0.20151
       8     C     3.15650  3.15650  0.00000 -0.31300
       9     H     0.41072  0.41072  0.00000  0.17856
      10     H     0.41125  0.41125  0.00000  0.17751
      11     C     3.15510  3.15510  0.00000 -0.31021
      12     H     0.42497  0.42497  0.00000  0.15005
      13     H     0.41759  0.41759  0.00000  0.16482
      14     C     3.15015  3.15015  0.00000 -0.30029
      15     H     0.42454  0.42454  0.00000  0.15093
      16     H     0.42148  0.42148  0.00000  0.15703
      17     C     3.15149  3.15149  0.00000 -0.30298
      18     H     0.42399  0.42399  0.00000  0.15202
      19     H     0.42334  0.42334  0.00000  0.15332
      20     C     3.23935  3.23935  0.00000 -0.47870
      21     H     0.42336  0.42336  0.00000  0.15327
      22     H     0.42275  0.42275  0.00000  0.15450
      23     H     0.41919  0.41919  0.00000  0.16162
      24     H     0.42185  0.42185  0.00000  0.15631
      25     H     0.42156  0.42156  0.00000  0.15688
      26     C     3.09243  3.09243  0.00000 -0.18486
      27     H     0.40906  0.40906  0.00000  0.18189
      28     H     0.40850  0.40850  0.00000  0.18299
      29     H     0.40910  0.40910  0.00000  0.18181

   Total alpha = 44.00000, Total beta = 44.00000, Total charge =  0.00000
