                              Psi4 1.0.54 Driver

  ==> Input File <==

--------------------------------------------------------------------------
set {
	reference rhf
	basis cc-pvtz
}

set_num_threads( 4 )
memory 2 gb

molecule MOL {
0 1

H	 -2.820666	 -1.124937	 0.548571
C	 -3.020526	 -0.542212	 -0.361029
C	 -2.653809	 0.914422	 -0.273689
O	 -3.498849	 -1.066704	 -1.306240
C	 -1.216901	 1.136108	 0.207794
H	 -2.826055	 1.371476	 -1.239487
H	 -3.342477	 1.365613	 0.437273
C	 -0.247837	 0.040196	 -0.230469
H	 -0.872882	 2.093195	 -0.169002
H	 -1.209325	 1.218376	 1.291938
C	 1.181757	 0.280428	 0.247371
H	 -0.259600	 -0.030819	 -1.314870
H	 -0.591284	 -0.923375	 0.136958
C	 2.151032	 -0.811012	 -0.202643
H	 1.515939	 1.247397	 -0.115449
H	 1.191514	 0.341223	 1.333422
C	 3.580021	 -0.656538	 0.320835
H	 2.170545	 -0.847575	 -1.289412
H	 1.766632	 -1.772905	 0.124928
C	 4.327657	 0.562694	 -0.213579
H	 4.138806	 -1.549270	 0.057813
H	 3.561991	 -0.620783	 1.406976
H	 4.355973	 0.557257	 -1.298551
H	 3.867136	 1.491650	 0.100501
H	 5.351524	 0.571613	 0.142204

	symmetry c1
}
set optking {
	frozen_dihedral = ("
		6 3 5 8
	")
}

ee,wfn = optimize('scf', return_wfn=True)
oeprop( wfn, 'DIPOLE', 'QUADRUPOLE', 'MULLIKEN_CHARGES')
f=open( 'psi4out.xyz', 'w' )
f.write( "25  " )
f.write( str(ee) + "\n" )
f.write( MOL.save_string_xyz() )
f.close()
--------------------------------------------------------------------------

    Molecular point group: c1
  Charge       = 0
  Multiplicity = 1
  Basis Set: CC-PVTZ
  Basis Set:
  @DF-RHF Final Energy:  -387.25510927299382
    Total Energy =                       -387.2551092729943321
    Molecular point group: c1
  Basis Set: CC-PVTZ
  Basis Set:
  Basis Set: CC-PVTZ
  Basis Set:
  @DF-RHF Final Energy:  -387.25501410675508
    Total Energy =                       -387.2550141067548566
  Basis Set: CC-PVTZ
  Basis Set:
  Basis Set: CC-PVTZ
  Basis Set:
  @DF-RHF Final Energy:  -387.25147560777236
    Total Energy =                       -387.2514756077719085
  Basis Set: CC-PVTZ
  Basis Set:
  Basis Set: CC-PVTZ
  Basis Set:
  @DF-RHF Final Energy:  -387.25602877455151
    Total Energy =                       -387.2560287745517371
  Basis Set: CC-PVTZ
  Basis Set:
  Basis Set: CC-PVTZ
  Basis Set:
  @DF-RHF Final Energy:  -387.25614520742670
    Total Energy =                       -387.2561452074266981
  Basis Set: CC-PVTZ
  Basis Set:
  Basis Set: CC-PVTZ
  Basis Set:
  @DF-RHF Final Energy:  -387.25623216937197
    Total Energy =                       -387.2562321693719696
  Basis Set: CC-PVTZ
  Basis Set:
  Charge       = 0
  Multiplicity = 1
  Basis Set: CC-PVTZ
  Basis Set:

    Orbital Energies (a.u.)
    -----------------------

    Doubly Occupied:

       1A    -20.550558     2A    -11.320912     3A    -11.233587
       4A    -11.233003     5A    -11.222693     6A    -11.218173
       7A    -11.216486     8A    -11.215350     9A    -11.208847
      10A     -1.405478    11A     -1.104492    12A     -1.069792
      13A     -1.014299    14A     -0.943838    15A     -0.877422
      16A     -0.828078    17A     -0.782892    18A     -0.779743
      19A     -0.672718    20A     -0.657769    21A     -0.635382
      22A     -0.627332    23A     -0.604742    24A     -0.595553
      25A     -0.577093    26A     -0.547938    27A     -0.543005
      28A     -0.526127    29A     -0.502601    30A     -0.498581
      31A     -0.496642    32A     -0.474779    33A     -0.465147
      34A     -0.459972    35A     -0.443217    36A     -0.411308

  @DF-RHF Final Energy:  -387.25623249840379

   => Energetics <=

    Nuclear Repulsion Energy =            440.8948664278147476
    One-Electron Energy =               -1398.3711009157573244
    Two-Electron Energy =                 570.2200019895392415
    DFT Exchange-Correlation Energy =       0.0000000000000000
    Empirical Dispersion Energy =           0.0000000000000000
    PCM Polarization Energy =               0.0000000000000000
    EFP Energy =                            0.0000000000000000
    Total Energy =                       -387.2562324984032784
    Molecular point group: c1
  Basis Set: CC-PVTZ
  Basis Set:

  -Total Gradient:
     Atom            X                  Y                   Z
    ------   -----------------  -----------------  -----------------
       1       -0.000009043797     0.000022039923     0.000006538707
       2        0.000155728712     0.000073556857     0.000115264157
       3        0.001850452708    -0.007254607274    -0.002506282126
       4       -0.000068057146    -0.000029856364    -0.000127628686
       5        0.000937166265     0.004906993792    -0.004161599791
       6       -0.001811501540     0.004898935872     0.003107229280
       7        0.000020067535    -0.000011367483     0.000028712261
       8       -0.001054253563    -0.002617499643     0.003540611959
       9        0.000003933803     0.000013137801    -0.000003161464
      10       -0.000002775695    -0.000032675657     0.000000576494
      11        0.000001974396     0.000031469871    -0.000011097654
      12       -0.000032963522    -0.000013958993     0.000024452450
      13       -0.000020305349    -0.000023764093     0.000006255280
      14       -0.000010460463     0.000033103407    -0.000043010526
      15       -0.000002150980    -0.000013274728     0.000011146230
      16        0.000008448469    -0.000014837165    -0.000010223365
      17        0.000003555956     0.000031284905     0.000021844547
      18       -0.000006319674     0.000005643134    -0.000001897210
      19       -0.000001424618     0.000021086985    -0.000005747821
      20        0.000005366411    -0.000016925919     0.000002493722
      21        0.000001925100     0.000009517019     0.000008868195
      22        0.000006654547     0.000012064669    -0.000003621421
      23       -0.000005120166     0.000000361785     0.000002945301
      24        0.000021008426    -0.000026182143     0.000001886392
      25        0.000008094180    -0.000004246560    -0.000004554913

  **** Optimization is complete! (in 7 steps) ****
    Final optimized geometry and variables:
    Molecular point group: c1

    Geometry (in Angstrom), charge = 0, multiplicity = 1:

    H           -3.109514980720    -1.183411352559     0.677967447412
    C           -3.177107436162    -0.563926766146    -0.225397317873
    C           -2.740076649222     0.863110043347    -0.056196155441
    O           -3.593914005594    -1.028225229345    -1.229843541730
    C           -1.308983962878     1.043131309487     0.488455885145
    H           -2.883844616566     1.403190077912    -0.982410612930
    H           -3.433326002756     1.306272933344     0.656593135045
    C           -0.297103109919     0.004606095393     0.003386112070
    H           -0.972000472200     2.038473815883     0.224064020864
    H           -1.333684617556     1.011924106352     1.573640578351
    C            1.121150065800     0.291622731140     0.489447183315
    H           -0.304941870259    -0.033119299988    -1.083018535920
    H           -0.593902771572    -0.983646017030     0.341954444134
    C            2.134388801678    -0.749559204111     0.017874568153
    H            1.415823242349     1.278821791479     0.148081352911
    H            1.127031803908     0.329419161796     1.576654969115
    C            3.555317740987    -0.548337671824     0.547488015613
    H            2.156358626431    -0.762029628452    -1.069276048814
    H            1.789353642767    -1.733236084457     0.324137797696
    C            4.254735408380     0.709353733674     0.037606531070
    H            4.149495958806    -1.413036872477     0.268896412442
    H            3.534336976645    -0.533798752752     1.634079587281
    H            4.282978423445     0.726294688202    -1.047200589177
    H            3.758506425001     1.613314230241     0.369627218336
    H            5.277545933403     0.751074412727     0.394111437526

  Mulliken Charges: (a.u.)
   Center  Symbol    Alpha    Beta     Spin     Total
       1     H     0.46253  0.46253  0.00000  0.07493
       2     C     2.90140  2.90140  0.00000  0.19719
       3     C     3.09149  3.09149  0.00000 -0.18299
       4     O     4.16873  4.16873  0.00000 -0.33746
       5     C     3.10881  3.10881  0.00000 -0.21763
       6     H     0.44097  0.44097  0.00000  0.11805
       7     H     0.44476  0.44476  0.00000  0.11047
       8     C     3.09534  3.09534  0.00000 -0.19069
       9     H     0.44422  0.44422  0.00000  0.11156
      10     H     0.44939  0.44939  0.00000  0.10122
      11     C     3.09459  3.09459  0.00000 -0.18919
      12     H     0.44434  0.44434  0.00000  0.11131
      13     H     0.45142  0.45142  0.00000  0.09716
      14     C     3.09518  3.09518  0.00000 -0.19036
      15     H     0.45073  0.45073  0.00000  0.09854
      16     H     0.45435  0.45435  0.00000  0.09130
      17     C     3.09102  3.09102  0.00000 -0.18203
      18     H     0.45215  0.45215  0.00000  0.09571
      19     H     0.44886  0.44886  0.00000  0.10227
      20     C     3.15263  3.15263  0.00000 -0.30526
      21     H     0.44767  0.44767  0.00000  0.10467
      22     H     0.45487  0.45487  0.00000  0.09027
      23     H     0.45423  0.45423  0.00000  0.09154
      24     H     0.45435  0.45435  0.00000  0.09130
      25     H     0.44594  0.44594  0.00000  0.10812

   Total alpha = 36.00000, Total beta = 36.00000, Total charge =  0.00000

*** Psi4 exiting successfully. Buy a developer a beer!
