                              Psi4 1.0.54 Driver

  ==> Input File <==

--------------------------------------------------------------------------
set {
	reference rhf
	basis cc-pvtz
}

set_num_threads( 4 )
memory 2 gb

molecule MOL {
0 1

H	 -0.935805	 -1.259705	 0.098705
N	 -1.173824	 -0.310545	 -0.096857
C	 -0.022588	 0.563366	 0.065815
H	 -1.514814	 -0.279173	 -1.035129
C	 1.270420	 -0.230572	 -0.014245
H	 -0.045354	 1.293678	 -0.735129
H	 -0.043155	 1.123061	 1.001180
H	 1.336273	 -0.754933	 -0.959364
H	 2.130728	 0.422015	 0.082222
H	 1.323344	 -0.967006	 0.781773

	symmetry c1
}
set optking {
	frozen_dihedral = ("
		1 2 3 6
	")
}

ee,wfn = optimize('scf', return_wfn=True)
oeprop( wfn, 'DIPOLE', 'QUADRUPOLE', 'MULLIKEN_CHARGES')
f=open( 'psi4out.xyz', 'w' )
f.write( "10  " )
f.write( str(ee) + "\n" )
f.write( MOL.save_string_xyz() )
f.close()
--------------------------------------------------------------------------

    Molecular point group: c1
  Charge       = 0
  Multiplicity = 1
  Basis Set: CC-PVTZ
  Basis Set:
  @DF-RHF Final Energy:  -134.30055596579325
    Total Energy =                       -134.3005559657931940
    Molecular point group: c1
  Basis Set: CC-PVTZ
  Basis Set:
  Basis Set: CC-PVTZ
  Basis Set:
  @DF-RHF Final Energy:  -134.30154114532203
    Total Energy =                       -134.3015411453220622
  Basis Set: CC-PVTZ
  Basis Set:
  Basis Set: CC-PVTZ
  Basis Set:
  @DF-RHF Final Energy:  -134.30170380690467
    Total Energy =                       -134.3017038069047828
  Basis Set: CC-PVTZ
  Basis Set:
  Basis Set: CC-PVTZ
  Basis Set:
  @DF-RHF Final Energy:  -134.30170543603515
    Total Energy =                       -134.3017054360352063
  Basis Set: CC-PVTZ
  Basis Set:
  Charge       = 0
  Multiplicity = 1
  Basis Set: CC-PVTZ
  Basis Set:

    Orbital Energies (a.u.)
    -----------------------

    Doubly Occupied:

       1A    -15.525665     2A    -11.241377     3A    -11.210365
       4A     -1.176605     5A     -0.989858     6A     -0.831879
       7A     -0.669468     8A     -0.603623     9A     -0.592297
      10A     -0.542638    11A     -0.506992    12A     -0.486775
      13A     -0.382564

  @DF-RHF Final Energy:  -134.30170565295180

   => Energetics <=

    Nuclear Repulsion Energy =             83.3325122475356324
    One-Electron Energy =                -345.7482226708792723
    Two-Electron Energy =                 128.1140047703918015
    DFT Exchange-Correlation Energy =       0.0000000000000000
    Empirical Dispersion Energy =           0.0000000000000000
    PCM Polarization Energy =               0.0000000000000000
    EFP Energy =                            0.0000000000000000
    Total Energy =                       -134.3017056529518243
    Molecular point group: c1
  Basis Set: CC-PVTZ
  Basis Set:

  -Total Gradient:
     Atom            X                  Y                   Z
    ------   -----------------  -----------------  -----------------
       1        0.000574351617    -0.000389798670    -0.002621174310
       2       -0.000384877081     0.000129013740     0.002917360670
       3       -0.001453658799     0.001780885997     0.001120263563
       4        0.000001011642     0.000009897303     0.000016662491
       5       -0.000013026038    -0.000003757140     0.000008198124
       6        0.001264151685    -0.001535456393    -0.001452551899
       7        0.000009123354    -0.000001799891     0.000006561234
       8       -0.000006070321     0.000004006170     0.000011328453
       9        0.000008050249     0.000008706193     0.000000361606
      10        0.000000943692    -0.000001697308    -0.000007009932

  **** Optimization is complete! (in 5 steps) ****
    Final optimized geometry and variables:
    Molecular point group: c1

    Geometry (in Angstrom), charge = 0, multiplicity = 1:

    H           -1.005523263372    -1.241201378625     0.137026890968
    N           -1.219720685632    -0.285295126286    -0.052810064955
    C           -0.036745239737     0.559943457059     0.080771656795
    H           -1.576959130862    -0.255710234339    -0.982941777192
    C            1.281234464937    -0.202747526159     0.023499618557
    H           -0.046112319328     1.296459016592    -0.714523148242
    H           -0.091963525766     1.104913665712     1.016896590694
    H            1.395607442037    -0.712358791011    -0.927529901629
    H            2.124460439001     0.467090414813     0.152073946823
    H            1.329796790838    -0.948273034409     0.811218726499

  Mulliken Charges: (a.u.)
   Center  Symbol    Alpha    Beta     Spin     Total
       1     H     0.42981  0.42981  0.00000  0.14037
       2     N     3.69109  3.69109  0.00000 -0.38219
       3     C     3.01755  3.01755  0.00000 -0.03509
       4     H     0.42885  0.42885  0.00000  0.14231
       5     C     3.14312  3.14312  0.00000 -0.28623
       6     H     0.46030  0.46030  0.00000  0.07941
       7     H     0.46031  0.46031  0.00000  0.07938
       8     H     0.45764  0.45764  0.00000  0.08473
       9     H     0.45450  0.45450  0.00000  0.09099
      10     H     0.45684  0.45684  0.00000  0.08632

   Total alpha = 13.00000, Total beta = 13.00000, Total charge =  0.00000

*** Psi4 exiting successfully. Buy a developer a beer!
