  ==> Input File <==

--------------------------------------------------------------------------
set {
	reference rhf
	basis 6-31G*
}

set_num_threads( 1 )
memory 2 gb

molecule MOL {
0 1

H	 -3.135461	 -1.215070	 0.001379
O	 -2.310168	 -0.871793	 -0.309793
C	 -2.026376	 0.340750	 0.341611
C	 -0.673256	 0.843270	 -0.132153
H	 -2.792215	 1.080697	 0.115987
H	 -2.013526	 0.200402	 1.421792
C	 0.486613	 -0.083066	 0.235839
H	 -0.715586	 0.970948	 -1.210718
H	 -0.508072	 1.829858	 0.297090
C	 0.080684	 -1.557171	 0.281132
H	 0.887596	 0.214628	 1.199221
H	 1.291017	 0.045073	 -0.487595
C	 1.241133	 -2.483442	 0.643145
H	 -0.722141	 -1.686714	 1.003910
H	 -0.327634	 -1.851440	 -0.683817
H	 1.648694	 -2.236414	 1.619240
H	 0.923597	 -3.521419	 0.669954
H	 2.047571	 -2.402916	 -0.080515

	symmetry c1
}
set optking {
	frozen_dihedral = ("
		14 10 7 11,
		2 3 4 8,
		1 2 3 4
	")
}

ee = energy('scf')
oeprop('DIPOLE', 'QUADRUPOLE', 'MULLIKEN_CHARGES')
f=open( 'psi4out.xyz', 'w' )
f.write( "18  " )
f.write( str(ee) + "\n" )
f.write( MOL.save_string_xyz() )
f.close()
--------------------------------------------------------------------------

    Molecular point group: c1

    Geometry (in Angstrom), charge = 0, multiplicity = 1:

       Center              X                  Y                   Z               Mass
    ------------   -----------------  -----------------  -----------------  -----------------
           H         -2.555497976592    -0.558237363022    -0.173171587666     1.007825032070
           O         -1.730204976592    -0.214960363022    -0.484343587666    15.994914619560
           C         -1.446412976592     0.997582636978     0.167060412334    12.000000000000
           C         -0.093292976592     1.500102636978    -0.306703587666    12.000000000000
           H         -2.212251976592     1.737529636978    -0.058563587666     1.007825032070
           H         -1.433562976592     0.857234636978     1.247241412334     1.007825032070
           C          1.066576023408     0.573766636978     0.061288412334    12.000000000000
           H         -0.135622976592     1.627780636978    -1.385268587666     1.007825032070
           H          0.071891023408     2.486690636978     0.122539412334     1.007825032070
           C          0.660647023408    -0.900338363022     0.106581412334    12.000000000000
           H          1.467559023408     0.871460636978     1.024670412334     1.007825032070
           H          1.870980023408     0.701905636978    -0.662145587666     1.007825032070
           C          1.821096023408    -1.826609363022     0.468594412334    12.000000000000
           H         -0.142177976592    -1.029881363022     0.829359412334     1.007825032070
           H          0.252329023408    -1.194607363022    -0.858367587666     1.007825032070
           H          2.228657023408    -1.579581363022     1.444689412334     1.007825032070
           H          1.503560023408    -2.864586363022     0.495403412334     1.007825032070
           H          2.627534023408    -1.746083363022    -0.255065587666     1.007825032070

  Charge       = 0
  Multiplicity = 1
  Basis Set: 6-31G*
  Basis Set:

    Orbital Energies (a.u.)
    -----------------------

    Doubly Occupied:

       1A    -20.552183     2A    -11.269617     3A    -11.212389
       4A    -11.206127     5A    -11.194805     6A    -11.193849
       7A     -1.363620     8A     -1.071831     9A     -1.002114
      10A     -0.910596    11A     -0.826209    12A     -0.768662
      13A     -0.703923    14A     -0.655822    15A     -0.611042
      16A     -0.574966    17A     -0.568186    18A     -0.551470
      19A     -0.532770    20A     -0.498494    21A     -0.488848
      22A     -0.461037    23A     -0.446015    24A     -0.441334
      25A     -0.418154

  @DF-RHF Final Energy:  -271.16359130970022

   => Energetics <=

    Nuclear Repulsion Energy =            261.0393981779859587
    One-Electron Energy =                -885.3578058593698188
    Two-Electron Energy =                 353.1548163716834097
    DFT Exchange-Correlation Energy =       0.0000000000000000
    Empirical Dispersion Energy =           0.0000000000000000
    PCM Polarization Energy =               0.0000000000000000
    EFP Energy =                            0.0000000000000000
    Total Energy =                       -271.1635913097004504

  Mulliken Charges: (a.u.)
   Center  Symbol    Alpha    Beta     Spin     Total
       1     H     0.28113  0.28113  0.00000  0.43774
       2     O     4.36703  4.36703  0.00000 -0.73405
       3     C     3.00914  3.00914  0.00000 -0.01828
       4     C     3.15836  3.15836  0.00000 -0.31671
       5     H     0.42581  0.42581  0.00000  0.14839
       6     H     0.43139  0.43139  0.00000  0.13723
       7     C     3.15503  3.15503  0.00000 -0.31005
       8     H     0.41432  0.41432  0.00000  0.17137
       9     H     0.42131  0.42131  0.00000  0.15738
      10     C     3.14283  3.14283  0.00000 -0.28566
      11     H     0.42564  0.42564  0.00000  0.14872
      12     H     0.42196  0.42196  0.00000  0.15608
      13     C     3.23789  3.23789  0.00000 -0.47578
      14     H     0.42314  0.42314  0.00000  0.15372
      15     H     0.40936  0.40936  0.00000  0.18128
      16     H     0.42741  0.42741  0.00000  0.14517
      17     H     0.42242  0.42242  0.00000  0.15517
      18     H     0.42585  0.42585  0.00000  0.14830

   Total alpha = 25.00000, Total beta = 25.00000, Total charge = -0.00000
