                              Psi4 1.0.54 Driver

  ==> Input File <==

--------------------------------------------------------------------------
set {
	reference rhf
	basis cc-pvtz
}

set_num_threads( 4 )
memory 2 gb

molecule MOL {
0 1

O	 -2.081319	 -0.951530	 -0.502732
N	 -1.613558	 0.006676	 0.014756
C	 -0.329345	 -0.171618	 0.743966
O	 -2.068523	 1.100482	 -0.024385
C	 0.835904	 0.041968	 -0.213982
H	 -0.346048	 -1.174374	 1.137184
H	 -0.333613	 0.555559	 1.538590
C	 2.177039	 -0.130175	 0.494460
H	 0.754456	 -0.665923	 -1.030569
H	 0.765464	 1.037260	 -0.637266
C	 2.456484	 0.989155	 1.491200
H	 2.973242	 -0.164385	 -0.243327
H	 2.192734	 -1.085725	 1.010292
H	 2.480164	 1.954557	 0.998111
H	 1.692574	 1.027769	 2.259748
H	 3.411878	 0.842639	 1.979992

	symmetry c1
}
set optking {
	frozen_dihedral = ("
		11 8 5 9
	")
}

ee,wfn = optimize('scf', return_wfn=True)
oeprop( wfn, 'DIPOLE', 'QUADRUPOLE', 'MULLIKEN_CHARGES')
f=open( 'psi4out.xyz', 'w' )
f.write( "16  " )
f.write( str(ee) + "\n" )
f.write( MOL.save_string_xyz() )
f.close()
--------------------------------------------------------------------------

    Molecular point group: c1
  Charge       = 0
  Multiplicity = 1
  Basis Set: CC-PVTZ
  Basis Set:
  @DF-RHF Final Energy:  -360.90731603740340
    Total Energy =                       -360.9073160374036888
    Molecular point group: c1
  Basis Set: CC-PVTZ
  Basis Set:
  Basis Set: CC-PVTZ
  Basis Set:
  @DF-RHF Final Energy:  -360.90770208949903
    Total Energy =                       -360.9077020894988550
  Basis Set: CC-PVTZ
  Basis Set:
  Basis Set: CC-PVTZ
  Basis Set:
  @DF-RHF Final Energy:  -360.90745492674137
    Total Energy =                       -360.9074549267410248
  Basis Set: CC-PVTZ
  Basis Set:
  Basis Set: CC-PVTZ
  Basis Set:
  @DF-RHF Final Energy:  -360.90788576617018
    Total Energy =                       -360.9078857661701250
  Basis Set: CC-PVTZ
  Basis Set:
  Basis Set: CC-PVTZ
  Basis Set:
  @DF-RHF Final Energy:  -360.90787323747026
    Total Energy =                       -360.9078732374701985
  Basis Set: CC-PVTZ
  Basis Set:
  Basis Set: CC-PVTZ
  Basis Set:
  @DF-RHF Final Energy:  -360.90790499871412
    Total Energy =                       -360.9079049987138887
  Basis Set: CC-PVTZ
  Basis Set:
  Charge       = 0
  Multiplicity = 1
  Basis Set: CC-PVTZ
  Basis Set:

    Orbital Energies (a.u.)
    -----------------------

    Doubly Occupied:

       1A    -20.589578     2A    -20.589413     3A    -15.836077
       4A    -11.295804     5A    -11.250936     6A    -11.242007
       7A    -11.227817     8A     -1.635090     9A     -1.419330
      10A     -1.136479    11A     -1.058392    12A     -0.951218
      13A     -0.852527    14A     -0.820641    15A     -0.761233
      16A     -0.737523    17A     -0.725689    18A     -0.667448
      19A     -0.630737    20A     -0.603783    21A     -0.571946
      22A     -0.549484    23A     -0.513357    24A     -0.500641
      25A     -0.496348    26A     -0.485267    27A     -0.471068
      28A     -0.451927

  @DF-RHF Final Energy:  -360.90790575037585

   => Energetics <=

    Nuclear Repulsion Energy =            316.1471453898759023
    One-Electron Energy =               -1117.9665807128958477
    Two-Electron Energy =                 440.9115295726440991
    DFT Exchange-Correlation Energy =       0.0000000000000000
    Empirical Dispersion Energy =           0.0000000000000000
    PCM Polarization Energy =               0.0000000000000000
    EFP Energy =                            0.0000000000000000
    Total Energy =                       -360.9079057503757895
    Molecular point group: c1
  Basis Set: CC-PVTZ
  Basis Set:

  -Total Gradient:
     Atom            X                  Y                   Z
    ------   -----------------  -----------------  -----------------
       1       -0.000038034041     0.000071904576    -0.000043258194
       2        0.000041048102     0.000054702341     0.000084048402
       3       -0.000009774959     0.000022234372    -0.000001707449
       4       -0.000033572587    -0.000122987603    -0.000050557555
       5       -0.000234440507    -0.000464867362     0.000382215373
       6        0.000009694073    -0.000006209190     0.000009093823
       7        0.000024283250    -0.000009048548    -0.000003813782
       8       -0.000248728486    -0.000253267711     0.000407362896
       9        0.000281377475     0.000445202555    -0.000399774896
      10       -0.000001456130     0.000022919586    -0.000006988070
      11        0.000206455843     0.000249644939    -0.000354350185
      12        0.000010560985     0.000000687298    -0.000001425045
      13       -0.000002544483    -0.000006043406     0.000004713134
      14       -0.000003171397     0.000003344512     0.000002179706
      15        0.000000913880    -0.000002589005    -0.000013816073
      16       -0.000002611019    -0.000005627354    -0.000013922084

  **** Optimization is complete! (in 7 steps) ****
    Final optimized geometry and variables:
    Molecular point group: c1

    Geometry (in Angstrom), charge = 0, multiplicity = 1:

    O           -1.942537706734    -1.115640009565    -0.780340306124
    N           -1.491676223266    -0.132883802226    -0.294766129621
    C           -0.227194307879    -0.270901145723     0.476776970742
    O           -1.949309946589     0.955866425500    -0.396009426138
    C            0.959140059321    -0.070101199695    -0.460272150388
    H           -0.239923549787    -1.263291112672     0.895845403669
    H           -0.271712843818     0.476546705762     1.249505366113
    C            2.304127237533    -0.247227327386     0.246584143503
    H            0.881189388775    -0.784019255523    -1.271062585235
    H            0.898527811215     0.920404441641    -0.896436173296
    C            2.642265960366     0.850579635290     1.251931022938
    H            3.074611932098    -0.272425622668    -0.515667502579
    H            2.331910123322    -1.216562576557     0.735772018809
    H            2.625852234827     1.827305836509     0.781029556098
    H            1.948167009663     0.872700241977     2.084209968599
    H            3.632687251436     0.697642100099     1.662828271848

  Mulliken Charges: (a.u.)
   Center  Symbol    Alpha    Beta     Spin     Total
       1     O     4.17374  4.17374  0.00000 -0.34748
       2     N     3.27506  3.27506  0.00000  0.44989
       3     C     3.04204  3.04204  0.00000 -0.08407
       4     O     4.17404  4.17404  0.00000 -0.34808
       5     C     3.10880  3.10880  0.00000 -0.21760
       6     H     0.43409  0.43409  0.00000  0.13182
       7     H     0.43359  0.43359  0.00000  0.13281
       8     C     3.09822  3.09822  0.00000 -0.19645
       9     H     0.43165  0.43165  0.00000  0.13669
      10     H     0.43749  0.43749  0.00000  0.12501
      11     C     3.15083  3.15083  0.00000 -0.30167
      12     H     0.44235  0.44235  0.00000  0.11531
      13     H     0.44978  0.44978  0.00000  0.10043
      14     H     0.44998  0.44998  0.00000  0.10003
      15     H     0.45552  0.45552  0.00000  0.08896
      16     H     0.44281  0.44281  0.00000  0.11438

   Total alpha = 28.00000, Total beta = 28.00000, Total charge =  0.00000

*** Psi4 exiting successfully. Buy a developer a beer!
