                              Psi4 1.0.54 Driver

  ==> Input File <==

--------------------------------------------------------------------------
set {
	reference rhf
	basis cc-pvtz
}

set_num_threads( 4 )
memory 2 gb

molecule MOL {
0 1

H	 -3.227674	 3.040315	 -0.154558
C	 -3.578391	 2.035283	 0.117091
C	 -2.653809	 0.914422	 -0.273689
O	 -4.616968	 1.899320	 0.664978
C	 -1.216901	 1.136108	 0.207794
H	 -3.061547	 -0.015167	 0.101742
H	 -2.663450	 0.868936	 -1.360492
C	 -0.247837	 0.040196	 -0.230469
H	 -0.872882	 2.093195	 -0.169002
H	 -1.209325	 1.218376	 1.291938
C	 1.181757	 0.280428	 0.247371
H	 -0.259600	 -0.030819	 -1.314870
H	 -0.591284	 -0.923375	 0.136958
C	 2.151032	 -0.811012	 -0.202643
H	 1.515939	 1.247397	 -0.115449
H	 1.191514	 0.341223	 1.333422
C	 3.580021	 -0.656538	 0.320835
H	 2.170545	 -0.847575	 -1.289412
H	 1.766632	 -1.772905	 0.124928
C	 4.327657	 0.562694	 -0.213579
H	 4.138806	 -1.549270	 0.057813
H	 3.561991	 -0.620783	 1.406976
H	 4.355973	 0.557257	 -1.298551
H	 3.867136	 1.491650	 0.100501
H	 5.351524	 0.571613	 0.142204

	symmetry c1
}
set optking {
	frozen_dihedral = ("
		6 3 5 8
	")
}

ee,wfn = optimize('scf', return_wfn=True)
oeprop( wfn, 'DIPOLE', 'QUADRUPOLE', 'MULLIKEN_CHARGES')
f=open( 'psi4out.xyz', 'w' )
f.write( "25  " )
f.write( str(ee) + "\n" )
f.write( MOL.save_string_xyz() )
f.close()
--------------------------------------------------------------------------

    Molecular point group: c1
  Charge       = 0
  Multiplicity = 1
  Basis Set: CC-PVTZ
  Basis Set:
  @DF-RHF Final Energy:  -387.26082145230077
    Total Energy =                       -387.2608214523012293
    Molecular point group: c1
  Basis Set: CC-PVTZ
  Basis Set:
  Basis Set: CC-PVTZ
  Basis Set:
  @DF-RHF Final Energy:  -387.26087401824276
    Total Energy =                       -387.2608740182425890
  Basis Set: CC-PVTZ
  Basis Set:
  Basis Set: CC-PVTZ
  Basis Set:
  @DF-RHF Final Energy:  -387.26065433927573
    Total Energy =                       -387.2606543392756748
  Basis Set: CC-PVTZ
  Basis Set:
  Basis Set: CC-PVTZ
  Basis Set:
  @DF-RHF Final Energy:  -387.26094888557532
    Total Energy =                       -387.2609488855753170
  Basis Set: CC-PVTZ
  Basis Set:
  Basis Set: CC-PVTZ
  Basis Set:
  @DF-RHF Final Energy:  -387.26095621321372
    Total Energy =                       -387.2609562132134897
  Basis Set: CC-PVTZ
  Basis Set:
  Basis Set: CC-PVTZ
  Basis Set:
  @DF-RHF Final Energy:  -387.26096008136653
    Total Energy =                       -387.2609600813666475
  Basis Set: CC-PVTZ
  Basis Set:
  Basis Set: CC-PVTZ
  Basis Set:
  @DF-RHF Final Energy:  -387.26096312958487
    Total Energy =                       -387.2609631295856616
  Basis Set: CC-PVTZ
  Basis Set:
  Charge       = 0
  Multiplicity = 1
  Basis Set: CC-PVTZ
  Basis Set:

    Orbital Energies (a.u.)
    -----------------------

    Doubly Occupied:

       1A    -20.551533     2A    -11.320768     3A    -11.233818
       4A    -11.233193     5A    -11.224142     6A    -11.218874
       7A    -11.217619     8A    -11.216804     9A    -11.209976
      10A     -1.406186    11A     -1.106275    12A     -1.072090
      13A     -1.016436    14A     -0.945804    15A     -0.875970
      16A     -0.813564    17A     -0.795283    18A     -0.781800
      19A     -0.681154    20A     -0.658152    21A     -0.637298
      22A     -0.622230    23A     -0.615016    24A     -0.591300
      25A     -0.570802    26A     -0.556689    27A     -0.532898
      28A     -0.526142    29A     -0.514761    30A     -0.496958
      31A     -0.487880    32A     -0.480603    33A     -0.466817
      34A     -0.460710    35A     -0.453070    36A     -0.409410

  @DF-RHF Final Energy:  -387.26096474831712

   => Energetics <=

    Nuclear Repulsion Energy =            432.5447856869149632
    One-Electron Energy =               -1381.6074487871592282
    Two-Electron Energy =                 561.8016983519271434
    DFT Exchange-Correlation Energy =       0.0000000000000000
    Empirical Dispersion Energy =           0.0000000000000000
    PCM Polarization Energy =               0.0000000000000000
    EFP Energy =                            0.0000000000000000
    Total Energy =                       -387.2609647483170647
    Molecular point group: c1
  Basis Set: CC-PVTZ
  Basis Set:

  -Total Gradient:
     Atom            X                  Y                   Z
    ------   -----------------  -----------------  -----------------
       1        0.000004825057     0.000031651272    -0.000012059581
       2        0.000227454391     0.000015223571    -0.000130076003
       3       -0.000121688011     0.000087569708     0.000212128201
       4       -0.000199641762    -0.000044572000     0.000130668869
       5        0.000051338489     0.000081464334    -0.000127145375
       6        0.000091746653    -0.000087081281    -0.000140326430
       7        0.000000482363     0.000007743195    -0.000004330307
       8       -0.000016202094    -0.000088953193     0.000083306999
       9       -0.000029532709    -0.000013116693    -0.000006783296
      10       -0.000007046500     0.000018365939     0.000009139459
      11       -0.000008892953    -0.000003164723     0.000000530090
      12        0.000013386292    -0.000010431846    -0.000006457287
      13        0.000004427072     0.000002522476    -0.000000743848
      14       -0.000006773344    -0.000029057622     0.000022678714
      15        0.000024143239     0.000024660493    -0.000004480324
      16        0.000001190376     0.000000347072    -0.000007785011
      17        0.000010347012    -0.000019195400    -0.000028846291
      18        0.000003336224     0.000011310565     0.000006507280
      19       -0.000005301894    -0.000006642087    -0.000009075253
      20       -0.000009752468    -0.000001278426    -0.000000409218
      21        0.000000007893    -0.000005696110     0.000008210472
      22       -0.000004571712     0.000009115273    -0.000003790487
      23       -0.000003260983    -0.000003051553     0.000006460304
      24       -0.000022524099     0.000019444170     0.000001574260
      25        0.000002503480     0.000002822864     0.000001104064

  **** Optimization is complete! (in 8 steps) ****
    Final optimized geometry and variables:
    Molecular point group: c1

    Geometry (in Angstrom), charge = 0, multiplicity = 1:

    H           -3.173569313284     2.413606522521    -0.309008256388
    C           -3.463938575096     1.412920840781     0.037546622466
    C           -2.535508035671     0.302443284615    -0.368510821972
    O           -4.443557831546     1.272490888141     0.684652513257
    C           -1.103163892568     0.549871559514     0.112020526490
    H           -2.925078178555    -0.630291330365     0.017531740956
    H           -2.547091367864     0.249175483305    -1.455214472161
    C           -0.136485685661    -0.546504945053    -0.326331218531
    H           -0.755750281511     1.508808728564    -0.263445142509
    H           -1.098918077838     0.623380669302     1.195727280505
    C            1.292511417821    -0.317633980662     0.158554373896
    H           -0.142225038572    -0.615415815853    -1.411378245350
    H           -0.493308227158    -1.504597487592     0.041761179153
    C            2.254516201382    -1.417705935221    -0.286095515682
    H            1.637221485201     0.646130293718    -0.202938405924
    H            1.296623766826    -0.256722166445     1.244362462770
    C            3.681614712657    -1.275860396221     0.245942871527
    H            2.280633159862    -1.454112344461    -1.372861957946
    H            1.859606380187    -2.376250645397     0.039122176046
    C            4.441962348045    -0.061993865053    -0.282668182422
    H            4.234669009449    -2.172890861537    -0.014643093824
    H            3.657112717040    -1.240934354735     1.331894506430
    H            4.476266704699    -0.066206521843    -1.367498212655
    H            3.987232088876     0.870183270390     0.030277260097
    H            5.463850158138    -0.061853152001     0.078766185043

  Mulliken Charges: (a.u.)
   Center  Symbol    Alpha    Beta     Spin     Total
       1     H     0.46511  0.46511  0.00000  0.06979
       2     C     2.91113  2.91113  0.00000  0.17775
       3     C     3.07578  3.07578  0.00000 -0.15156
       4     O     4.16442  4.16442  0.00000 -0.32884
       5     C     3.10632  3.10632  0.00000 -0.21263
       6     H     0.44253  0.44253  0.00000  0.11495
       7     H     0.44990  0.44990  0.00000  0.10020
       8     C     3.08863  3.08863  0.00000 -0.17726
       9     H     0.45153  0.45153  0.00000  0.09694
      10     H     0.44545  0.44545  0.00000  0.10910
      11     C     3.09234  3.09234  0.00000 -0.18468
      12     H     0.45325  0.45325  0.00000  0.09350
      13     H     0.45024  0.45024  0.00000  0.09952
      14     C     3.09617  3.09617  0.00000 -0.19233
      15     H     0.45221  0.45221  0.00000  0.09558
      16     H     0.45291  0.45291  0.00000  0.09417
      17     C     3.09054  3.09054  0.00000 -0.18107
      18     H     0.45367  0.45367  0.00000  0.09265
      19     H     0.44880  0.44880  0.00000  0.10240
      20     C     3.15267  3.15267  0.00000 -0.30534
      21     H     0.44781  0.44781  0.00000  0.10437
      22     H     0.45414  0.45414  0.00000  0.09173
      23     H     0.45481  0.45481  0.00000  0.09037
      24     H     0.45401  0.45401  0.00000  0.09198
      25     H     0.44565  0.44565  0.00000  0.10871

   Total alpha = 36.00000, Total beta = 36.00000, Total charge = -0.00000

*** Psi4 exiting successfully. Buy a developer a beer!
