  ==> Input File <==

--------------------------------------------------------------------------
set {
	reference rhf
	basis 6-31G*
}

set_num_threads( 1 )
memory 2 gb

molecule MOL {
0 1

O	 -2.821601	 1.309235	 -0.001213
C	 -2.668563	 0.129746	 -0.000350
C	 -3.801572	 -0.864014	 -0.000442
O	 -1.481751	 -0.454642	 0.000584
H	 -4.417280	 -0.689587	 -0.874708
H	 -3.443784	 -1.883046	 -0.000565
H	 -4.417179	 -0.689832	 0.873954
C	 -0.334255	 0.388708	 0.000906
C	 0.891947	 -0.504646	 0.000751
H	 -0.365390	 1.025305	 -0.873475
H	 -0.365484	 1.024911	 0.875569
C	 2.191998	 0.301789	 0.000897
H	 0.855148	 -1.151283	 -0.871571
H	 0.855132	 -1.151660	 0.872805
C	 3.033226	 0.075919	 1.258532
H	 2.782102	 0.040788	 -0.875882
H	 1.962436	 1.362004	 -0.090348
C	 4.332344	 0.880382	 1.258014
H	 3.263834	 -0.983010	 1.351067
H	 2.445854	 0.338437	 2.135543
H	 4.957472	 0.615387	 0.410072
H	 4.906385	 0.699248	 2.161288
H	 4.133350	 1.946748	 1.200789

	symmetry c1
}
set optking {
	frozen_dihedral = ("
		13 9 8 10,
		2 4 8 10,
		19 15 12 16,
		1 2 4 8
	")
}

ee = energy('scf')
oeprop('DIPOLE', 'QUADRUPOLE', 'MULLIKEN_CHARGES')
f=open( 'psi4out.xyz', 'w' )
f.write( "23  " )
f.write( str(ee) + "\n" )
f.write( MOL.save_string_xyz() )
f.close()
--------------------------------------------------------------------------

    Molecular point group: c1

    Geometry (in Angstrom), charge = 0, multiplicity = 1:

       Center              X                  Y                   Z               Mass
    ------------   -----------------  -----------------  -----------------  -----------------
           O         -2.730634137892     1.162638550888    -0.282178430028    15.994914619560
           C         -2.577596137892    -0.016850449112    -0.281315430028    12.000000000000
           C         -3.710605137892    -1.010610449112    -0.281407430028    12.000000000000
           O         -1.390784137892    -0.601238449112    -0.280381430028    15.994914619560
           H         -4.326313137892    -0.836183449112    -1.155673430028     1.007825032070
           H         -3.352817137892    -2.029642449112    -0.281530430028     1.007825032070
           H         -4.326212137892    -0.836428449112     0.592988569972     1.007825032070
           C         -0.243288137892     0.242111550888    -0.280059430028    12.000000000000
           C          0.982913862108    -0.651242449112    -0.280214430028    12.000000000000
           H         -0.274423137892     0.878708550888    -1.154440430028     1.007825032070
           H         -0.274517137892     0.878314550888     0.594603569972     1.007825032070
           C          2.282964862108     0.155192550888    -0.280068430028    12.000000000000
           H          0.946114862108    -1.297879449112    -1.152536430028     1.007825032070
           H          0.946098862108    -1.298256449112     0.591839569972     1.007825032070
           C          3.124192862108    -0.070677449112     0.977566569972    12.000000000000
           H          2.873068862108    -0.105808449112    -1.156847430028     1.007825032070
           H          2.053402862108     1.215407550888    -0.371313430028     1.007825032070
           C          4.423310862108     0.733785550888     0.977048569972    12.000000000000
           H          3.354800862108    -1.129606449112     1.070101569972     1.007825032070
           H          2.536820862108     0.191840550888     1.854577569972     1.007825032070
           H          5.048438862108     0.468790550888     0.129106569972     1.007825032070
           H          4.997351862108     0.552651550888     1.880322569972     1.007825032070
           H          4.224316862108     1.800151550888     0.919823569972     1.007825032070

  Charge       = 0
  Multiplicity = 1
  Basis Set: 6-31G*
  Basis Set:

    Orbital Energies (a.u.)
    -----------------------

    Doubly Occupied:

       1A    -20.602812     2A    -20.540532     3A    -11.374072
       4A    -11.282061     5A    -11.232321     6A    -11.222985
       7A    -11.222398     8A    -11.221692     9A    -11.212384
      10A     -1.467945    11A     -1.360733    12A     -1.094736
      13A     -1.041527    14A     -1.003082    15A     -0.930719
      16A     -0.843492    17A     -0.800858    18A     -0.776866
      19A     -0.688882    20A     -0.684890    21A     -0.671986
      22A     -0.637003    23A     -0.613354    24A     -0.586258
      25A     -0.580287    26A     -0.571676    27A     -0.559965
      28A     -0.532889    29A     -0.525673    30A     -0.501562
      31A     -0.496633    32A     -0.478965    33A     -0.468255
      34A     -0.462084    35A     -0.449795    36A     -0.435375

  @DF-RHF Final Energy:  -422.97437142603673

   => Energetics <=

    Nuclear Repulsion Energy =            452.2205681632828487
    One-Electron Energy =               -1472.0362823872658282
    Two-Electron Energy =                 596.8413427979477319
    DFT Exchange-Correlation Energy =       0.0000000000000000
    Empirical Dispersion Energy =           0.0000000000000000
    PCM Polarization Energy =               0.0000000000000000
    EFP Energy =                            0.0000000000000000
    Total Energy =                       -422.9743714260351908

  Mulliken Charges: (a.u.)
   Center  Symbol    Alpha    Beta     Spin     Total
       1     O     4.28396  4.28396  0.00000 -0.56793
       2     C     2.61552  2.61552  0.00000  0.76895
       3     C     3.28777  3.28777  0.00000 -0.57554
       4     O     4.31235  4.31235  0.00000 -0.62470
       5     H     0.39751  0.39751  0.00000  0.20497
       6     H     0.39985  0.39985  0.00000  0.20031
       7     H     0.39754  0.39754  0.00000  0.20492
       8     C     3.00058  3.00058  0.00000 -0.00116
       9     C     3.16534  3.16534  0.00000 -0.33067
      10     H     0.40987  0.40987  0.00000  0.18027
      11     H     0.41061  0.41061  0.00000  0.17877
      12     C     3.16362  3.16362  0.00000 -0.32724
      13     H     0.41187  0.41187  0.00000  0.17626
      14     H     0.41147  0.41147  0.00000  0.17705
      15     C     3.15376  3.15376  0.00000 -0.30752
      16     H     0.41691  0.41691  0.00000  0.16617
      17     H     0.41876  0.41876  0.00000  0.16249
      18     C     3.24051  3.24051  0.00000 -0.48103
      19     H     0.42062  0.42062  0.00000  0.15876
      20     H     0.42181  0.42181  0.00000  0.15639
      21     H     0.42104  0.42104  0.00000  0.15792
      22     H     0.41811  0.41811  0.00000  0.16378
      23     H     0.42060  0.42060  0.00000  0.15879

   Total alpha = 36.00000, Total beta = 36.00000, Total charge =  0.00000
