                              Psi4 1.0.54 Driver

  ==> Input File <==

--------------------------------------------------------------------------
set {
	reference rhf
	basis cc-pvtz
}

set_num_threads( 4 )
memory 2 gb

molecule MOL {
0 1

O	 1.135774	 0.546776	 -0.962219
C	 0.576499	 0.134701	 -0.003900
C	 -0.765656	 -0.550508	 -0.002152
O	 1.066982	 0.233637	 1.220686
C	 -1.945526	 0.411052	 0.000603
H	 -0.794329	 -1.203792	 -0.868145
H	 -0.791555	 -1.205429	 0.862701
C	 -3.282915	 -0.321280	 0.002596
H	 -1.880300	 1.059126	 -0.864925
H	 -1.877207	 1.057892	 0.866807
H	 -3.388495	 -0.952755	 -0.873419
H	 -4.107811	 0.380864	 0.004116
H	 -3.385717	 -0.953283	 0.878571
C	 2.324365	 0.862530	 1.367289
H	 3.084388	 0.327493	 0.817603
H	 2.544758	 0.843467	 2.422160
H	 2.284388	 1.881753	 1.012847

	symmetry c1
}
set optking {
	frozen_dihedral = ("
		1 2 3 6
	")
}

ee,wfn = optimize('scf', return_wfn=True)
oeprop( wfn, 'DIPOLE', 'QUADRUPOLE', 'MULLIKEN_CHARGES')
f=open( 'psi4out.xyz', 'w' )
f.write( "17  " )
f.write( str(ee) + "\n" )
f.write( MOL.save_string_xyz() )
f.close()
--------------------------------------------------------------------------

    Molecular point group: c1
  Charge       = 0
  Multiplicity = 1
  Basis Set: CC-PVTZ
  Basis Set:
  @DF-RHF Final Energy:  -345.03334381592492
    Total Energy =                       -345.0333438159244679
    Molecular point group: c1
  Basis Set: CC-PVTZ
  Basis Set:
  Basis Set: CC-PVTZ
  Basis Set:
  @DF-RHF Final Energy:  -345.03365584937160
    Total Energy =                       -345.0336558493713710
  Basis Set: CC-PVTZ
  Basis Set:
  Basis Set: CC-PVTZ
  Basis Set:
  @DF-RHF Final Energy:  -345.03404766891333
    Total Energy =                       -345.0340476689131037
  Basis Set: CC-PVTZ
  Basis Set:
  Basis Set: CC-PVTZ
  Basis Set:
  @DF-RHF Final Energy:  -345.03409168681623
    Total Energy =                       -345.0340916868165095
  Basis Set: CC-PVTZ
  Basis Set:
  Basis Set: CC-PVTZ
  Basis Set:
  @DF-RHF Final Energy:  -345.03409371713252
    Total Energy =                       -345.0340937171329188
  Basis Set: CC-PVTZ
  Basis Set:
  Charge       = 0
  Multiplicity = 1
  Basis Set: CC-PVTZ
  Basis Set:

    Orbital Energies (a.u.)
    -----------------------

    Doubly Occupied:

       1A    -20.598369     2A    -20.531739     3A    -11.363741
       4A    -11.278662     5A    -11.232485     6A    -11.229979
       7A    -11.216463     8A     -1.472351     9A     -1.364648
      10A     -1.084813    11A     -1.001064    12A     -0.942420
      13A     -0.830165    14A     -0.775562    15A     -0.700200
      16A     -0.683160    17A     -0.676288    18A     -0.637670
      19A     -0.596563    20A     -0.583916    21A     -0.556827
      22A     -0.541056    23A     -0.527722    24A     -0.507090
      25A     -0.487280    26A     -0.485102    27A     -0.457991
      28A     -0.436279

  @DF-RHF Final Energy:  -345.03409404177955

   => Energetics <=

    Nuclear Repulsion Energy =            314.1476413263119412
    One-Electron Energy =               -1092.7642586434101304
    Two-Electron Energy =                 433.5825232753190903
    DFT Exchange-Correlation Energy =       0.0000000000000000
    Empirical Dispersion Energy =           0.0000000000000000
    PCM Polarization Energy =               0.0000000000000000
    EFP Energy =                            0.0000000000000000
    Total Energy =                       -345.0340940417790989
    Molecular point group: c1
  Basis Set: CC-PVTZ
  Basis Set:

  -Total Gradient:
     Atom            X                  Y                   Z
    ------   -----------------  -----------------  -----------------
       1       -0.000165556877     0.000284135326     0.000139015568
       2        0.000253260732    -0.000475141279    -0.000149652185
       3       -0.000264291875     0.000440307013    -0.000172611451
       4        0.000061535300     0.000001995462     0.000016153110
       5       -0.000016397371     0.000008734976    -0.000003598597
       6        0.000139772899    -0.000273405745     0.000169824376
       7        0.000009412084     0.000009031204    -0.000013717236
       8        0.000008454544     0.000001307520     0.000006612962
       9       -0.000003411794    -0.000007165929     0.000005393355
      10       -0.000010896662     0.000003827003    -0.000003134042
      11        0.000003958928     0.000001104444    -0.000002855235
      12        0.000009544920     0.000005742997     0.000002349891
      13       -0.000000543188    -0.000003654313     0.000000091443
      14       -0.000042359924     0.000014404436     0.000009342978
      15        0.000003180174    -0.000009721532    -0.000007267991
      16        0.000006703850    -0.000000691450     0.000000773602
      17        0.000007634260    -0.000000810132     0.000003279453

  **** Optimization is complete! (in 6 steps) ****
    Final optimized geometry and variables:
    Molecular point group: c1

    Geometry (in Angstrom), charge = 0, multiplicity = 1:

    O            1.160222135386     0.385985693205    -1.210899326701
    C            0.666768160118    -0.080235935453    -0.240217391571
    C           -0.657726814520    -0.797811049560    -0.222768366631
    O            1.211047952373     0.005913573235     0.961581454383
    C           -1.821658466417     0.199403164209    -0.206506995789
    H           -0.706952010367    -1.406636780443    -1.116060461305
    H           -0.707345164239    -1.445180860879     0.642186955302
    C           -3.176911205204    -0.497630332914    -0.217702232239
    H           -1.736054586372     0.852737542253    -1.066799239140
    H           -1.742762105824     0.826789767985     0.675565871235
    H           -3.293186194921    -1.111001342933    -1.104558362936
    H           -3.983342972050     0.225781282001    -0.206909297002
    H           -3.295595552571    -1.139873002822     0.648258273717
    C            2.436612125955     0.702313994328     1.068595787061
    H            3.196514608110     0.229663093494     0.464352619513
    H            2.711045537056     0.663519153997     2.110255089291
    H            2.321037198188     1.727837815399     0.750655851951

  Mulliken Charges: (a.u.)
   Center  Symbol    Alpha    Beta     Spin     Total
       1     O     4.20485  4.20485  0.00000 -0.40969
       2     C     2.80701  2.80701  0.00000  0.38598
       3     C     3.07850  3.07850  0.00000 -0.15699
       4     O     4.14803  4.14803  0.00000 -0.29605
       5     C     3.09131  3.09131  0.00000 -0.18262
       6     H     0.44141  0.44141  0.00000  0.11717
       7     H     0.44338  0.44338  0.00000  0.11324
       8     C     3.15136  3.15136  0.00000 -0.30273
       9     H     0.44212  0.44212  0.00000  0.11576
      10     H     0.44943  0.44943  0.00000  0.10115
      11     H     0.45300  0.45300  0.00000  0.09400
      12     H     0.44610  0.44610  0.00000  0.10781
      13     H     0.45438  0.45438  0.00000  0.09124
      14     C     3.03592  3.03592  0.00000 -0.07183
      15     H     0.45343  0.45343  0.00000  0.09315
      16     H     0.44543  0.44543  0.00000  0.10915
      17     H     0.45436  0.45436  0.00000  0.09128

   Total alpha = 28.00000, Total beta = 28.00000, Total charge = -0.00000

*** Psi4 exiting successfully. Buy a developer a beer!
