                              Psi4 1.0.54 Driver

  ==> Input File <==

--------------------------------------------------------------------------
set {
	reference rhf
	basis cc-pvtz
}

set_num_threads( 4 )
memory 2 gb

molecule MOL {
0 1

H	 1.621798	 3.246858	 2.736870
N	 0.793555	 2.692907	 2.684249
C	 0.688685	 2.028535	 1.394647
H	 0.019341	 3.305872	 2.833293
C	 -0.531381	 1.120733	 1.349243
H	 1.583907	 1.431747	 1.255626
H	 0.646392	 2.728468	 0.559027
C	 -0.678115	 0.376691	 0.025731
H	 -0.466071	 0.413419	 2.169516
H	 -1.424059	 1.717189	 1.527708
C	 -1.900706	 -0.535531	 -0.022488
H	 0.215815	 -0.216072	 -0.154479
H	 -0.736163	 1.093702	 -0.789988
C	 -3.220513	 0.226854	 0.028039
H	 -1.865036	 -1.134397	 -0.928236
H	 -1.857948	 -1.236381	 0.806820
H	 -3.309098	 0.911849	 -0.808725
H	 -4.066838	 -0.449485	 -0.008086
H	 -3.301685	 0.809374	 0.939860

	symmetry c1
}
set optking {
	frozen_dihedral = ("
		12 8 11 15
	")
}

ee,wfn = optimize('scf', return_wfn=True)
oeprop( wfn, 'DIPOLE', 'QUADRUPOLE', 'MULLIKEN_CHARGES')
f=open( 'psi4out.xyz', 'w' )
f.write( "19  " )
f.write( str(ee) + "\n" )
f.write( MOL.save_string_xyz() )
f.close()
--------------------------------------------------------------------------

    Molecular point group: c1
  Charge       = 0
  Multiplicity = 1
  Basis Set: CC-PVTZ
  Basis Set:
  @DF-RHF Final Energy:  -251.44591326676118
    Total Energy =                       -251.4459132667611811
    Molecular point group: c1
  Basis Set: CC-PVTZ
  Basis Set:
  Basis Set: CC-PVTZ
  Basis Set:
  @DF-RHF Final Energy:  -251.44624180106331
    Total Energy =                       -251.4462418010634792
  Basis Set: CC-PVTZ
  Basis Set:
  Basis Set: CC-PVTZ
  Basis Set:
  @DF-RHF Final Energy:  -251.44643515897363
    Total Energy =                       -251.4464351589737134
  Basis Set: CC-PVTZ
  Basis Set:
  Basis Set: CC-PVTZ
  Basis Set:
  @DF-RHF Final Energy:  -251.44644098484457
    Total Energy =                       -251.4464409848447985
  Basis Set: CC-PVTZ
  Basis Set:
  Charge       = 0
  Multiplicity = 1
  Basis Set: CC-PVTZ
  Basis Set:

    Orbital Energies (a.u.)
    -----------------------

    Doubly Occupied:

       1A    -15.526352     2A    -11.237866     3A    -11.212252
       4A    -11.210755     5A    -11.207224     6A    -11.205126
       7A     -1.178124     8A     -1.073673     9A     -0.996602
      10A     -0.904462    11A     -0.822959    12A     -0.777947
      13A     -0.665844    14A     -0.633139    15A     -0.617049
      16A     -0.605201    17A     -0.565739    18A     -0.551816
      19A     -0.521527    20A     -0.501173    21A     -0.489049
      22A     -0.461422    23A     -0.455003    24A     -0.452045
      25A     -0.383715

  @DF-RHF Final Energy:  -251.44644118909216

   => Energetics <=

    Nuclear Repulsion Energy =            249.1316430752231383
    One-Electron Energy =                -832.6440400241400539
    Two-Electron Energy =                 332.0659557598248739
    DFT Exchange-Correlation Energy =       0.0000000000000000
    Empirical Dispersion Energy =           0.0000000000000000
    PCM Polarization Energy =               0.0000000000000000
    EFP Energy =                            0.0000000000000000
    Total Energy =                       -251.4464411890920701
    Molecular point group: c1
  Basis Set: CC-PVTZ
  Basis Set:

  -Total Gradient:
     Atom            X                  Y                   Z
    ------   -----------------  -----------------  -----------------
       1       -0.000000873236    -0.000002637887    -0.000004490614
       2       -0.000003045667    -0.000006368917     0.000003078651
       3        0.000004232582    -0.000002482267    -0.000004487948
       4       -0.000003000500    -0.000001079863    -0.000001505354
       5       -0.000006179911     0.000013998318     0.000000736977
       6        0.000001842535    -0.000002586915    -0.000002308506
       7       -0.000006181150    -0.000002268117     0.000003900497
       8        0.000041172243    -0.000064011834     0.000174754218
       9       -0.000001832704     0.000002911601    -0.000003374376
      10       -0.000005154376     0.000001503975     0.000002230621
      11       -0.000084757289     0.000128994592    -0.000098104771
      12       -0.000008968390     0.000028367280    -0.000141286416
      13        0.000001272361     0.000003837587     0.000004495564
      14       -0.000001455786     0.000003180004    -0.000003663141
      15        0.000073509659    -0.000098672871     0.000065348980
      16       -0.000003060784    -0.000003635782     0.000002043128
      17        0.000000549899     0.000000192693     0.000001670045
      18       -0.000002150618    -0.000000745911     0.000000065965
      19        0.000004081126     0.000001504313     0.000000896478

  **** Optimization is complete! (in 5 steps) ****
    Final optimized geometry and variables:
    Molecular point group: c1

    Geometry (in Angstrom), charge = 0, multiplicity = 1:

    H            2.536831726976     2.121937140532     1.817816695229
    N            1.680287137577     1.612762189323     1.765347082169
    C            1.530950999868     0.971062824704     0.468690792696
    H            0.940685487341     2.263818537605     1.928052987470
    C            0.266033431148     0.126240941501     0.423432236679
    H            2.393814110425     0.332113599762     0.313737930177
    H            1.516401289339     1.682917506986    -0.357846097650
    C            0.077132070170    -0.585276164017    -0.914259630976
    H            0.307759854828    -0.600884947805     1.228216765514
    H           -0.587481246329     0.766293779073     0.629088700479
    C           -1.132845044339    -1.519241631495    -0.976425022574
    H            0.970102777112    -1.166302513261    -1.128878449135
    H           -0.001680772550     0.152268381736    -1.709919166877
    C           -2.485575341887    -0.816342906324    -0.893971085634
    H           -1.087288208763    -2.078538470534    -1.905856564270
    H           -1.059187429822    -2.253109586352    -0.178395661090
    H           -2.585528445553    -0.071013636748    -1.676730688316
    H           -3.295655993227    -1.527128421736    -1.011058115086
    H           -2.626143659168    -0.317874099724     0.057483712693

  Mulliken Charges: (a.u.)
   Center  Symbol    Alpha    Beta     Spin     Total
       1     H     0.43027  0.43027  0.00000  0.13947
       2     N     3.68895  3.68895  0.00000 -0.37790
       3     C     3.02648  3.02648  0.00000 -0.05296
       4     H     0.43099  0.43099  0.00000  0.13803
       5     C     3.08418  3.08418  0.00000 -0.16837
       6     H     0.45666  0.45666  0.00000  0.08667
       7     H     0.46855  0.46855  0.00000  0.06289
       8     C     3.10001  3.10001  0.00000 -0.20002
       9     H     0.44907  0.44907  0.00000  0.10187
      10     H     0.45885  0.45885  0.00000  0.08231
      11     C     3.08937  3.08937  0.00000 -0.17874
      12     H     0.44993  0.44993  0.00000  0.10014
      13     H     0.45595  0.45595  0.00000  0.08811
      14     C     3.15250  3.15250  0.00000 -0.30500
      15     H     0.44887  0.44887  0.00000  0.10226
      16     H     0.45396  0.45396  0.00000  0.09207
      17     H     0.45556  0.45556  0.00000  0.08887
      18     H     0.44650  0.44650  0.00000  0.10700
      19     H     0.45335  0.45335  0.00000  0.09330

   Total alpha = 25.00000, Total beta = 25.00000, Total charge = -0.00000

*** Psi4 exiting successfully. Buy a developer a beer!
