  ==> Input File <==

--------------------------------------------------------------------------
set {
	reference rhf
	basis 6-31G*
}

set_num_threads( 1 )
memory 2 gb

molecule MOL {
0 1

H	 3.536210	 0.916870	 -1.666649
N	 2.758747	 0.285419	 -1.647483
C	 1.701355	 0.794837	 -0.786124
H	 3.104457	 -0.588762	 -1.299458
C	 0.481670	 -0.119323	 -0.835451
H	 1.425915	 1.780061	 -1.149890
H	 2.017508	 0.921687	 0.252315
C	 -0.679275	 0.379305	 0.025956
H	 0.166863	 -0.215587	 -1.870567
H	 0.771353	 -1.117140	 -0.507151
C	 -1.903357	 -0.536963	 -0.023547
H	 -0.967307	 1.377714	 -0.299723
H	 -0.349777	 0.479628	 1.059016
C	 -3.225172	 0.228290	 0.028445
H	 -1.867824	 -1.134999	 -0.931459
H	 -1.860449	 -1.239604	 0.805977
H	 -3.313397	 0.915643	 -0.808262
H	 -4.073500	 -0.448134	 -0.008893
H	 -3.306061	 0.809945	 0.942516

	symmetry c1
}
set optking {
	frozen_dihedral = ("
		6 3 5 9,
		12 8 5 9,
		1 2 3 6
	")
}

ee = energy('scf')
oeprop('DIPOLE', 'QUADRUPOLE', 'MULLIKEN_CHARGES')
f=open( 'psi4out.xyz', 'w' )
f.write( "19  " )
f.write( str(ee) + "\n" )
f.write( MOL.save_string_xyz() )
f.close()
--------------------------------------------------------------------------

    Molecular point group: c1

    Geometry (in Angstrom), charge = 0, multiplicity = 1:

       Center              X                  Y                   Z               Mass
    ------------   -----------------  -----------------  -----------------  -----------------
           H          3.646643886354     0.739760976097    -1.119221013286     1.007825032070
           N          2.869180886354     0.108309976097    -1.100055013286    14.003074004780
           C          1.811788886354     0.617727976097    -0.238696013286    12.000000000000
           H          3.214890886354    -0.765871023903    -0.752030013286     1.007825032070
           C          0.592103886354    -0.296432023903    -0.288023013286    12.000000000000
           H          1.536348886354     1.602951976097    -0.602462013286     1.007825032070
           H          2.127941886354     0.744577976097     0.799742986714     1.007825032070
           C         -0.568841113646     0.202195976097     0.573383986714    12.000000000000
           H          0.277296886354    -0.392696023903    -1.323139013286     1.007825032070
           H          0.881786886354    -1.294249023903     0.040276986714     1.007825032070
           C         -1.792923113646    -0.714072023903     0.523880986714    12.000000000000
           H         -0.856873113646     1.200604976097     0.247704986714     1.007825032070
           H         -0.239343113646     0.302518976097     1.606443986714     1.007825032070
           C         -3.114738113646     0.051180976097     0.575872986714    12.000000000000
           H         -1.757390113646    -1.312108023903    -0.384031013286     1.007825032070
           H         -1.750015113646    -1.416713023903     1.353404986714     1.007825032070
           H         -3.202963113646     0.738533976097    -0.260834013286     1.007825032070
           H         -3.963066113646    -0.625243023903     0.538534986714     1.007825032070
           H         -3.195627113646     0.632835976097     1.489943986714     1.007825032070

  Charge       = 0
  Multiplicity = 1
  Basis Set: 6-31G*
  Basis Set:

    Orbital Energies (a.u.)
    -----------------------

    Doubly Occupied:

       1A    -15.532392     2A    -11.239396     3A    -11.212794
       4A    -11.211624     5A    -11.209698     6A    -11.207375
       7A     -1.176494     8A     -1.072901     9A     -0.997836
      10A     -0.900141    11A     -0.813668    12A     -0.788829
      13A     -0.665370    14A     -0.637286    15A     -0.617189
      16A     -0.589640    17A     -0.572087    18A     -0.539840
      19A     -0.532465    20A     -0.496548    21A     -0.486614
      22A     -0.463472    23A     -0.456563    24A     -0.448662
      25A     -0.380798

  @DF-RHF Final Energy:  -251.34793843860189

   => Energetics <=

    Nuclear Repulsion Energy =            246.0743149710301054
    One-Electron Energy =                -826.3451217960820259
    Two-Electron Energy =                 328.9228683864502045
    DFT Exchange-Correlation Energy =       0.0000000000000000
    Empirical Dispersion Energy =           0.0000000000000000
    PCM Polarization Energy =               0.0000000000000000
    EFP Energy =                            0.0000000000000000
    Total Energy =                       -251.3479384386017728

  Mulliken Charges: (a.u.)
   Center  Symbol    Alpha    Beta     Spin     Total
       1     H     0.33252  0.33252  0.00000  0.33496
       2     N     3.92190  3.92190  0.00000 -0.84379
       3     C     3.06054  3.06054  0.00000 -0.12108
       4     H     0.33540  0.33540  0.00000  0.32920
       5     C     3.15336  3.15336  0.00000 -0.30672
       6     H     0.42081  0.42081  0.00000  0.15838
       7     H     0.43484  0.43484  0.00000  0.13032
       8     C     3.15707  3.15707  0.00000 -0.31414
       9     H     0.41281  0.41281  0.00000  0.17438
      10     H     0.42736  0.42736  0.00000  0.14528
      11     C     3.15248  3.15248  0.00000 -0.30497
      12     H     0.42216  0.42216  0.00000  0.15569
      13     H     0.42281  0.42281  0.00000  0.15437
      14     C     3.24019  3.24019  0.00000 -0.48037
      15     H     0.42032  0.42032  0.00000  0.15937
      16     H     0.42177  0.42177  0.00000  0.15646
      17     H     0.42129  0.42129  0.00000  0.15742
      18     H     0.42030  0.42030  0.00000  0.15940
      19     H     0.42207  0.42207  0.00000  0.15586

   Total alpha = 25.00000, Total beta = 25.00000, Total charge =  0.00000
