  ==> Input File <==

--------------------------------------------------------------------------
set {
	reference rhf
	basis 6-31G*
}

set_num_threads( 4 )
memory 2 gb

molecule MOL {
0 1

H	 -3.571158	 0.540474	 -0.139285
O	 -3.106200	 -0.271124	 0.011510
C	 -1.775819	 -0.076055	 0.001477
C	 -1.212014	 1.178967	 -0.208392
C	 -0.966287	 -1.185521	 0.210777
H	 -1.846601	 2.033688	 -0.369833
C	 0.159872	 1.319497	 -0.208105
H	 -1.424884	 -2.142860	 0.370347
C	 0.404080	 -1.028923	 0.208218
H	 0.608415	 2.281841	 -0.368736
C	 0.984182	 0.218375	 0.000000
H	 1.031869	 -1.888371	 0.370364
C	 2.452467	 0.370529	 0.000000
O	 3.228994	 -0.533774	 0.000000
H	 2.809473	 1.405765	 0.000000

	symmetry c1
}
set optking {
	frozen_dihedral = ("
		7 11 13 14
	")
}

ee = optimize('scf')
oeprop('DIPOLE', 'QUADRUPOLE', 'MULLIKEN_CHARGES')
f=open( 'psi4out.xyz', 'w' )
f.write( "15  " )
f.write( str(ee) + "\n" )
f.write( MOL.save_string_xyz() )
f.close()
--------------------------------------------------------------------------

    Molecular point group: c1
  Charge       = 0
  Multiplicity = 1
  Basis Set: 6-31G*
  Basis Set:
  @DF-RHF Final Energy:  -418.28921816724181
    Total Energy =                       -418.2892181672414154
    Molecular point group: c1
  Basis Set: 6-31G*
  Basis Set:
  Basis Set: 6-31G*
  Basis Set:
  @DF-RHF Final Energy:  -418.28905559036428
    Total Energy =                       -418.2890555903645691
  Basis Set: 6-31G*
  Basis Set:
  Basis Set: 6-31G*
  Basis Set:
  @DF-RHF Final Energy:  -418.28929212037457
    Total Energy =                       -418.2892921203747392
  Basis Set: 6-31G*
  Basis Set:
  Basis Set: 6-31G*
  Basis Set:
  @DF-RHF Final Energy:  -418.28949131430016
    Total Energy =                       -418.2894913143006761
  Basis Set: 6-31G*
  Basis Set:
  Basis Set: 6-31G*
  Basis Set:
  @DF-RHF Final Energy:  -418.28949576829314
    Total Energy =                       -418.2894957682931363
  Basis Set: 6-31G*
  Basis Set:
  Charge       = 0
  Multiplicity = 1
  Basis Set: 6-31G*
  Basis Set:

    Orbital Energies (a.u.)
    -----------------------

    Doubly Occupied:

       1A    -20.611236     2A    -20.555938     3A    -11.327949
       4A    -11.323906     5A    -11.263409     6A    -11.253670
       7A    -11.245197     8A    -11.238891     9A    -11.237680
      10A     -1.432333    11A     -1.397126    12A     -1.170577
      13A     -1.042959    14A     -1.036972    15A     -0.893717
      16A     -0.858516    17A     -0.802833    18A     -0.756728
      19A     -0.695536    20A     -0.685736    21A     -0.639402
      22A     -0.624527    23A     -0.609046    24A     -0.608330
      25A     -0.582487    26A     -0.557436    27A     -0.548516
      28A     -0.506629    29A     -0.483873    30A     -0.418407
      31A     -0.357306    32A     -0.326863

  @DF-RHF Final Energy:  -418.28949673149697

   => Energetics <=

    Nuclear Repulsion Energy =            401.3609707816963805
    One-Electron Energy =               -1365.1134799186370401
    Two-Electron Energy =                 545.4630124054438056
    DFT Exchange-Correlation Energy =       0.0000000000000000
    Empirical Dispersion Energy =           0.0000000000000000
    PCM Polarization Energy =               0.0000000000000000
    EFP Energy =                            0.0000000000000000
    Total Energy =                       -418.2894967314969108
    Molecular point group: c1
  Basis Set: 6-31G*
  Basis Set:

  -Total Gradient:
     Atom            X                  Y                   Z
    ------   -----------------  -----------------  -----------------
       1       -0.000001187021     0.000002528451     0.000002380513
       2        0.000006477314     0.000002439807     0.000003609363
       3        0.000007821083     0.000022877145    -0.000029491689
       4       -0.000033341301    -0.000008404028     0.000039496633
       5        0.000027727844    -0.000002246260    -0.000026404141
       6       -0.000001888551    -0.000001177539     0.000005756513
       7        0.000042709012    -0.000372776426    -0.001896273432
       8        0.000002483373    -0.000001028288    -0.000001901021
       9       -0.000049882724     0.000007881991     0.000087239326
      10       -0.000015693528    -0.000006793657     0.000009841159
      11       -0.000009928954     0.000514930899     0.001657068130
      12        0.000010655451    -0.000003769299    -0.000025243696
      13        0.000054045530    -0.000112456999     0.002428465235
      14       -0.000031215514    -0.000038043714    -0.002274504143
      15       -0.000008782022    -0.000003962083     0.000019961248

  **** Optimization is complete! (in 6 steps) ****
    Final optimized geometry and variables:
    Molecular point group: c1

    Geometry (in Angstrom), charge = 0, multiplicity = 1:

    H           -3.573888629445     0.547508096326    -0.157350803915
    O           -3.106597070731    -0.262102196032    -0.003483376555
    C           -1.777044051543    -0.061340981672    -0.005450934005
    C           -1.214541434273     1.189450214292    -0.209454661157
    C           -0.965743269046    -1.175272184652     0.208141540967
    H           -1.844174761699     2.046150353157    -0.378061476224
    C            0.163420155810     1.323993720819    -0.194153211950
    H           -1.429325689259    -2.131549768601     0.361034925081
    C            0.400254184709    -1.026989300363     0.213495797773
    H            0.598046405093     2.296307976515    -0.351040600665
    C            0.983140443901     0.227754963378     0.020168007242
    H            1.039193486714    -1.876313333570     0.367109285713
    C            2.451369017799     0.379237388758    -0.006590024882
    O            3.227264120031    -0.525367934958    -0.002835148130
    H            2.808621500559     1.413445596173    -0.052852889043

  Mulliken Charges: (a.u.)
   Center  Symbol    Alpha    Beta     Spin     Total
       1     H     0.26884  0.26884  0.00000  0.46232
       2     O     4.37255  4.37255  0.00000 -0.74510
       3     C     2.78506  2.78506  0.00000  0.42988
       4     C     3.14918  3.14918  0.00000 -0.29835
       5     C     3.12658  3.12658  0.00000 -0.25315
       6     H     0.39895  0.39895  0.00000  0.20211
       7     C     3.09192  3.09192  0.00000 -0.18385
       8     H     0.38548  0.38548  0.00000  0.22904
       9     C     3.07894  3.07894  0.00000 -0.15787
      10     H     0.38997  0.38997  0.00000  0.22006
      11     C     3.06705  3.06705  0.00000 -0.13409
      12     H     0.37505  0.37505  0.00000  0.24989
      13     C     2.83154  2.83154  0.00000  0.33692
      14     O     4.25320  4.25320  0.00000 -0.50640
      15     H     0.42570  0.42570  0.00000  0.14859

   Total alpha = 32.00000, Total beta = 32.00000, Total charge =  0.00000
