  ==> Input File <==

--------------------------------------------------------------------------
set {
	reference rhf
	basis 6-31G*
}

set_num_threads( 1 )
memory 2 gb

molecule MOL {
0 1

H	 2.591676	 2.013956	 0.335017
O	 3.341076	 1.666752	 -0.126416
C	 3.569581	 0.339145	 0.272707
C	 4.305074	 0.229737	 1.603800
H	 2.590819	 -0.115286	 0.357508
H	 4.111786	 -0.203378	 -0.500896
C	 5.724239	 0.802673	 1.579618
H	 3.718911	 0.738751	 2.364513
H	 4.344227	 -0.821577	 1.884110
C	 6.454868	 0.628992	 2.914097
H	 5.678986	 1.857991	 1.325411
H	 6.298393	 0.314583	 0.791928
C	 7.910775	 1.109260	 2.918374
H	 5.902330	 1.148374	 3.694988
H	 6.439388	 -0.425255	 3.182471
C	 8.091465	 2.620217	 2.748550
H	 8.366793	 0.809249	 3.859574
H	 8.462882	 0.589791	 2.136603
C	 9.551613	 3.062770	 2.864959
H	 7.498735	 3.139405	 3.500365
H	 7.704473	 2.937276	 1.783141
C	 9.735530	 4.569764	 2.689439
H	 9.942491	 2.762407	 3.834745
H	 10.147105	 2.537759	 2.120891
H	 9.177784	 5.122832	 3.439944
H	 10.779979	 4.852074	 2.779233
H	 9.387693	 4.896570	 1.713441

	symmetry c1
}
set optking {
	frozen_dihedral = ("
		14 10 7 4,
		14 10 13 16,
		10 7 4 8,
		8 4 3 2,
		10 13 16 20,
		20 16 19 22
	")
}

ee = energy('scf')
oeprop('DIPOLE', 'QUADRUPOLE', 'MULLIKEN_CHARGES')
f=open( 'psi4out.xyz', 'w' )
f.write( "27  " )
f.write( str(ee) + "\n" )
f.write( MOL.save_string_xyz() )
f.close()
--------------------------------------------------------------------------

    Molecular point group: c1

    Geometry (in Angstrom), charge = 0, multiplicity = 1:

       Center              X                  Y                   Z               Mass
    ------------   -----------------  -----------------  -----------------  -----------------
           H         -3.875923620772     0.327890746601    -1.570543482237     1.007825032070
           O         -3.126523620772    -0.019313253399    -2.031976482237    15.994914619560
           C         -2.898018620772    -1.346920253399    -1.632853482237    12.000000000000
           C         -2.162525620772    -1.456328253399    -0.301760482237    12.000000000000
           H         -3.876780620772    -1.801351253399    -1.548052482237     1.007825032070
           H         -2.355813620772    -1.889443253399    -2.406456482237     1.007825032070
           C         -0.743360620772    -0.883392253399    -0.325942482237    12.000000000000
           H         -2.748688620772    -0.947314253399     0.458952517763     1.007825032070
           H         -2.123372620772    -2.507642253399    -0.021450482237     1.007825032070
           C         -0.012731620772    -1.057073253399     1.008536517763    12.000000000000
           H         -0.788613620772     0.171925746601    -0.580149482237     1.007825032070
           H         -0.169206620772    -1.371482253399    -1.113632482237     1.007825032070
           C          1.443175379228    -0.576805253399     1.012813517763    12.000000000000
           H         -0.565269620772    -0.537691253399     1.789427517763     1.007825032070
           H         -0.028211620772    -2.111320253399     1.276910517763     1.007825032070
           C          1.623865379228     0.934151746601     0.842989517763    12.000000000000
           H          1.899193379228    -0.876816253399     1.954013517763     1.007825032070
           H          1.995282379228    -1.096274253399     0.231042517763     1.007825032070
           C          3.084013379228     1.376704746601     0.959398517763    12.000000000000
           H          1.031135379228     1.453339746601     1.594804517763     1.007825032070
           H          1.236873379228     1.251210746601    -0.122419482237     1.007825032070
           C          3.267930379228     2.883698746601     0.783878517763    12.000000000000
           H          3.474891379228     1.076341746601     1.929184517763     1.007825032070
           H          3.679505379228     0.851693746601     0.215330517763     1.007825032070
           H          2.710184379228     3.436766746601     1.534383517763     1.007825032070
           H          4.312379379228     3.166008746601     0.873672517763     1.007825032070
           H          2.920093379228     3.210504746601    -0.192119482237     1.007825032070

  Charge       = 0
  Multiplicity = 1
  Basis Set: 6-31G*
  Basis Set:

    Orbital Energies (a.u.)
    -----------------------

    Doubly Occupied:

       1A    -20.551694     2A    -11.268438     3A    -11.215083
       4A    -11.211882     5A    -11.211536     6A    -11.210703
       7A    -11.209576     8A    -11.209094     9A    -11.205647
      10A     -1.359478    11A     -1.089818    12A     -1.057372
      13A     -1.008531    14A     -0.944048    15A     -0.882123
      16A     -0.817809    17A     -0.798932    18A     -0.773212
      19A     -0.685905    20A     -0.650520    21A     -0.640383
      22A     -0.608194    23A     -0.602711    24A     -0.584562
      25A     -0.569817    26A     -0.554107    27A     -0.535723
      28A     -0.519252    29A     -0.509500    30A     -0.490567
      31A     -0.476971    32A     -0.469172    33A     -0.463050
      34A     -0.456281    35A     -0.451293    36A     -0.437842
      37A     -0.418401

  @DF-RHF Final Energy:  -388.28005807117336

   => Energetics <=

    Nuclear Repulsion Energy =            458.8618528347419669
    One-Electron Energy =               -1435.9853250482008207
    Two-Electron Energy =                 588.8434141422874291
    DFT Exchange-Correlation Energy =       0.0000000000000000
    Empirical Dispersion Energy =           0.0000000000000000
    PCM Polarization Energy =               0.0000000000000000
    EFP Energy =                            0.0000000000000000
    Total Energy =                       -388.2800580711714247

  Mulliken Charges: (a.u.)
   Center  Symbol    Alpha    Beta     Spin     Total
       1     H     0.28110  0.28110  0.00000  0.43779
       2     O     4.37013  4.37013  0.00000 -0.74026
       3     C     2.99853  2.99853  0.00000  0.00295
       4     C     3.16168  3.16168  0.00000 -0.32335
       5     H     0.42977  0.42977  0.00000  0.14045
       6     H     0.41711  0.41711  0.00000  0.16579
       7     C     3.15520  3.15520  0.00000 -0.31040
       8     H     0.42688  0.42688  0.00000  0.14624
       9     H     0.42446  0.42446  0.00000  0.15108
      10     C     3.15289  3.15289  0.00000 -0.30579
      11     H     0.40942  0.40942  0.00000  0.18115
      12     H     0.42503  0.42503  0.00000  0.14993
      13     C     3.15276  3.15276  0.00000 -0.30552
      14     H     0.42493  0.42493  0.00000  0.15013
      15     H     0.42400  0.42400  0.00000  0.15200
      16     C     3.15312  3.15312  0.00000 -0.30623
      17     H     0.42274  0.42274  0.00000  0.15451
      18     H     0.42403  0.42403  0.00000  0.15194
      19     C     3.15105  3.15105  0.00000 -0.30209
      20     H     0.42530  0.42530  0.00000  0.14941
      21     H     0.42006  0.42006  0.00000  0.15988
      22     C     3.23914  3.23914  0.00000 -0.47828
      23     H     0.42387  0.42387  0.00000  0.15225
      24     H     0.42321  0.42321  0.00000  0.15359
      25     H     0.42227  0.42227  0.00000  0.15545
      26     H     0.41998  0.41998  0.00000  0.16003
      27     H     0.42133  0.42133  0.00000  0.15733

   Total alpha = 37.00000, Total beta = 37.00000, Total charge =  0.00000
