  ==> Input File <==

--------------------------------------------------------------------------
set {
	reference rhf
	basis 6-31G*
}

set_num_threads( 1 )
memory 2 gb

molecule MOL {
0 1

O	 -1.743222	 1.056285	 0.500149
C	 -1.083277	 0.139568	 0.115197
C	 0.323299	 -0.082943	 0.642902
C	 -1.597905	 -0.826797	 -0.928415
C	 1.355627	 -0.005344	 -0.493127
H	 0.396251	 -1.044647	 1.143147
H	 0.528637	 0.693580	 1.371677
C	 2.786168	 -0.195604	 0.007473
H	 1.132807	 -0.760304	 -1.243899
H	 1.259610	 0.958506	 -0.981915
H	 3.495561	 -0.130713	 -0.811210
H	 2.912696	 -1.165395	 0.480041
H	 3.049284	 0.565503	 0.735850
H	 -0.884345	 -0.932944	 -1.740347
H	 -2.546612	 -0.482269	 -1.315702
H	 -1.725666	 -1.810182	 -0.483628

	symmetry c1
}
set optking {
	frozen_dihedral = ("
		9 5 3 2
	")
}

ee = energy('scf')
oeprop('DIPOLE', 'QUADRUPOLE', 'MULLIKEN_CHARGES')
f=open( 'psi4out.xyz', 'w' )
f.write( "16  " )
f.write( str(ee) + "\n" )
f.write( MOL.save_string_xyz() )
f.close()
--------------------------------------------------------------------------

    Molecular point group: c1

    Geometry (in Angstrom), charge = 0, multiplicity = 1:

       Center              X                  Y                   Z               Mass
    ------------   -----------------  -----------------  -----------------  -----------------
           O         -1.757187941501     1.043496677539     0.531983026105    15.994914619560
           C         -1.097242941501     0.126779677539     0.147031026105    12.000000000000
           C          0.309333058499    -0.095731322461     0.674736026105    12.000000000000
           C         -1.611870941501    -0.839585322461    -0.896580973895    12.000000000000
           C          1.341661058499    -0.018132322461    -0.461292973895    12.000000000000
           H          0.382285058499    -1.057435322461     1.174981026105     1.007825032070
           H          0.514671058499     0.680791677539     1.403511026105     1.007825032070
           C          2.772202058499    -0.208392322461     0.039307026105    12.000000000000
           H          1.118841058499    -0.773092322461    -1.212064973895     1.007825032070
           H          1.245644058499     0.945717677539    -0.950080973895     1.007825032070
           H          3.481595058499    -0.143501322461    -0.779375973895     1.007825032070
           H          2.898730058499    -1.178183322461     0.511875026105     1.007825032070
           H          3.035318058499     0.552714677539     0.767684026105     1.007825032070
           H         -0.898310941501    -0.945732322461    -1.708512973895     1.007825032070
           H         -2.560577941501    -0.495057322461    -1.283867973895     1.007825032070
           H         -1.739631941501    -1.822970322461    -0.451793973895     1.007825032070

  Charge       = 0
  Multiplicity = 1
  Basis Set: 6-31G*
  Basis Set:

    Orbital Energies (a.u.)
    -----------------------

    Doubly Occupied:

       1A    -20.548456     2A    -11.324575     3A    -11.235124
       4A    -11.229984     5A    -11.227907     6A    -11.221155
       7A     -1.393549     8A     -1.086573     9A     -1.010822
      10A     -0.950656    11A     -0.832374    12A     -0.735754
      13A     -0.658752    14A     -0.651638    15A     -0.617269
      16A     -0.606876    17A     -0.577896    18A     -0.554840
      19A     -0.534659    20A     -0.519151    21A     -0.506599
      22A     -0.486042    23A     -0.473938    24A     -0.398365

  @DF-RHF Final Energy:  -270.02825030404711

   => Energetics <=

    Nuclear Repulsion Energy =            237.6709096212049417
    One-Electron Energy =                -836.6324640097737984
    Two-Electron Energy =                 328.9333040845218648
    DFT Exchange-Correlation Energy =       0.0000000000000000
    Empirical Dispersion Energy =           0.0000000000000000
    PCM Polarization Energy =               0.0000000000000000
    EFP Energy =                            0.0000000000000000
    Total Energy =                       -270.0282503040469919

  Mulliken Charges: (a.u.)
   Center  Symbol    Alpha    Beta     Spin     Total
       1     O     4.26061  4.26061  0.00000 -0.52122
       2     C     2.73415  2.73415  0.00000  0.53170
       3     C     3.20224  3.20224  0.00000 -0.40447
       4     C     3.29121  3.29121  0.00000 -0.58243
       5     C     3.16716  3.16716  0.00000 -0.33432
       6     H     0.41209  0.41209  0.00000  0.17583
       7     H     0.39925  0.39925  0.00000  0.20150
       8     C     3.23879  3.23879  0.00000 -0.47759
       9     H     0.41902  0.41902  0.00000  0.16196
      10     H     0.41188  0.41188  0.00000  0.17624
      11     H     0.41573  0.41573  0.00000  0.16853
      12     H     0.41992  0.41992  0.00000  0.16015
      13     H     0.41709  0.41709  0.00000  0.16581
      14     H     0.40733  0.40733  0.00000  0.18534
      15     H     0.39596  0.39596  0.00000  0.20807
      16     H     0.40755  0.40755  0.00000  0.18489

   Total alpha = 24.00000, Total beta = 24.00000, Total charge =  0.00000
