  ==> Input File <==

--------------------------------------------------------------------------
set {
	reference rhf
	basis 6-31G*
}

set_num_threads( 4 )
memory 2 gb

molecule MOL {
0 1

H	 5.268524	 0.192471	 1.070992
C	 4.673736	 -0.214914	 0.259335
C	 3.185378	 -0.203514	 0.605509
H	 4.871837	 0.380453	 -0.627026
H	 5.025590	 -1.224632	 0.065769
C	 2.317601	 -0.778379	 -0.516234
H	 2.874655	 0.814325	 0.817774
H	 3.023650	 -0.778480	 1.515976
C	 1.108671	 0.089729	 -0.865724
H	 2.920081	 -0.918234	 -1.406797
H	 1.958265	 -1.761098	 -0.219279
C	 1.454599	 1.387143	 -1.581472
H	 0.440300	 -0.460048	 -1.526630
H	 0.522919	 0.316044	 0.022450
C	 0.394570	 2.474275	 -1.616056
O	 2.511624	 1.545044	 -2.114549
C	 -0.887158	 2.064404	 -2.356558
H	 0.842258	 3.338183	 -2.092453
H	 0.146955	 2.748627	 -0.592288
C	 -1.892574	 3.213143	 -2.457289
H	 -0.629660	 1.723376	 -3.357063
H	 -1.357259	 1.223872	 -1.852591
C	 -3.172514	 2.817610	 -3.192279
H	 -1.427177	 4.053255	 -2.966876
H	 -2.141881	 3.561117	 -1.457211
H	 -2.958188	 2.495561	 -4.207204
H	 -3.679923	 2.001064	 -2.686413
H	 -3.864455	 3.651779	 -3.249362

	symmetry c1
}
set optking {
	frozen_dihedral = ("
		10 6 3 2
	")
}

ee = optimize('scf')
oeprop('DIPOLE', 'QUADRUPOLE', 'MULLIKEN_CHARGES')
f=open( 'psi4out.xyz', 'w' )
f.write( "28  " )
f.write( str(ee) + "\n" )
f.write( MOL.save_string_xyz() )
f.close()
--------------------------------------------------------------------------

    Molecular point group: c1
  Charge       = 0
  Multiplicity = 1
  Basis Set: 6-31G*
  Basis Set:
  @DF-RHF Final Energy:  -426.16423555325196
    Total Energy =                       -426.1642355532517286
    Molecular point group: c1
  Basis Set: 6-31G*
  Basis Set:
  Basis Set: 6-31G*
  Basis Set:
  @DF-RHF Final Energy:  -426.16458361701280
    Total Energy =                       -426.1645836170127950
  Basis Set: 6-31G*
  Basis Set:
  Basis Set: 6-31G*
  Basis Set:
  @DF-RHF Final Energy:  -426.16463816958344
    Total Energy =                       -426.1646381695832133
  Basis Set: 6-31G*
  Basis Set:
  Basis Set: 6-31G*
  Basis Set:
  @DF-RHF Final Energy:  -426.16468048841273
    Total Energy =                       -426.1646804884121593
  Basis Set: 6-31G*
  Basis Set:
  @DF-RHF Final Energy:  -426.16469564941349
    Total Energy =                       -426.1646956494133747
  @DF-RHF Final Energy:  -426.16470242097614
    Total Energy =                       -426.1647024209759138
  Basis Set: 6-31G*
  Basis Set:
  @DF-RHF Final Energy:  -426.16470695144005
    Total Energy =                       -426.1647069514395980
  Basis Set: 6-31G*
  Basis Set:
  Basis Set: 6-31G*
  Basis Set:
  @DF-RHF Final Energy:  -426.16470945735944
    Total Energy =                       -426.1647094573597769
  Basis Set: 6-31G*
  Basis Set:
  Basis Set: 6-31G*
  Basis Set:
  @DF-RHF Final Energy:  -426.16471097422436
    Total Energy =                       -426.1647109742243629
  Basis Set: 6-31G*
  Basis Set:
  Charge       = 0
  Multiplicity = 1
  Basis Set: 6-31G*
  Basis Set:

    Orbital Energies (a.u.)
    -----------------------

    Doubly Occupied:

       1A    -20.549215     2A    -11.322444     3A    -11.232709
       4A    -11.230368     5A    -11.229203     6A    -11.226286
       7A    -11.216481     8A    -11.215866     9A    -11.211751
      10A    -11.198984    11A     -1.393946    12A     -1.095040
      13A     -1.074714    14A     -1.021623    15A     -0.989147
      16A     -0.906747    17A     -0.871998    18A     -0.809509
      19A     -0.798107    20A     -0.723258    21A     -0.668695
      22A     -0.652008    23A     -0.627900    24A     -0.621426
      25A     -0.604645    26A     -0.590133    27A     -0.577542
      28A     -0.567431    29A     -0.545123    30A     -0.527049
      31A     -0.524407    32A     -0.503662    33A     -0.502325
      34A     -0.484810    35A     -0.478008    36A     -0.474115
      37A     -0.467208    38A     -0.459837    39A     -0.454554
      40A     -0.393273

  @DF-RHF Final Energy:  -426.16471187653553

   => Energetics <=

    Nuclear Repulsion Energy =            535.0315155047074995
    One-Electron Energy =               -1638.3093680076335659
    Two-Electron Energy =                 677.1131406263904182
    DFT Exchange-Correlation Energy =       0.0000000000000000
    Empirical Dispersion Energy =           0.0000000000000000
    PCM Polarization Energy =               0.0000000000000000
    EFP Energy =                            0.0000000000000000
    Total Energy =                       -426.1647118765357618
    Molecular point group: c1
  Basis Set: 6-31G*
  Basis Set:

  -Total Gradient:
     Atom            X                  Y                   Z
    ------   -----------------  -----------------  -----------------
       1        0.000013155617     0.000005785379    -0.000008641141
       2       -0.000173960119     0.001629496332    -0.000706098668
       3        0.000249605747    -0.002786796845     0.001110640768
       4       -0.000001263779     0.000002274924     0.000006404927
       5       -0.000005728305     0.000003914476    -0.000000729838
       6       -0.000645686268     0.003581495359    -0.001146640991
       7        0.000002368591    -0.000031281529    -0.000018957076
       8        0.000027554783    -0.000047374533     0.000008047968
       9        0.000031112929    -0.000003787342    -0.000043796465
      10        0.000539096058    -0.002315107646     0.000729226154
      11       -0.000025277566    -0.000001355832     0.000023384299
      12        0.000003204662    -0.000014443094     0.000040016176
      13       -0.000023973844    -0.000016521702     0.000007709695
      14       -0.000002521576     0.000016688431    -0.000009295372
      15       -0.000036246948    -0.000054441377    -0.000046460651
      16        0.000008709049     0.000012143317     0.000043818237
      17        0.000003389749     0.000029010507     0.000021335374
      18        0.000020107291    -0.000014804234     0.000002955347
      19        0.000041973636     0.000015335188     0.000019818377
      20       -0.000006498356    -0.000007916518    -0.000005484619
      21       -0.000025878019     0.000008646638    -0.000029381176
      22        0.000014257395    -0.000010875503    -0.000006125428
      23       -0.000006167490     0.000004143534     0.000006154984
      24       -0.000002591184    -0.000005994992    -0.000000461496
      25        0.000001979586     0.000002242911     0.000003532598
      26        0.000001950617     0.000000517049     0.000000080760
      27       -0.000000793345     0.000000340141    -0.000000129567
      28       -0.000001878911    -0.000001333037    -0.000000923176

  **** Optimization is complete! (in 10 steps) ****
    Final optimized geometry and variables:
    Molecular point group: c1

    Geometry (in Angstrom), charge = 0, multiplicity = 1:

    H            4.400929094829    -1.131353761159     2.309282694228
    C            3.752542359054    -1.517742378514     1.528421816007
    C            2.284801596596    -1.456120304634     1.948645088210
    H            3.912376278594    -0.929504197821     0.631835054836
    H            4.060042244213    -2.539383227285     1.320323620660
    C            1.322460161613    -2.016874793250     0.878866623631
    H            2.036894122971    -0.419720978781     2.160422256479
    H            2.146826103948    -1.993631297199     2.883031332440
    C            0.110355287630    -1.130969596554     0.599558774251
    H            1.858668697535    -2.190131194024    -0.046893673147
    H            0.958451341412    -2.990442201780     1.196409985134
    C            0.450560673114     0.176126965218    -0.099467865311
    H           -0.598416582714    -1.659462816325    -0.035661639745
    H           -0.428445767034    -0.908625677222     1.518480265805
    C           -0.630702733757     1.241004318241    -0.167644833676
    O            1.524345992464     0.362695629688    -0.588393424947
    C           -1.862319293666     0.821857727952    -0.984301970062
    H           -0.177071629960     2.123460371482    -0.602608623431
    H           -0.938338412192     1.489506765436     0.846310220324
    C           -2.881408327533     1.954760179827    -1.120753605458
    H           -1.544597811143     0.503030970614    -1.974741661391
    H           -2.344101654281    -0.035124302455    -0.520860401881
    C           -4.112986038338     1.549624582942    -1.929445295312
    H           -2.404634193866     2.811027690416    -1.591407801720
    H           -3.189942949358     2.281727737738    -0.130134629301
    H           -3.839010335129     1.247942312295    -2.936242264662
    H           -4.632068751103     0.716421660609    -1.464233861841
    H           -4.815652262239     2.372769074410    -2.010702277463

  Mulliken Charges: (a.u.)
   Center  Symbol    Alpha    Beta     Spin     Total
       1     H     0.42309  0.42309  0.00000  0.15382
       2     C     3.24284  3.24284  0.00000 -0.48567
       3     C     3.15160  3.15160  0.00000 -0.30320
       4     H     0.40660  0.40660  0.00000  0.18681
       5     H     0.42505  0.42505  0.00000  0.14991
       6     C     3.15193  3.15193  0.00000 -0.30387
       7     H     0.42255  0.42255  0.00000  0.15491
       8     H     0.42311  0.42311  0.00000  0.15378
       9     C     3.21249  3.21249  0.00000 -0.42498
      10     H     0.40657  0.40657  0.00000  0.18685
      11     H     0.41996  0.41996  0.00000  0.16009
      12     C     2.73148  2.73148  0.00000  0.53704
      13     H     0.40442  0.40442  0.00000  0.19117
      14     H     0.41201  0.41201  0.00000  0.17599
      15     C     3.20172  3.20172  0.00000 -0.40344
      16     O     4.26620  4.26620  0.00000 -0.53240
      17     C     3.16365  3.16365  0.00000 -0.32729
      18     H     0.39967  0.39967  0.00000  0.20067
      19     H     0.41315  0.41315  0.00000  0.17370
      20     C     3.15182  3.15182  0.00000 -0.30365
      21     H     0.41360  0.41360  0.00000  0.17281
      22     H     0.41881  0.41881  0.00000  0.16237
      23     C     3.24035  3.24035  0.00000 -0.48070
      24     H     0.41834  0.41834  0.00000  0.16332
      25     H     0.42141  0.42141  0.00000  0.15718
      26     H     0.41957  0.41957  0.00000  0.16086
      27     H     0.42118  0.42118  0.00000  0.15763
      28     H     0.41684  0.41684  0.00000  0.16631

   Total alpha = 40.00000, Total beta = 40.00000, Total charge = -0.00000
