  ==> Input File <==

--------------------------------------------------------------------------
set {
	reference rhf
	basis 6-31G*
}

set_num_threads( 1 )
memory 2 gb

molecule MOL {
0 1

H	 1.436784	 -1.417394	 -0.582108
O	 1.586534	 -0.678666	 -0.000226
C	 0.489431	 0.077273	 0.000046
C	 -0.764129	 -0.759190	 0.000191
O	 0.537743	 1.263962	 0.000257
C	 -2.038368	 0.075731	 -0.000248
H	 -0.717284	 -1.412404	 -0.866059
H	 -0.717458	 -1.411724	 0.866967
H	 -2.086483	 0.712501	 -0.875098
H	 -2.908485	 -0.571682	 -0.000042
H	 -2.086576	 0.713280	 0.874068

	symmetry c1
}
set optking {
	frozen_dihedral = ("
		2 3 4 7
	")
}

ee = energy('scf')
oeprop('DIPOLE', 'QUADRUPOLE', 'MULLIKEN_CHARGES')
f=open( 'psi4out.xyz', 'w' )
f.write( "11  " )
f.write( str(ee) + "\n" )
f.write( MOL.save_string_xyz() )
f.close()
--------------------------------------------------------------------------

    Molecular point group: c1

    Geometry (in Angstrom), charge = 0, multiplicity = 1:

       Center              X                  Y                   Z               Mass
    ------------   -----------------  -----------------  -----------------  -----------------
           H          1.449130054136    -1.399478550994    -0.574186741685     1.007825032070
           O          1.598880054136    -0.660750550994     0.007695258315    15.994914619560
           C          0.501777054136     0.095188449006     0.007967258315    12.000000000000
           C         -0.751782945864    -0.741274550994     0.008112258315    12.000000000000
           O          0.550089054136     1.281877449006     0.008178258315    15.994914619560
           C         -2.026021945864     0.093646449006     0.007673258315    12.000000000000
           H         -0.704937945864    -1.394488550994    -0.858137741685     1.007825032070
           H         -0.705111945864    -1.393808550994     0.874888258315     1.007825032070
           H         -2.074136945864     0.730416449006    -0.867176741685     1.007825032070
           H         -2.896138945864    -0.553766550994     0.007879258315     1.007825032070
           H         -2.074229945864     0.731195449006     0.881989258315     1.007825032070

  Charge       = 0
  Multiplicity = 1
  Basis Set: 6-31G*
  Basis Set:

    Orbital Energies (a.u.)
    -----------------------

    Doubly Occupied:

       1A    -20.610329     2A    -20.555130     3A    -11.381705
       4A    -11.253466     5A    -11.225867     6A     -1.471149
       7A     -1.372217     8A     -1.070205     9A     -0.910233
      10A     -0.824182    11A     -0.718552    12A     -0.673667
      13A     -0.660338    14A     -0.618682    15A     -0.584799
      16A     -0.534908    17A     -0.524798    18A     -0.511331
      19A     -0.481154    20A     -0.444365

  @DF-RHF Final Energy:  -266.82861210374017

   => Energetics <=

    Nuclear Repulsion Energy =            180.0042780865542511
    One-Electron Energy =                -720.8116208116414327
    Two-Electron Energy =                 273.9787306213465286
    DFT Exchange-Correlation Energy =       0.0000000000000000
    Empirical Dispersion Energy =           0.0000000000000000
    PCM Polarization Energy =               0.0000000000000000
    EFP Energy =                            0.0000000000000000
    Total Energy =                       -266.8286121037406815

  Mulliken Charges: (a.u.)
   Center  Symbol    Alpha    Beta     Spin     Total
       1     H     0.26888  0.26888  0.00000  0.46223
       2     O     4.34920  4.34920  0.00000 -0.69839
       3     C     2.61777  2.61777  0.00000  0.76447
       4     C     3.22592  3.22592  0.00000 -0.45184
       5     O     4.26074  4.26074  0.00000 -0.52148
       6     C     3.23861  3.23861  0.00000 -0.47722
       7     H     0.41258  0.41258  0.00000  0.17484
       8     H     0.39584  0.39584  0.00000  0.20831
       9     H     0.40780  0.40780  0.00000  0.18440
      10     H     0.41708  0.41708  0.00000  0.16583
      11     H     0.40557  0.40557  0.00000  0.18886

   Total alpha = 20.00000, Total beta = 20.00000, Total charge =  0.00000
