                              Psi4 1.0.54 Driver

  ==> Input File <==

--------------------------------------------------------------------------
set {
	reference rhf
	basis cc-pvtz
}

set_num_threads( 4 )
memory 2 gb

molecule MOL {
0 1

H	 5.237417	 1.661429	 0.740722
C	 4.737637	 0.874106	 0.188266
C	 3.281990	 0.735585	 0.620964
H	 4.807944	 1.114558	 -0.866938
H	 5.286851	 -0.046960	 0.355002
C	 2.547875	 -0.373249	 -0.129724
H	 2.770865	 1.678395	 0.463489
H	 3.242737	 0.531892	 1.688575
C	 1.089950	 -0.539365	 0.287107
H	 2.590298	 -0.179557	 -1.194390
H	 3.060417	 -1.315580	 0.040853
C	 0.166485	 0.574257	 -0.177158
H	 0.689050	 -1.458611	 -0.132455
H	 1.003226	 -0.645780	 1.364452
C	 -1.180025	 0.697761	 0.509157
O	 0.471789	 1.311616	 -1.058275
C	 -2.285431	 -0.137488	 -0.145671
H	 -1.447360	 1.745713	 0.496200
H	 -1.065514	 0.394096	 1.546399
C	 -3.646545	 0.082747	 0.508954
H	 -2.348635	 0.118247	 -1.199806
H	 -2.034895	 -1.192387	 -0.096473
C	 -4.757412	 -0.737227	 -0.138149
H	 -3.900211	 1.137405	 0.459735
H	 -3.580878	 -0.166775	 1.564416
H	 -4.867876	 -0.486707	 -1.187777
H	 -4.549650	 -1.800049	 -0.072540
H	 -5.709585	 -0.556397	 0.346597

	symmetry c1
}
set optking {
	frozen_dihedral = ("
		16 12 15 17
	")
}

ee,wfn = optimize('scf', return_wfn=True)
oeprop( wfn, 'DIPOLE', 'QUADRUPOLE', 'MULLIKEN_CHARGES')
f=open( 'psi4out.xyz', 'w' )
f.write( "28  " )
f.write( str(ee) + "\n" )
f.write( MOL.save_string_xyz() )
f.close()
--------------------------------------------------------------------------

    Molecular point group: c1
  Charge       = 0
  Multiplicity = 1
  Basis Set: CC-PVTZ
  Basis Set:
  @DF-RHF Final Energy:  -426.31941650763622
    Total Energy =                       -426.3194165076359923
    Molecular point group: c1
  Basis Set: CC-PVTZ
  Basis Set:
  Basis Set: CC-PVTZ
  Basis Set:
  @DF-RHF Final Energy:  -426.31826609055065
    Total Energy =                       -426.3182660905508783
  Basis Set: CC-PVTZ
  Basis Set:
  Basis Set: CC-PVTZ
  Basis Set:
  @DF-RHF Final Energy:  -426.31990883107630
    Total Energy =                       -426.3199088310765319
  Basis Set: CC-PVTZ
  Basis Set:
  Basis Set: CC-PVTZ
  Basis Set:
  @DF-RHF Final Energy:  -426.32003402024714
    Total Energy =                       -426.3200340202473626
  Basis Set: CC-PVTZ
  Basis Set:
  @DF-RHF Final Energy:  -426.32016280032087
    Total Energy =                       -426.3201628003213273
  Basis Set: CC-PVTZ
  Basis Set:
  @DF-RHF Final Energy:  -426.32019307904739
    Total Energy =                       -426.3201930790467031
  Basis Set: CC-PVTZ
  Basis Set:
  Basis Set: CC-PVTZ
  Basis Set:
  @DF-RHF Final Energy:  -426.32018957892615
    Total Energy =                       -426.3201895789259197
  Basis Set: CC-PVTZ
  Basis Set:
  Basis Set: CC-PVTZ
  Basis Set:
  @DF-RHF Final Energy:  -426.32019633326274
    Total Energy =                       -426.3201963332624018
  Basis Set: CC-PVTZ
  Basis Set:
  Charge       = 0
  Multiplicity = 1
  Basis Set: CC-PVTZ
  Basis Set:

    Orbital Energies (a.u.)
    -----------------------

    Doubly Occupied:

       1A    -20.536720     2A    -11.316850     3A    -11.229112
       4A    -11.228380     5A    -11.226529     6A    -11.222731
       7A    -11.214528     8A    -11.213084     9A    -11.208661
      10A    -11.202749    11A     -1.396857    12A     -1.094520
      13A     -1.078525    14A     -1.023583    15A     -0.991566
      16A     -0.909093    17A     -0.870826    18A     -0.808291
      19A     -0.797833    20A     -0.726283    21A     -0.671698
      22A     -0.652405    23A     -0.632623    24A     -0.617465
      25A     -0.608817    26A     -0.590027    27A     -0.575828
      28A     -0.572239    29A     -0.543211    30A     -0.535053
      31A     -0.522993    32A     -0.507499    33A     -0.501312
      34A     -0.483589    35A     -0.477334    36A     -0.476601
      37A     -0.470471    38A     -0.464688    39A     -0.456115
      40A     -0.393891

  @DF-RHF Final Energy:  -426.32019718387778

   => Energetics <=

    Nuclear Repulsion Energy =            530.9837439491828945
    One-Electron Energy =               -1630.5067161025381210
    Two-Electron Energy =                 673.2027749694773320
    DFT Exchange-Correlation Energy =       0.0000000000000000
    Empirical Dispersion Energy =           0.0000000000000000
    PCM Polarization Energy =               0.0000000000000000
    EFP Energy =                            0.0000000000000000
    Total Energy =                       -426.3201971838777808
    Molecular point group: c1
  Basis Set: CC-PVTZ
  Basis Set:

  -Total Gradient:
     Atom            X                  Y                   Z
    ------   -----------------  -----------------  -----------------
       1       -0.000000903052    -0.000005656217    -0.000003811686
       2       -0.000000748524     0.000009204402     0.000007193042
       3        0.000007875362     0.000001409723    -0.000002224771
       4       -0.000000392895    -0.000000180077     0.000005514831
       5       -0.000000068766     0.000001575326    -0.000000147251
       6       -0.000013502191     0.000003811776     0.000000407282
       7        0.000003373759    -0.000003739423    -0.000001127883
       8        0.000000871297     0.000001554108    -0.000004349346
       9       -0.000002824010    -0.000010723683    -0.000020353354
      10       -0.000001876219    -0.000003502107     0.000002577091
      11       -0.000003638984     0.000003400867    -0.000000097770
      12       -0.000280806004    -0.000754375848    -0.000596924915
      13        0.000003429702     0.000011172732     0.000008606366
      14        0.000002120966    -0.000003521300    -0.000001928631
      15       -0.000064243851     0.000718093934    -0.000166050440
      16        0.000232144671     0.000430230102     0.000511093289
      17        0.000122718945    -0.000385736231     0.000280214393
      18        0.000000295059    -0.000004537497    -0.000005942379
      19       -0.000002585367     0.000005747057     0.000003074974
      20        0.000001333721    -0.000002636854    -0.000014039133
      21       -0.000013027003    -0.000011142359     0.000009552041
      22       -0.000015021844     0.000007580830    -0.000001579854
      23        0.000002352486    -0.000009409414    -0.000000187460
      24        0.000018127725    -0.000002401954    -0.000001007565
      25        0.000011665815     0.000008609258    -0.000007126653
      26       -0.000002727740    -0.000005598710     0.000010572529
      27       -0.000006443132     0.000004386319    -0.000005772448
      28        0.000002500075    -0.000003614763    -0.000006134298

  **** Optimization is complete! (in 9 steps) ****
    Final optimized geometry and variables:
    Molecular point group: c1

    Geometry (in Angstrom), charge = 0, multiplicity = 1:

    H            5.338307224919     1.251900237004     0.134203591449
    C            4.701301232251     0.481790518269    -0.285331265757
    C            3.329671765176     0.478463158831     0.380780589211
    H            4.615556165859     0.668062408320    -1.350367788690
    H            5.204859737528    -0.470909393562    -0.155572669539
    C            2.409600771214    -0.606760666190    -0.174717729159
    H            2.864036643718     1.447414121869     0.250718308150
    H            3.451312460783     0.328301382161     1.451072020136
    C            1.027060609664    -0.637526730784     0.468661921077
    H            2.299554539069    -0.474969976855    -1.244750447100
    H            2.877224053091    -1.575493659118    -0.023738728317
    C            0.084832315650     0.468292712591     0.032956667609
    H            0.527585513412    -1.578363757249     0.251994486667
    H            1.104018048164    -0.597233768516     1.552453770628
    C           -1.303422748968     0.469100190792     0.644921690153
    O            0.393905032298     1.289059983658    -0.769476056204
    C           -2.283071428525    -0.380429774122    -0.174201330494
    H           -1.644949287387     1.495667138388     0.670548438421
    H           -1.262974590135     0.097258025106     1.663362050272
    C           -3.697320216745    -0.362120518519     0.398720315025
    H           -2.299496678105    -0.009762366207    -1.193887074314
    H           -1.931612208207    -1.407277471623    -0.221708180871
    C           -4.678507011979    -1.198475921993    -0.415506796736
    H           -4.049553546161     0.664078082715     0.445949636976
    H           -3.675496398932    -0.725515895665     1.422421316002
    H           -4.746559517220    -0.837693064951    -1.436104254601
    H           -4.370742263587    -2.238152394480    -0.452861773502
    H           -5.672558765102    -1.163596294524     0.014646513474

  Mulliken Charges: (a.u.)
   Center  Symbol    Alpha    Beta     Spin     Total
       1     H     0.44876  0.44876  0.00000  0.10248
       2     C     3.15171  3.15171  0.00000 -0.30343
       3     C     3.08370  3.08370  0.00000 -0.16740
       4     H     0.45221  0.45221  0.00000  0.09558
       5     H     0.45741  0.45741  0.00000  0.08518
       6     C     3.08728  3.08728  0.00000 -0.17455
       7     H     0.44340  0.44340  0.00000  0.11320
       8     H     0.45893  0.45893  0.00000  0.08215
       9     C     3.12810  3.12810  0.00000 -0.25621
      10     H     0.44644  0.44644  0.00000  0.10711
      11     H     0.44819  0.44819  0.00000  0.10362
      12     C     2.86970  2.86970  0.00000  0.26060
      13     H     0.43370  0.43370  0.00000  0.13261
      14     H     0.44300  0.44300  0.00000  0.11400
      15     C     3.09012  3.09012  0.00000 -0.18024
      16     O     4.18171  4.18171  0.00000 -0.36343
      17     C     3.09610  3.09610  0.00000 -0.19219
      18     H     0.43814  0.43814  0.00000  0.12373
      19     H     0.44884  0.44884  0.00000  0.10231
      20     C     3.08803  3.08803  0.00000 -0.17605
      21     H     0.44241  0.44241  0.00000  0.11517
      22     H     0.45244  0.45244  0.00000  0.09513
      23     C     3.14924  3.14924  0.00000 -0.29848
      24     H     0.45104  0.45104  0.00000  0.09791
      25     H     0.45396  0.45396  0.00000  0.09208
      26     H     0.45294  0.45294  0.00000  0.09413
      27     H     0.45525  0.45525  0.00000  0.08951
      28     H     0.44726  0.44726  0.00000  0.10549

   Total alpha = 40.00000, Total beta = 40.00000, Total charge =  0.00000

*** Psi4 exiting successfully. Buy a developer a beer!
