  ==> Input File <==

--------------------------------------------------------------------------
set {
	reference rhf
	basis 6-31G*
}

set_num_threads( 4 )
memory 2 gb

molecule MOL {
0 1

H	 2.830855	 -1.791938	 -1.513774
O	 2.283406	 -1.679770	 -0.742753
C	 1.526647	 -0.598191	 -0.926923
C	 0.624473	 -0.343591	 0.253101
O	 1.589529	 0.055272	 -1.916896
C	 -0.265902	 0.883932	 0.072916
H	 0.045942	 -1.247948	 0.410622
H	 1.260903	 -0.241968	 1.128534
C	 -1.728698	 0.646073	 0.462102
H	 -0.209144	 1.219470	 -0.958188
H	 0.135059	 1.692851	 0.673903
C	 -2.482460	 -0.343073	 -0.431425
H	 -2.245265	 1.602650	 0.432430
H	 -1.779332	 0.308348	 1.496285
C	 -3.960546	 -0.461025	 -0.060175
H	 -2.395034	 -0.026811	 -1.468912
H	 -2.024850	 -1.327147	 -0.371646
H	 -4.472726	 -1.168004	 -0.705284
H	 -4.465146	 0.496508	 -0.151489
H	 -4.081218	 -0.800940	 0.964585

	symmetry c1
}
set optking {
	frozen_dihedral = ("
		7 4 6 10
	")
}

ee = optimize('scf')
oeprop('DIPOLE', 'QUADRUPOLE', 'MULLIKEN_CHARGES')
f=open( 'psi4out.xyz', 'w' )
f.write( "20  " )
f.write( str(ee) + "\n" )
f.write( MOL.save_string_xyz() )
f.close()
--------------------------------------------------------------------------

    Molecular point group: c1
  Charge       = 0
  Multiplicity = 1
  Basis Set: 6-31G*
  Basis Set:
  @DF-RHF Final Energy:  -383.94429190291697
    Total Energy =                       -383.9442919029171435
    Molecular point group: c1
  Basis Set: 6-31G*
  Basis Set:
  Basis Set: 6-31G*
  Basis Set:
  @DF-RHF Final Energy:  -383.94454507418425
    Total Energy =                       -383.9445450741843615
  Basis Set: 6-31G*
  Basis Set:
  Basis Set: 6-31G*
  Basis Set:
  @DF-RHF Final Energy:  -383.94482745119251
    Total Energy =                       -383.9448274511927366
  Basis Set: 6-31G*
  Basis Set:
  Basis Set: 6-31G*
  Basis Set:
  @DF-RHF Final Energy:  -383.94484392343753
    Total Energy =                       -383.9448439234374746
  Basis Set: 6-31G*
  Basis Set:
  @DF-RHF Final Energy:  -383.94484902852730
    Total Energy =                       -383.9448490285270736
  Basis Set: 6-31G*
  Basis Set:
  @DF-RHF Final Energy:  -383.94485236776927
    Total Energy =                       -383.9448523677691014
  Basis Set: 6-31G*
  Basis Set:
  Basis Set: 6-31G*
  Basis Set:
  @DF-RHF Final Energy:  -383.94485393398310
    Total Energy =                       -383.9448539339830404
  Basis Set: 6-31G*
  Basis Set:
  Basis Set: 6-31G*
  Basis Set:
  @DF-RHF Final Energy:  -383.94485508440499
    Total Energy =                       -383.9448550844048214
  Basis Set: 6-31G*
  Basis Set:
  Charge       = 0
  Multiplicity = 1
  Basis Set: 6-31G*
  Basis Set:

    Orbital Energies (a.u.)
    -----------------------

    Doubly Occupied:

       1A    -20.612722     2A    -20.552209     3A    -11.381930
       4A    -11.240119     5A    -11.221389     6A    -11.219748
       7A    -11.218271     8A    -11.211048     9A     -1.475055
      10A     -1.365955    11A     -1.093912    12A     -1.039049
      13A     -0.960933    14A     -0.869138    15A     -0.813321
      16A     -0.778114    17A     -0.700237    18A     -0.691860
      19A     -0.661066    20A     -0.633409    21A     -0.603889
      22A     -0.592913    23A     -0.575476    24A     -0.556571
      25A     -0.530958    26A     -0.513189    27A     -0.495817
      28A     -0.479482    29A     -0.470200    30A     -0.466422
      31A     -0.453561    32A     -0.445185

  @DF-RHF Final Energy:  -383.94485593482597

   => Energetics <=

    Nuclear Repulsion Energy =            379.3020597468152459
    One-Electron Energy =               -1274.6475326246579698
    Two-Electron Energy =                 511.4006169430169280
    DFT Exchange-Correlation Energy =       0.0000000000000000
    Empirical Dispersion Energy =           0.0000000000000000
    PCM Polarization Energy =               0.0000000000000000
    EFP Energy =                            0.0000000000000000
    Total Energy =                       -383.9448559348257390
    Molecular point group: c1
  Basis Set: 6-31G*
  Basis Set:

  -Total Gradient:
     Atom            X                  Y                   Z
    ------   -----------------  -----------------  -----------------
       1       -0.000021279347     0.000022858046     0.000009537763
       2       -0.000017685045    -0.000031292991     0.000028984791
       3        0.000022963385    -0.000048787515    -0.000030534539
       4        0.000280760851    -0.000205547808    -0.002219082870
       5        0.000009125097     0.000056846728    -0.000007036111
       6       -0.001731649809    -0.001277211134     0.000014567005
       7        0.000072275459     0.000357019177     0.001850326913
       8        0.000000581381     0.000010270030    -0.000006774904
       9       -0.000011812613     0.000026459929    -0.000004611542
      10        0.001405535451     0.001085330474     0.000377563246
      11       -0.000015066659     0.000027177520    -0.000033711045
      12       -0.000005175239     0.000025901855    -0.000020858381
      13       -0.000007132644    -0.000001840451     0.000055503536
      14        0.000014318392    -0.000050735686    -0.000021478733
      15       -0.000002694185     0.000009286210    -0.000000724215
      16        0.000018938792     0.000003396064     0.000002431752
      17       -0.000010962811    -0.000008305383     0.000003445456
      18        0.000006063591    -0.000010416373     0.000007539993
      19       -0.000003528436    -0.000001821616    -0.000012474867
      20       -0.000003575616     0.000011412922     0.000007386754

  **** Optimization is complete! (in 9 steps) ****
    Final optimized geometry and variables:
    Molecular point group: c1

    Geometry (in Angstrom), charge = 0, multiplicity = 1:

    H            3.160541052103    -1.561002231223    -0.971892098983
    O            2.595048237070    -1.415566235546    -0.219771891999
    C            1.819670482577    -0.363916384878    -0.483156975770
    C            0.890281607136    -0.068042715136     0.666848457418
    O            1.892429026337     0.230306771155    -1.509129334068
    C           -0.025754842973     1.148582336568     0.456284179906
    H            0.326688374828    -0.974896956837     0.861661031086
    H            1.516536758230     0.059612041658     1.544731677554
    C           -1.478977828882     0.915072423525     0.884236986815
    H            0.012470262747     1.450707563233    -0.583234362982
    H            0.375399488423     1.984970869536     1.020305115409
    C           -2.266775969340    -0.007429784705    -0.049830528829
    H           -1.984233445227     1.877048473406     0.927892497723
    H           -1.503015109243     0.515725035451     1.897289245736
    C           -3.712133792430    -0.212122676868     0.403285615493
    H           -2.257121921970     0.412744696972    -1.052763151718
    H           -1.777713011569    -0.975953067079    -0.122729699544
    H           -4.249238906943    -0.863534275003    -0.278955484325
    H           -4.246289286373     0.732716360492     0.447926836378
    H           -3.754031793332    -0.661357830575     1.391617438141

  Mulliken Charges: (a.u.)
   Center  Symbol    Alpha    Beta     Spin     Total
       1     H     0.26765  0.26765  0.00000  0.46470
       2     O     4.34986  4.34986  0.00000 -0.69972
       3     C     2.62846  2.62846  0.00000  0.74309
       4     C     3.21408  3.21408  0.00000 -0.42816
       5     O     4.27836  4.27836  0.00000 -0.55673
       6     C     3.16244  3.16244  0.00000 -0.32487
       7     H     0.39606  0.39606  0.00000  0.20788
       8     H     0.39562  0.39562  0.00000  0.20876
       9     C     3.15688  3.15688  0.00000 -0.31377
      10     H     0.39544  0.39544  0.00000  0.20913
      11     H     0.41557  0.41557  0.00000  0.16886
      12     C     3.15322  3.15322  0.00000 -0.30643
      13     H     0.41895  0.41895  0.00000  0.16211
      14     H     0.42429  0.42429  0.00000  0.15142
      15     C     3.23937  3.23937  0.00000 -0.47874
      16     H     0.41845  0.41845  0.00000  0.16311
      17     H     0.42421  0.42421  0.00000  0.15159
      18     H     0.41817  0.41817  0.00000  0.16366
      19     H     0.42091  0.42091  0.00000  0.15819
      20     H     0.42203  0.42203  0.00000  0.15595

   Total alpha = 32.00000, Total beta = 32.00000, Total charge = -0.00000
