                              Psi4 1.0.54 Driver

  ==> Input File <==

--------------------------------------------------------------------------
set {
	reference rhf
	basis cc-pvtz
}

set_num_threads( 4 )
memory 2 gb

molecule MOL {
0 1

H	 3.286109	 -0.472954	 0.030618
C	 2.230018	 -0.281688	 0.023353
C	 1.696132	 0.601273	 -0.903295
C	 1.411342	 -0.915809	 0.936139
H	 2.338812	 1.090226	 -1.609469
C	 0.341860	 0.849442	 -0.916017
H	 1.827108	 -1.598203	 1.651648
C	 0.051436	 -0.665552	 0.922126
H	 -0.089488	 1.528388	 -1.624273
C	 -0.486398	 0.214248	 0.000000
H	 -0.591543	 -1.155608	 1.629656
C	 -1.946525	 0.470130	 0.000000
O	 -2.779618	 -0.371226	 0.000000
H	 -2.227127	 1.528393	 0.000000

	symmetry c1
}
set optking {
	frozen_dihedral = ("
		8 10 12 14
	")
}

ee,wfn = optimize('scf', return_wfn=True)
oeprop( wfn, 'DIPOLE', 'QUADRUPOLE', 'MULLIKEN_CHARGES')
f=open( 'psi4out.xyz', 'w' )
f.write( "14  " )
f.write( str(ee) + "\n" )
f.write( MOL.save_string_xyz() )
f.close()
--------------------------------------------------------------------------

    Molecular point group: c1
  Charge       = 0
  Multiplicity = 1
  Basis Set: CC-PVTZ
  Basis Set:
  @DF-RHF Final Energy:  -343.54239964700207
    Total Energy =                       -343.5423996470019574
    Molecular point group: c1
  Basis Set: CC-PVTZ
  Basis Set:
  Basis Set: CC-PVTZ
  Basis Set:
  @DF-RHF Final Energy:  -343.54042200565829
    Total Energy =                       -343.5404220056582290
  Basis Set: CC-PVTZ
  Basis Set:
  Basis Set: CC-PVTZ
  Basis Set:
  @DF-RHF Final Energy:  -343.54290358677565
    Total Energy =                       -343.5429035867755942
  Basis Set: CC-PVTZ
  Basis Set:
  Basis Set: CC-PVTZ
  Basis Set:
  @DF-RHF Final Energy:  -343.54335436803751
    Total Energy =                       -343.5433543680376260
  Basis Set: CC-PVTZ
  Basis Set:
  Basis Set: CC-PVTZ
  Basis Set:
  @DF-RHF Final Energy:  -343.54336498370287
    Total Energy =                       -343.5433649837032135
  Basis Set: CC-PVTZ
  Basis Set:
  Charge       = 0
  Multiplicity = 1
  Basis Set: CC-PVTZ
  Basis Set:

    Orbital Energies (a.u.)
    -----------------------

    Doubly Occupied:

       1A    -20.558104     2A    -11.329727     3A    -11.249707
       4A    -11.248326     5A    -11.246088     6A    -11.245874
       7A    -11.243279     8A    -11.241911     9A     -1.413100
      10A     -1.176080    11A     -1.050564    12A     -1.034887
      13A     -0.891496    14A     -0.846767    15A     -0.796281
      16A     -0.725719    17A     -0.681698    18A     -0.657416
      19A     -0.635009    20A     -0.621717    21A     -0.605531
      22A     -0.549486    23A     -0.531163    24A     -0.512907
      25A     -0.507867    26A     -0.426359    27A     -0.353546
      28A     -0.352340

  @DF-RHF Final Energy:  -343.54336601928554

   => Energetics <=

    Nuclear Repulsion Energy =            323.5355478651094359
    One-Electron Energy =               -1106.6919275817119797
    Two-Electron Energy =                 439.6130136973168305
    DFT Exchange-Correlation Energy =       0.0000000000000000
    Empirical Dispersion Energy =           0.0000000000000000
    PCM Polarization Energy =               0.0000000000000000
    EFP Energy =                            0.0000000000000000
    Total Energy =                       -343.5433660192856564
    Molecular point group: c1
  Basis Set: CC-PVTZ
  Basis Set:

  -Total Gradient:
     Atom            X                  Y                   Z
    ------   -----------------  -----------------  -----------------
       1        0.000002135421     0.000008529462    -0.000011660359
       2       -0.000028393137    -0.000129245366     0.000171654919
       3       -0.000180743867     0.000103130237    -0.000081158869
       4        0.000202059106     0.000039751419    -0.000088420011
       5        0.000008445591    -0.000008931601     0.000005217529
       6        0.000179052729    -0.000026040051    -0.000076626425
       7       -0.000009779524    -0.000002786631     0.000006400357
       8        0.000906516797     0.004501268863     0.003330231888
       9       -0.000007025644     0.000005538925    -0.000011284175
      10       -0.001454988013    -0.006452623126    -0.002606796215
      11        0.000005131990    -0.000009688701    -0.000010278374
      12        0.000168405879     0.001618843193    -0.007558211865
      13       -0.000013941286    -0.000040984697     0.000014087190
      14        0.000223123958     0.000393238072     0.006916844410

  **** Optimization is complete! (in 6 steps) ****
    Final optimized geometry and variables:
    Molecular point group: c1

    Geometry (in Angstrom), charge = 0, multiplicity = 1:

    H            3.294363719157    -0.468565275285    -0.004972690481
    C            2.237948925984    -0.279945828870    -0.015952182332
    C            1.701944713503     0.584977347264    -0.952200544747
    C            1.417610352194    -0.893934155564     0.912800147516
    H            2.339515998803     1.066330367926    -1.668259207502
    C            0.345004042677     0.840341261928    -0.952643004757
    H            1.837246637027    -1.552797193290     1.648242930817
    C            0.057017417670    -0.659050293297     0.895614927999
    H           -0.069723368050     1.532511773839    -1.662336122358
    C           -0.484795800534     0.195306484942    -0.050413496234
    H           -0.589272592954    -1.138937926173     1.604173245758
    C           -1.940132365660     0.513419110953    -0.015648321603
    O           -2.793222113744    -0.290058733440     0.142938258454
    H           -2.186147069070     1.579588895795    -0.060698075951

  Mulliken Charges: (a.u.)
   Center  Symbol    Alpha    Beta     Spin     Total
       1     H     0.42021  0.42021  0.00000  0.15958
       2     C     3.07732  3.07732  0.00000 -0.15463
       3     C     3.06785  3.06785  0.00000 -0.13570
       4     C     3.06691  3.06691  0.00000 -0.13382
       5     H     0.42065  0.42065  0.00000  0.15871
       6     C     3.09517  3.09517  0.00000 -0.19035
       7     H     0.42035  0.42035  0.00000  0.15929
       8     C     3.09267  3.09267  0.00000 -0.18534
       9     H     0.42362  0.42362  0.00000  0.15276
      10     C     2.95584  2.95584  0.00000  0.08831
      11     H     0.41299  0.41299  0.00000  0.17402
      12     C     2.92220  2.92220  0.00000  0.15559
      13     O     4.16560  4.16560  0.00000 -0.33119
      14     H     0.45862  0.45862  0.00000  0.08276

   Total alpha = 28.00000, Total beta = 28.00000, Total charge =  0.00000

*** Psi4 exiting successfully. Buy a developer a beer!
