                              Psi4 1.0.54 Driver

  ==> Input File <==

--------------------------------------------------------------------------
set {
	reference rhf
	basis cc-pvtz
}

set_num_threads( 4 )
memory 2 gb

molecule MOL {
0 1

H	 -3.900849	 -1.554768	 -0.920756
C	 -2.834013	 -1.442206	 -0.957717
C	 -2.165596	 -1.591799	 -2.159583
C	 -2.132105	 -1.148171	 0.195908
H	 -2.711068	 -1.820023	 -3.054610
C	 -0.794702	 -1.447007	 -2.206285
H	 -2.651399	 -1.032359	 1.127462
C	 -0.759388	 -1.002884	 0.150766
H	 -0.261357	 -1.559449	 -3.128216
C	 -0.086555	 -1.152065	 -1.051546
H	 -0.212804	 -0.775178	 1.042352
C	 1.393586	 -1.005590	 -1.154721
O	 1.968286	 -0.725612	 -0.000027
O	 1.999284	 -1.126735	 -2.166469
C	 3.373556	 -0.568203	 0.000011
H	 3.695416	 -0.031588	 -0.879663
H	 3.782700	 -1.565294	 -0.000152
H	 3.695405	 -0.031851	 0.879862

	symmetry c1
}
set optking {
	frozen_dihedral = ("
		12 13 15 16
	")
}

ee,wfn = optimize('scf', return_wfn=True)
oeprop( wfn, 'DIPOLE', 'QUADRUPOLE', 'MULLIKEN_CHARGES')
f=open( 'psi4out.xyz', 'w' )
f.write( "18  " )
f.write( str(ee) + "\n" )
f.write( MOL.save_string_xyz() )
f.close()
--------------------------------------------------------------------------

    Molecular point group: c1
  Charge       = 0
  Multiplicity = 1
  Basis Set: CC-PVTZ
  Basis Set:
  @DF-RHF Final Energy:  -457.50826817312975
    Total Energy =                       -457.5082681731299772
    Molecular point group: c1
  Basis Set: CC-PVTZ
  Basis Set:
  Basis Set: CC-PVTZ
  Basis Set:
  @DF-RHF Final Energy:  -457.50927652059329
    Total Energy =                       -457.5092765205936303
  Basis Set: CC-PVTZ
  Basis Set:
  Basis Set: CC-PVTZ
  Basis Set:
  @DF-RHF Final Energy:  -457.50852154528002
    Total Energy =                       -457.5085215452794500
  Basis Set: CC-PVTZ
  Basis Set:
  Basis Set: CC-PVTZ
  Basis Set:
  @DF-RHF Final Energy:  -457.50961259892813
    Total Energy =                       -457.5096125989281290
  Basis Set: CC-PVTZ
  Basis Set:
  Basis Set: CC-PVTZ
  Basis Set:
  @DF-RHF Final Energy:  -457.50963880815681
    Total Energy =                       -457.5096388081567511
  Basis Set: CC-PVTZ
  Basis Set:
  Charge       = 0
  Multiplicity = 1
  Basis Set: CC-PVTZ
  Basis Set:

    Orbital Energies (a.u.)
    -----------------------

    Doubly Occupied:

       1A    -20.600741     2A    -20.534276     3A    -11.372160
       4A    -11.280936     5A    -11.244874     6A    -11.243421
       7A    -11.242588     8A    -11.239947     9A    -11.235977
      10A    -11.235214    11A     -1.476384    12A     -1.368679
      13A     -1.170699    14A     -1.051804    15A     -1.028977
      16A     -0.980875    17A     -0.863137    18A     -0.838382
      19A     -0.781184    20A     -0.745138    21A     -0.688094
      22A     -0.680841    23A     -0.676358    24A     -0.634195
      25A     -0.630032    26A     -0.601255    27A     -0.588126
      28A     -0.566043    29A     -0.530799    30A     -0.520308
      31A     -0.509561    32A     -0.502099    33A     -0.463232
      34A     -0.449404    35A     -0.350161    36A     -0.346173

  @DF-RHF Final Energy:  -457.50963975757463

   => Energetics <=

    Nuclear Repulsion Energy =            493.9301363031354413
    One-Electron Energy =               -1602.3354082112482502
    Two-Electron Energy =                 650.8956321505377218
    DFT Exchange-Correlation Energy =       0.0000000000000000
    Empirical Dispersion Energy =           0.0000000000000000
    PCM Polarization Energy =               0.0000000000000000
    EFP Energy =                            0.0000000000000000
    Total Energy =                       -457.5096397575750871
    Molecular point group: c1
  Basis Set: CC-PVTZ
  Basis Set:

  -Total Gradient:
     Atom            X                  Y                   Z
    ------   -----------------  -----------------  -----------------
       1        0.000010767977     0.000001070449     0.000001778887
       2        0.000009941225    -0.000001601953    -0.000007279628
       3        0.000001874122     0.000005015025     0.000006206949
       4        0.000019322773     0.000003917757    -0.000000112463
       5        0.000007551486     0.000003369864     0.000003029768
       6        0.000011910631    -0.000003658836     0.000002248347
       7        0.000003412190     0.000000094771    -0.000000905960
       8       -0.000003138744    -0.000008718212     0.000009037826
       9        0.000000318496    -0.000000968521    -0.000001510585
      10        0.000035606945     0.000004923930    -0.000018072227
      11       -0.000001110236     0.000003363735    -0.000002744910
      12       -0.000198166481     0.001294690607    -0.000231280144
      13        0.000246281309    -0.002228143140     0.000081223129
      14       -0.000035398362     0.000002920346    -0.000000920286
      15       -0.000279817333     0.002236361113     0.000934092409
      16        0.000139586570    -0.001343184197    -0.000772189845
      17       -0.000006429690     0.000022733839    -0.000002873874
      18        0.000037487123     0.000007813423     0.000000272607

  **** Optimization is complete! (in 6 steps) ****
    Final optimized geometry and variables:
    Molecular point group: c1

    Geometry (in Angstrom), charge = 0, multiplicity = 1:

    H           -4.026767151394    -0.425198926158     0.014778080457
    C           -2.959272388154    -0.320017101664    -0.025447985634
    C           -2.295559189694    -0.474379669500    -1.229402449539
    C           -2.251691787222    -0.030875482226     1.125890254674
    H           -2.845327191354    -0.698943088408    -2.122782130957
    C           -0.923863222184    -0.339272656975    -1.280318725508
    H           -2.767088537553     0.088585476929     2.059181629548
    C           -0.878040837463     0.104921282530     1.076474607399
    H           -0.394270100286    -0.455789368209    -2.203946117022
    C           -0.210059559054    -0.048904908201    -0.127831249042
    H           -0.327316966413     0.328753408471     1.966508869883
    C            1.271127942133     0.087618593500    -0.236536359711
    O            1.849758443150     0.358028597096     0.918469173880
    O            1.870010540419    -0.035231115830    -1.251990201469
    C            3.252096765412     0.541014611925     0.928200986456
    H            3.572256614817     1.097743328818     0.062833128574
    H            3.749577234729    -0.418895047451     0.929680095762
    H            3.481235111542     1.074745427641     1.836143516105

  Mulliken Charges: (a.u.)
   Center  Symbol    Alpha    Beta     Spin     Total
       1     H     0.42030  0.42030  0.00000  0.15939
       2     C     3.06976  3.06976  0.00000 -0.13951
       3     C     3.07552  3.07552  0.00000 -0.15104
       4     C     3.07494  3.07494  0.00000 -0.14987
       5     H     0.42041  0.42041  0.00000  0.15919
       6     C     3.07589  3.07589  0.00000 -0.15177
       7     H     0.42191  0.42191  0.00000  0.15619
       8     C     3.08208  3.08208  0.00000 -0.16416
       9     H     0.40658  0.40658  0.00000  0.18683
      10     C     3.01451  3.01451  0.00000 -0.02902
      11     H     0.41109  0.41109  0.00000  0.17782
      12     C     2.77980  2.77980  0.00000  0.44041
      13     O     4.14886  4.14886  0.00000 -0.29772
      14     O     4.21158  4.21158  0.00000 -0.42317
      15     C     3.03758  3.03758  0.00000 -0.07516
      16     H     0.44767  0.44767  0.00000  0.10466
      17     H     0.45536  0.45536  0.00000  0.08928
      18     H     0.44618  0.44618  0.00000  0.10765

   Total alpha = 36.00000, Total beta = 36.00000, Total charge = -0.00000

*** Psi4 exiting successfully. Buy a developer a beer!
