  ==> Input File <==

--------------------------------------------------------------------------
set {
	reference rhf
	basis 6-31G*
}

set_num_threads( 1 )
memory 2 gb

molecule MOL {
0 1

O	 -2.042549	 -1.228399	 -0.269030
C	 -1.653912	 -0.146171	 0.050137
C	 -0.332303	 0.024011	 0.778412
C	 -2.438579	 1.106236	 -0.272369
C	 0.845713	 -0.001731	 -0.208243
H	 -0.323783	 0.953829	 1.340327
H	 -0.235459	 -0.796807	 1.480410
C	 0.393028	 -0.142756	 -1.662278
H	 1.515617	 -0.823174	 0.039835
H	 1.417806	 0.913390	 -0.088223
C	 1.562000	 -0.159621	 -2.646365
H	 -0.187019	 -1.056327	 -1.773449
H	 -0.276537	 0.677653	 -1.909623
H	 2.232435	 -0.990460	 -2.445676
H	 2.141986	 0.756241	 -2.581120
H	 1.211351	 -0.257414	 -3.668866
H	 -3.277823	 0.863061	 -0.908988
H	 -1.806773	 1.843019	 -0.759671
H	 -2.802853	 1.554979	 0.648059

	symmetry c1
}
set optking {
	frozen_dihedral = ("
		11 8 5 9,
		5 3 2 4
	")
}

ee = energy('scf')
oeprop('DIPOLE', 'QUADRUPOLE', 'MULLIKEN_CHARGES')
f=open( 'psi4out.xyz', 'w' )
f.write( "19  " )
f.write( str(ee) + "\n" )
f.write( MOL.save_string_xyz() )
f.close()
--------------------------------------------------------------------------

    Molecular point group: c1

    Geometry (in Angstrom), charge = 0, multiplicity = 1:

       Center              X                  Y                   Z               Mass
    ------------   -----------------  -----------------  -----------------  -----------------
           O         -1.517483888045    -1.150247772663     0.355832282322    15.994914619560
           C         -1.128846888045    -0.068019772663     0.674999282322    12.000000000000
           C          0.192762111955     0.102162227337     1.403274282322    12.000000000000
           C         -1.913513888045     1.184387227337     0.352493282322    12.000000000000
           C          1.370778111955     0.076420227337     0.416619282322    12.000000000000
           H          0.201282111955     1.031980227337     1.965189282322     1.007825032070
           H          0.289606111955    -0.718655772663     2.105272282322     1.007825032070
           C          0.918093111955    -0.064604772663    -1.037415717678    12.000000000000
           H          2.040682111955    -0.745022772663     0.664697282322     1.007825032070
           H          1.942871111955     0.991541227337     0.536639282322     1.007825032070
           C          2.087065111955    -0.081469772663    -2.021502717678    12.000000000000
           H          0.338046111955    -0.978175772663    -1.148586717678     1.007825032070
           H          0.248528111955     0.755804227337    -1.284760717678     1.007825032070
           H          2.757500111955    -0.912308772663    -1.820813717678     1.007825032070
           H          2.667051111955     0.834392227337    -1.956257717678     1.007825032070
           H          1.736416111955    -0.179262772663    -3.044003717678     1.007825032070
           H         -2.752757888045     0.941212227337    -0.284125717678     1.007825032070
           H         -1.281707888045     1.921170227337    -0.134808717678     1.007825032070
           H         -2.277787888045     1.633130227337     1.272921282322     1.007825032070

  Charge       = 0
  Multiplicity = 1
  Basis Set: 6-31G*
  Basis Set:

    Orbital Energies (a.u.)
    -----------------------

    Doubly Occupied:

       1A    -20.546391     2A    -11.324964     3A    -11.228415
       4A    -11.228284     5A    -11.227725     6A    -11.217705
       7A    -11.210960     8A     -1.394305     9A     -1.092119
      10A     -1.024346    11A     -0.984516    12A     -0.887459
      13A     -0.813232    14A     -0.724348    15A     -0.662069
      16A     -0.640924    17A     -0.622167    18A     -0.619594
      19A     -0.576714    20A     -0.572211    21A     -0.565840
      22A     -0.538647    23A     -0.510514    24A     -0.491722
      25A     -0.482570    26A     -0.464465    27A     -0.461092
      28A     -0.396875

  @DF-RHF Final Energy:  -309.05180216433695

   => Energetics <=

    Nuclear Repulsion Energy =            314.6125426944736887
    One-Electron Energy =               -1042.3083609870946020
    Two-Electron Energy =                 418.6440161282844770
    DFT Exchange-Correlation Energy =       0.0000000000000000
    Empirical Dispersion Energy =           0.0000000000000000
    PCM Polarization Energy =               0.0000000000000000
    EFP Energy =                            0.0000000000000000
    Total Energy =                       -309.0518021643364932

  Mulliken Charges: (a.u.)
   Center  Symbol    Alpha    Beta     Spin     Total
       1     O     4.26373  4.26373  0.00000 -0.52746
       2     C     2.74129  2.74129  0.00000  0.51741
       3     C     3.20030  3.20030  0.00000 -0.40060
       4     C     3.28790  3.28790  0.00000 -0.57579
       5     C     3.15406  3.15406  0.00000 -0.30812
       6     H     0.41432  0.41432  0.00000  0.17135
       7     H     0.39857  0.39857  0.00000  0.20286
       8     C     3.17696  3.17696  0.00000 -0.35392
       9     H     0.41239  0.41239  0.00000  0.17522
      10     H     0.41777  0.41777  0.00000  0.16446
      11     C     3.23725  3.23725  0.00000 -0.47450
      12     H     0.39676  0.39676  0.00000  0.20647
      13     H     0.42423  0.42423  0.00000  0.15154
      14     H     0.42007  0.42007  0.00000  0.15986
      15     H     0.42347  0.42347  0.00000  0.15305
      16     H     0.41725  0.41725  0.00000  0.16549
      17     H     0.39721  0.39721  0.00000  0.20558
      18     H     0.40975  0.40975  0.00000  0.18050
      19     H     0.40671  0.40671  0.00000  0.18658

   Total alpha = 28.00000, Total beta = 28.00000, Total charge =  0.00000
