                              Psi4 1.0.54 Driver

  ==> Input File <==

--------------------------------------------------------------------------
set {
	reference rhf
	basis cc-pvtz
}

set_num_threads( 4 )
memory 2 gb

molecule MOL {
0 1

O	 -2.081319	 -0.951530	 -0.502732
N	 -1.613558	 0.006676	 0.014756
C	 -0.329345	 -0.171618	 0.743966
O	 -2.068523	 1.100482	 -0.024385
C	 0.835904	 0.041968	 -0.213982
H	 -0.346048	 -1.174374	 1.137184
H	 -0.333613	 0.555559	 1.538590
C	 1.116201	 -1.212542	 -1.037271
H	 0.603880	 0.872234	 -0.870779
H	 1.715672	 0.314464	 0.357412
C	 2.283828	 -1.027822	 -2.000083
H	 0.225709	 -1.483590	 -1.596729
H	 1.326159	 -2.042966	 -0.369647
H	 2.088044	 -0.225137	 -2.702267
H	 3.196169	 -0.786427	 -1.466156
H	 2.462123	 -1.931349	 -2.570180

	symmetry c1
}
set optking {
	frozen_dihedral = ("
		9 5 3 2
	")
}

ee,wfn = optimize('scf', return_wfn=True)
oeprop( wfn, 'DIPOLE', 'QUADRUPOLE', 'MULLIKEN_CHARGES')
f=open( 'psi4out.xyz', 'w' )
f.write( "16  " )
f.write( str(ee) + "\n" )
f.write( MOL.save_string_xyz() )
f.close()
--------------------------------------------------------------------------

    Molecular point group: c1
  Charge       = 0
  Multiplicity = 1
  Basis Set: CC-PVTZ
  Basis Set:
  @DF-RHF Final Energy:  -360.90687885367089
    Total Energy =                       -360.9068788536711736
    Molecular point group: c1
  Basis Set: CC-PVTZ
  Basis Set:
  Basis Set: CC-PVTZ
  Basis Set:
  @DF-RHF Final Energy:  -360.90720890379436
    Total Energy =                       -360.9072089037941851
  Basis Set: CC-PVTZ
  Basis Set:
  Basis Set: CC-PVTZ
  Basis Set:
  @DF-RHF Final Energy:  -360.90139421689315
    Total Energy =                       -360.9013942168926405
  Basis Set: CC-PVTZ
  Basis Set:
  Basis Set: CC-PVTZ
  Basis Set:
  @DF-RHF Final Energy:  -360.90646939517194
    Total Energy =                       -360.9064693951718823
  Basis Set: CC-PVTZ
  Basis Set:
  @DF-RHF Final Energy:  -360.90755991664793
    Total Energy =                       -360.9075599166478696
  @DF-RHF Final Energy:  -360.90760314728300
    Total Energy =                       -360.9076031472831119
  @DF-RHF Final Energy:  -360.90767559863860
    Total Energy =                       -360.9076755986387752
  @DF-RHF Final Energy:  -360.90776133427505
    Total Energy =                       -360.9077613342748805
  @DF-RHF Final Energy:  -360.90780979007775
    Total Energy =                       -360.9078097900776925
  Basis Set: CC-PVTZ
  Basis Set:
  @DF-RHF Final Energy:  -360.90782394230212
    Total Energy =                       -360.9078239423016612
  Basis Set: CC-PVTZ
  Basis Set:
  Basis Set: CC-PVTZ
  Basis Set:
  @DF-RHF Final Energy:  -360.90782586066632
    Total Energy =                       -360.9078258606660370
  Basis Set: CC-PVTZ
  Basis Set:
  Basis Set: CC-PVTZ
  Basis Set:
  @DF-RHF Final Energy:  -360.90782825023797
    Total Energy =                       -360.9078282502374577
  Basis Set: CC-PVTZ
  Basis Set:
  Charge       = 0
  Multiplicity = 1
  Basis Set: CC-PVTZ
  Basis Set:

    Orbital Energies (a.u.)
    -----------------------

    Doubly Occupied:

       1A    -20.592429     2A    -20.588704     3A    -15.836972
       4A    -11.297016     5A    -11.248625     6A    -11.234962
       7A    -11.221943     8A     -1.636096     9A     -1.420254
      10A     -1.134297    11A     -1.055475    12A     -0.947853
      13A     -0.851141    14A     -0.818294    15A     -0.762779
      16A     -0.739465    17A     -0.729037    18A     -0.651318
      19A     -0.632827    20A     -0.602903    21A     -0.568466
      22A     -0.551444    23A     -0.507003    24A     -0.495512
      25A     -0.490519    26A     -0.485452    27A     -0.473658
      28A     -0.452899

  @DF-RHF Final Energy:  -360.90782835231613

   => Energetics <=

    Nuclear Repulsion Energy =            318.1578512703103456
    One-Electron Energy =               -1122.0766680975179952
    Two-Electron Energy =                 443.0109884748915192
    DFT Exchange-Correlation Energy =       0.0000000000000000
    Empirical Dispersion Energy =           0.0000000000000000
    PCM Polarization Energy =               0.0000000000000000
    EFP Energy =                            0.0000000000000000
    Total Energy =                       -360.9078283523160735
    Molecular point group: c1
  Basis Set: CC-PVTZ
  Basis Set:

  -Total Gradient:
     Atom            X                  Y                   Z
    ------   -----------------  -----------------  -----------------
       1        0.000057622275     0.000061130491     0.000007741940
       2        0.000478070583     0.002396219551     0.000871109472
       3       -0.001209214368    -0.003790700669    -0.001736370176
       4        0.000006410730     0.000036990897    -0.000002469431
       5        0.002792396766     0.003045254001     0.003303934159
       6       -0.000007457110     0.000002442122    -0.000001132263
       7        0.000002383689    -0.000000606840     0.000000236299
       8        0.000006155029    -0.000015471333     0.000005734604
       9       -0.002120847938    -0.001742946172    -0.002453667887
      10       -0.000004595182    -0.000006644951    -0.000003517401
      11       -0.000003129626     0.000009537846    -0.000001858949
      12        0.000006859830     0.000005793748     0.000004863063
      13       -0.000002193251    -0.000004133434     0.000003040949
      14        0.000003388881     0.000001596042    -0.000003503828
      15       -0.000001134326    -0.000000855848     0.000000287114
      16       -0.000004715981     0.000002394551     0.000005572335

  **** Optimization is complete! (in 13 steps) ****
    Final optimized geometry and variables:
    Molecular point group: c1

    Geometry (in Angstrom), charge = 0, multiplicity = 1:

    O           -2.085852318899    -0.343711589759     0.536847030644
    N           -1.216005207198     0.455427103750     0.628861615577
    C            0.097166347173    -0.008540069226     1.164857159878
    O           -1.303752504081     1.600584918925     0.334578936512
    C            1.199815079118     0.121181893890     0.118351996872
    H           -0.054380298586    -1.021315172763     1.495059589690
    H            0.284552463239     0.637565011799     2.008518621910
    C            1.232333294877    -1.041413784988    -0.872881284753
    H            1.058269295456     1.049205415143    -0.419573242984
    H            2.145600879644     0.185933354938     0.643470426964
    C            2.324480234429    -0.878447585636    -1.923761830410
    H            0.267949453930    -1.126698139696    -1.363817431776
    H            1.383598668003    -1.971157905275    -0.332375356995
    H            2.176057591888     0.024881055368    -2.505042160400
    H            3.305333893347    -0.819055671641    -1.463936145006
    H            2.330803644252    -1.716459945856    -2.609891468655

  Mulliken Charges: (a.u.)
   Center  Symbol    Alpha    Beta     Spin     Total
       1     O     4.16951  4.16951  0.00000 -0.33901
       2     N     3.27748  3.27748  0.00000  0.44505
       3     C     3.05061  3.05061  0.00000 -0.10121
       4     O     4.17429  4.17429  0.00000 -0.34858
       5     C     3.10575  3.10575  0.00000 -0.21149
       6     H     0.43254  0.43254  0.00000  0.13491
       7     H     0.42698  0.42698  0.00000  0.14604
       8     C     3.08501  3.08501  0.00000 -0.17003
       9     H     0.43492  0.43492  0.00000  0.13016
      10     H     0.44480  0.44480  0.00000  0.11040
      11     C     3.14982  3.14982  0.00000 -0.29964
      12     H     0.44495  0.44495  0.00000  0.11009
      13     H     0.45240  0.45240  0.00000  0.09521
      14     H     0.45126  0.45126  0.00000  0.09749
      15     H     0.45501  0.45501  0.00000  0.08999
      16     H     0.44468  0.44468  0.00000  0.11064

   Total alpha = 28.00000, Total beta = 28.00000, Total charge = -0.00000

*** Psi4 exiting successfully. Buy a developer a beer!
