  ==> Input File <==

--------------------------------------------------------------------------
set {
	reference rhf
	basis cc-pvtz
}

set_num_threads( 4 )
memory 2 gb

molecule MOL {
0 1

H	 2.646708	 0.758099	 0.000000
O	 2.258158	 -0.097743	 0.000000
C	 0.911162	 -0.015915	 0.000000
C	 0.198529	 -1.184447	 -0.213284
C	 0.241866	 1.176303	 0.202677
H	 0.734384	 -2.099983	 -0.368691
C	 -1.179061	 -1.149118	 -0.221795
H	 0.794782	 2.083240	 0.368212
C	 -1.141577	 1.196825	 0.191498
H	 -1.726102	 -2.057780	 -0.387571
C	 -1.861023	 0.039398	 -0.019905
H	 -1.653469	 2.127014	 0.349740
H	 -2.933146	 0.059010	 -0.027916

	symmetry c1
}
set optking {
	frozen_dihedral = ("
		4 3 2 1
	")
}

ee = optimize('scf')
oeprop('DIPOLE', 'QUADRUPOLE', 'MULLIKEN_CHARGES')
f=open( 'psi4out.xyz', 'w' )
f.write( "13  " )
f.write( str(ee) + "\n" )
f.write( MOL.save_string_xyz() )
f.close()
--------------------------------------------------------------------------

    Molecular point group: c1
  Charge       = 0
  Multiplicity = 1
  Basis Set: CC-PVTZ
  Basis Set:
  @DF-RHF Final Energy:  -305.67040664705110
    Total Energy =                       -305.6704066470508678
    Molecular point group: c1
  Basis Set: CC-PVTZ
  Basis Set:
  Basis Set: CC-PVTZ
  Basis Set:
  @DF-RHF Final Energy:  -305.67040950857961
    Total Energy =                       -305.6704095085799509
  Basis Set: CC-PVTZ
  Basis Set:
  Charge       = 0
  Multiplicity = 1
  Basis Set: CC-PVTZ
  Basis Set:

    Orbital Energies (a.u.)
    -----------------------

    Doubly Occupied:

       1A    -20.584675     2A    -11.297472     3A    -11.235223
       4A    -11.233432     5A    -11.226150     6A    -11.220629
       7A    -11.219549     8A     -1.415329     9A     -1.152672
      10A     -1.022813    11A     -1.008388    12A     -0.851197
      13A     -0.826752    14A     -0.741583    15A     -0.688285
      16A     -0.654812    17A     -0.613065    18A     -0.596619
      19A     -0.592049    20A     -0.566441    21A     -0.517571
      22A     -0.493112    23A     -0.485286    24A     -0.343224
      25A     -0.315000

  @DF-RHF Final Energy:  -305.67041024988492

   => Energetics <=

    Nuclear Repulsion Energy =            273.8312885467905176
    One-Electron Energy =                -957.2007370261458163
    Two-Electron Energy =                 377.6990382294703750
    DFT Exchange-Correlation Energy =       0.0000000000000000
    Empirical Dispersion Energy =           0.0000000000000000
    PCM Polarization Energy =               0.0000000000000000
    EFP Energy =                            0.0000000000000000
    Total Energy =                       -305.6704102498848670
    Molecular point group: c1
  Basis Set: CC-PVTZ
  Basis Set:

  -Total Gradient:
     Atom            X                  Y                   Z
    ------   -----------------  -----------------  -----------------
       1        0.000006795998     0.000005224217    -0.001012087632
       2       -0.000017590251     0.000050711926     0.000926925870
       3        0.000019959801    -0.000083033803     0.000840358262
       4       -0.000097518040     0.000076761705    -0.000712280232
       5        0.000085224430    -0.000040605944    -0.000058857849
       6        0.000008681856     0.000005738383    -0.000009251656
       7        0.000085945318    -0.000053631795    -0.000023411302
       8       -0.000006246227    -0.000002029219     0.000012747728
       9       -0.000084255066    -0.000055521757     0.000010724436
      10       -0.000006347897    -0.000000410986     0.000002729319
      11        0.000001131886     0.000095087243     0.000031359762
      12        0.000004502386     0.000006244389    -0.000004204131
      13       -0.000000284188    -0.000004534360    -0.000004752576

  **** Optimization is complete! (in 3 steps) ****
    Final optimized geometry and variables:
    Molecular point group: c1

    Geometry (in Angstrom), charge = 0, multiplicity = 1:

    H            2.646319496790     0.757929079999     0.011217725211
    O            2.258389163219    -0.098274786827     0.010611108813
    C            0.911083598617    -0.016914463910     0.007735105502
    C            0.198400357702    -1.184917988776    -0.206628017128
    C            0.241795868443     1.175631890428     0.209545636044
    H            0.734011811796    -2.100084984806    -0.365238680232
    C           -1.179454012872    -1.150276179894    -0.211230719422
    H            0.795122602436     2.081693385583     0.378305514309
    C           -1.141440657876     1.196450309123     0.197984349778
    H           -1.726473560815    -2.059037358857    -0.376655073119
    C           -1.861092507048     0.038342670681    -0.010332423027
    H           -1.653251083231     2.126877737737     0.355200542553
    H           -2.933256653629     0.057952872351    -0.017327545628

  Mulliken Charges: (a.u.)
   Center  Symbol    Alpha    Beta     Spin     Total
       1     H     0.38719  0.38719  0.00000  0.22562
       2     O     4.17541  4.17541  0.00000 -0.35083
       3     C     2.85013  2.85013  0.00000  0.29975
       4     C     3.11091  3.11091  0.00000 -0.22182
       5     C     3.13376  3.13376  0.00000 -0.26753
       6     H     0.41940  0.41940  0.00000  0.16120
       7     C     3.05671  3.05671  0.00000 -0.11342
       8     H     0.43453  0.43453  0.00000  0.13094
       9     C     3.06481  3.06481  0.00000 -0.12962
      10     H     0.42241  0.42241  0.00000  0.15518
      11     C     3.09844  3.09844  0.00000 -0.19688
      12     H     0.42238  0.42238  0.00000  0.15525
      13     H     0.42391  0.42391  0.00000  0.15218

   Total alpha = 25.00000, Total beta = 25.00000, Total charge =  0.00000
