                              Psi4 1.0.54 Driver

  ==> Input File <==

--------------------------------------------------------------------------
set {
	reference rhf
	basis cc-pvtz
}

set_num_threads( 4 )
memory 2 gb

molecule MOL {
0 1

H	 -2.816458	 -0.841657	 -0.064679
N	 -1.878861	 -0.711874	 0.250184
C	 -1.341419	 0.551458	 -0.220231
H	 -1.333674	 -1.468530	 -0.105118
C	 0.082190	 0.731516	 0.254705
H	 -1.357065	 0.652078	 -1.304747
H	 -1.939897	 1.357530	 0.189797
O	 0.178460	 1.944007	 0.939035
H	 0.359561	 -0.091755	 0.911563
H	 0.755595	 0.727962	 -0.599368
C	 1.459910	 2.261956	 1.370329
H	 1.411668	 3.210884	 1.884717
H	 1.845911	 1.511731	 2.057250
H	 2.150303	 2.350784	 0.534848

	symmetry c1
}
set optking {
	frozen_dihedral = ("
		8 5 3 6
	")
}

ee,wfn = optimize('scf', return_wfn=True)
oeprop( wfn, 'DIPOLE', 'QUADRUPOLE', 'MULLIKEN_CHARGES')
f=open( 'psi4out.xyz', 'w' )
f.write( "14  " )
f.write( str(ee) + "\n" )
f.write( MOL.save_string_xyz() )
f.close()
--------------------------------------------------------------------------

    Molecular point group: c1
  Charge       = 0
  Multiplicity = 1
  Basis Set: CC-PVTZ
  Basis Set:
  @DF-RHF Final Energy:  -248.21740114043664
    Total Energy =                       -248.2174011404366638
    Molecular point group: c1
  Basis Set: CC-PVTZ
  Basis Set:
  Basis Set: CC-PVTZ
  Basis Set:
  @DF-RHF Final Energy:  -248.21794359462649
    Total Energy =                       -248.2179435946264903
  Basis Set: CC-PVTZ
  Basis Set:
  Basis Set: CC-PVTZ
  Basis Set:
  @DF-RHF Final Energy:  -248.21811211681492
    Total Energy =                       -248.2181121168148366
  Basis Set: CC-PVTZ
  Basis Set:
  Basis Set: CC-PVTZ
  Basis Set:
  @DF-RHF Final Energy:  -248.21812755096084
    Total Energy =                       -248.2181275509609577
  Basis Set: CC-PVTZ
  Basis Set:
  Basis Set: CC-PVTZ
  Basis Set:
  @DF-RHF Final Energy:  -248.21813003563901
    Total Energy =                       -248.2181300356388078
  Basis Set: CC-PVTZ
  Basis Set:
  Charge       = 0
  Multiplicity = 1
  Basis Set: CC-PVTZ
  Basis Set:

    Orbital Energies (a.u.)
    -----------------------

    Doubly Occupied:

       1A    -20.547589     2A    -15.530963     3A    -11.263014
       4A    -11.260775     5A    -11.240075     6A     -1.381262
       7A     -1.179918     8A     -0.997574     9A     -0.900016
      10A     -0.824512    11A     -0.677200    12A     -0.675425
      13A     -0.645549    14A     -0.619699    15A     -0.609793
      16A     -0.537312    17A     -0.526069    18A     -0.500930
      19A     -0.469343    20A     -0.415436    21A     -0.388842

  @DF-RHF Final Energy:  -248.21813019736248

   => Energetics <=

    Nuclear Repulsion Energy =            191.0966882179940285
    One-Electron Energy =                -716.2470432067705133
    Two-Electron Energy =                 276.9322247914140007
    DFT Exchange-Correlation Energy =       0.0000000000000000
    Empirical Dispersion Energy =           0.0000000000000000
    PCM Polarization Energy =               0.0000000000000000
    EFP Energy =                            0.0000000000000000
    Total Energy =                       -248.2181301973624841
    Molecular point group: c1
  Basis Set: CC-PVTZ
  Basis Set:

  -Total Gradient:
     Atom            X                  Y                   Z
    ------   -----------------  -----------------  -----------------
       1        0.000004391664     0.000005905021    -0.000009186133
       2       -0.000010090761    -0.000032736202     0.000038595705
       3       -0.000442159871     0.002058951735     0.000521668288
       4       -0.000000409024     0.000006207328    -0.000007489646
       5        0.000449400239     0.000426865355    -0.001603228290
       6        0.000294898809    -0.001786820297    -0.000156900449
       7       -0.000005955726    -0.000014237623     0.000006764936
       8       -0.000280777600    -0.000671321343     0.001210757156
       9        0.000001402662    -0.000005681804    -0.000001725028
      10       -0.000003895158    -0.000005740490    -0.000003278511
      11       -0.000004302661     0.000023781722     0.000006090457
      12        0.000008137876     0.000003945563     0.000005328304
      13       -0.000007495038    -0.000004195571    -0.000005457648
      14       -0.000003145410    -0.000004923393    -0.000001939141

  **** Optimization is complete! (in 6 steps) ****
    Final optimized geometry and variables:
    Molecular point group: c1

    Geometry (in Angstrom), charge = 0, multiplicity = 1:

    H           -2.569644884744    -1.745247923257    -0.459166346444
    N           -1.595008001647    -1.674290107871    -0.256627698550
    C           -1.063045973825    -0.404316027470    -0.733410229262
    H           -1.149044625130    -2.444229027581    -0.710681419282
    C            0.382543442070    -0.200160746782    -0.276127191475
    H           -1.120998192289    -0.315400346866    -1.816438342253
    H           -1.654810317112     0.392122642063    -0.306362194432
    O            0.486293732915     1.015331836592     0.400520591430
    H            0.664420503677    -1.015868082835     0.384875112339
    H            1.065704905794    -0.206790635953    -1.124039789422
    C            1.763206562596     1.302583977411     0.863406349889
    H            1.725015411998     2.255042696108     1.371984718837
    H            2.112917567697     0.546146248043     1.562661174827
    H            2.478633639391     1.371101714108     0.046247407377

  Mulliken Charges: (a.u.)
   Center  Symbol    Alpha    Beta     Spin     Total
       1     H     0.42906  0.42906  0.00000  0.14189
       2     N     3.68791  3.68791  0.00000 -0.37582
       3     C     3.03485  3.03485  0.00000 -0.06970
       4     H     0.43199  0.43199  0.00000  0.13602
       5     C     2.96176  2.96176  0.00000  0.07647
       6     H     0.46484  0.46484  0.00000  0.07033
       7     H     0.44790  0.44790  0.00000  0.10420
       8     O     4.17246  4.17246  0.00000 -0.34492
       9     H     0.47095  0.47095  0.00000  0.05810
      10     H     0.47754  0.47754  0.00000  0.04492
      11     C     3.02940  3.02940  0.00000 -0.05879
      12     H     0.44691  0.44691  0.00000  0.10619
      13     H     0.47157  0.47157  0.00000  0.05687
      14     H     0.47288  0.47288  0.00000  0.05424

   Total alpha = 21.00000, Total beta = 21.00000, Total charge = -0.00000

*** Psi4 exiting successfully. Buy a developer a beer!
