  ==> Input File <==

--------------------------------------------------------------------------
set {
	reference rhf
	basis 6-31G*
}

set_num_threads( 1 )
memory 2 gb

molecule MOL {
0 1

O	 3.807441	 -0.195609	 -0.603291
C	 2.843464	 0.164689	 -0.000222
C	 1.546494	 -0.624492	 -0.000609
C	 2.852965	 1.443997	 0.811219
C	 0.291004	 0.242674	 0.000989
H	 1.557904	 -1.283758	 -0.867573
H	 1.558622	 -1.285963	 0.864672
C	 -0.994322	 -0.586602	 0.000262
H	 0.309117	 0.896430	 -0.865270
H	 0.309661	 0.894078	 0.869017
C	 -2.259874	 0.272531	 0.000494
H	 -1.004862	 -1.240012	 -0.870939
H	 -1.005220	 -1.241071	 0.870675
C	 -3.549786	 -0.549746	 -0.000374
H	 -2.250389	 0.926680	 -0.869574
H	 -2.250838	 0.925513	 0.871430
C	 -4.809590	 0.315458	 -0.000369
H	 -3.560515	 -1.202009	 -0.871156
H	 -3.561123	 -1.202955	 0.869711
H	 -4.844746	 0.956611	 -0.876632
H	 -5.706986	 -0.295590	 -0.001609
H	 -4.845960	 0.954827	 0.877144
H	 2.629825	 1.233615	 1.853124
H	 3.823181	 1.915315	 0.737901
H	 2.089879	 2.127232	 0.449939

	symmetry c1
}
set optking {
	frozen_dihedral = ("
		9 5 8 12,
		15 11 8 12,
		15 11 14 18,
		9 5 3 6
	")
}

ee = energy('scf')
oeprop('DIPOLE', 'QUADRUPOLE', 'MULLIKEN_CHARGES')
f=open( 'psi4out.xyz', 'w' )
f.write( "25  " )
f.write( str(ee) + "\n" )
f.write( MOL.save_string_xyz() )
f.close()
--------------------------------------------------------------------------

    Molecular point group: c1

    Geometry (in Angstrom), charge = 0, multiplicity = 1:

       Center              X                  Y                   Z               Mass
    ------------   -----------------  -----------------  -----------------  -----------------
           O          3.845995326457    -0.258958885110    -0.627890937239    15.994914619560
           C          2.882018326457     0.101339114890    -0.024821937239    12.000000000000
           C          1.585048326457    -0.687841885110    -0.025208937239    12.000000000000
           C          2.891519326457     1.380647114890     0.786619062761    12.000000000000
           C          0.329558326457     0.179324114890    -0.023610937239    12.000000000000
           H          1.596458326457    -1.347107885110    -0.892172937239     1.007825032070
           H          1.597176326457    -1.349312885110     0.840072062761     1.007825032070
           C         -0.955767673543    -0.649951885110    -0.024337937239    12.000000000000
           H          0.347671326457     0.833080114890    -0.889869937239     1.007825032070
           H          0.348215326457     0.830728114890     0.844417062761     1.007825032070
           C         -2.221319673543     0.209181114890    -0.024105937239    12.000000000000
           H         -0.966307673543    -1.303361885110    -0.895538937239     1.007825032070
           H         -0.966665673543    -1.304420885110     0.846075062761     1.007825032070
           C         -3.511231673543    -0.613095885110    -0.024973937239    12.000000000000
           H         -2.211834673543     0.863330114890    -0.894173937239     1.007825032070
           H         -2.212283673543     0.862163114890     0.846830062761     1.007825032070
           C         -4.771035673543     0.252108114890    -0.024968937239    12.000000000000
           H         -3.521960673543    -1.265358885110    -0.895755937239     1.007825032070
           H         -3.522568673543    -1.266304885110     0.845111062761     1.007825032070
           H         -4.806191673543     0.893261114890    -0.901231937239     1.007825032070
           H         -5.668431673543    -0.358939885110    -0.026208937239     1.007825032070
           H         -4.807405673543     0.891477114890     0.852544062761     1.007825032070
           H          2.668379326457     1.170265114890     1.828524062761     1.007825032070
           H          3.861735326457     1.851965114890     0.713301062761     1.007825032070
           H          2.128433326457     2.063882114890     0.425339062761     1.007825032070

  Charge       = 0
  Multiplicity = 1
  Basis Set: 6-31G*
  Basis Set:

    Orbital Energies (a.u.)
    -----------------------

    Doubly Occupied:

       1A    -20.547885     2A    -11.325002     3A    -11.231342
       4A    -11.230135     5A    -11.226272     6A    -11.224856
       7A    -11.220870     8A    -11.220230     9A    -11.212783
      10A     -1.393039    11A     -1.103693    12A     -1.063650
      13A     -1.010559    14A     -0.970251    15A     -0.898076
      16A     -0.823218    17A     -0.798103    18A     -0.732053
      19A     -0.668434    20A     -0.649954    21A     -0.636807
      22A     -0.621590    23A     -0.600877    24A     -0.589777
      25A     -0.564160    26A     -0.559122    27A     -0.546473
      28A     -0.534069    29A     -0.517470    30A     -0.500338
      31A     -0.488268    32A     -0.476194    33A     -0.470115
      34A     -0.469148    35A     -0.458906    36A     -0.395784

  @DF-RHF Final Energy:  -387.13192067668336

   => Energetics <=

    Nuclear Repulsion Energy =            440.2406706255442828
    One-Electron Energy =               -1396.7859813037782715
    Two-Electron Energy =                 569.4133900015517611
    DFT Exchange-Correlation Energy =       0.0000000000000000
    Empirical Dispersion Energy =           0.0000000000000000
    PCM Polarization Energy =               0.0000000000000000
    EFP Energy =                            0.0000000000000000
    Total Energy =                       -387.1319206766822845

  Mulliken Charges: (a.u.)
   Center  Symbol    Alpha    Beta     Spin     Total
       1     O     4.26256  4.26256  0.00000 -0.52513
       2     C     2.72876  2.72876  0.00000  0.54247
       3     C     3.20752  3.20752  0.00000 -0.41505
       4     C     3.29529  3.29529  0.00000 -0.59058
       5     C     3.16669  3.16669  0.00000 -0.33338
       6     H     0.39986  0.39986  0.00000  0.20027
       7     H     0.40647  0.40647  0.00000  0.18706
       8     C     3.15194  3.15194  0.00000 -0.30388
       9     H     0.41615  0.41615  0.00000  0.16770
      10     H     0.41763  0.41763  0.00000  0.16474
      11     C     3.15127  3.15127  0.00000 -0.30255
      12     H     0.41972  0.41972  0.00000  0.16057
      13     H     0.42182  0.42182  0.00000  0.15636
      14     C     3.15203  3.15203  0.00000 -0.30406
      15     H     0.42279  0.42279  0.00000  0.15442
      16     H     0.42374  0.42374  0.00000  0.15253
      17     C     3.23957  3.23957  0.00000 -0.47915
      18     H     0.42197  0.42197  0.00000  0.15605
      19     H     0.42259  0.42259  0.00000  0.15482
      20     H     0.42123  0.42123  0.00000  0.15753
      21     H     0.41831  0.41831  0.00000  0.16339
      22     H     0.42162  0.42162  0.00000  0.15676
      23     H     0.40895  0.40895  0.00000  0.18211
      24     H     0.39618  0.39618  0.00000  0.20764
      25     H     0.40533  0.40533  0.00000  0.18934

   Total alpha = 36.00000, Total beta = 36.00000, Total charge = -0.00000
