                              Psi4 1.0.54 Driver

  ==> Input File <==

--------------------------------------------------------------------------
set {
	reference rhf
	basis cc-pvtz
}

set_num_threads( 4 )
memory 2 gb

molecule MOL {
0 1

H	 1.376203	 -3.855816	 3.995905
C	 1.355360	 -3.417302	 3.005259
C	 0.137588	 -2.516871	 2.829453
H	 2.276729	 -2.860172	 2.872128
H	 1.353858	 -4.228923	 2.285339
C	 0.068228	 -1.879724	 1.449525
H	 0.145115	 -1.729686	 3.575139
H	 -0.766323	 -3.096585	 3.001077
N	 -1.084175	 -1.013971	 1.322345
H	 0.958919	 -1.280357	 1.286436
H	 0.081090	 -2.664372	 0.687130
C	 -1.215959	 -0.382435	 0.027143
H	 -1.915196	 -1.525842	 1.533795
C	 -2.451944	 0.502410	 -0.038737
H	 -0.331522	 0.224230	 -0.142874
H	 -1.249555	 -1.112901	 -0.786716
C	 -3.752217	 -0.292550	 0.005776
H	 -2.407325	 1.093801	 -0.946480
H	 -2.431979	 1.206234	 0.790023
H	 -3.817783	 -0.982946	 -0.828547
H	 -4.612613	 0.364348	 -0.042306
H	 -3.830160	 -0.871666	 0.919868

	symmetry c1
}
set optking {
	frozen_dihedral = ("
		15 12 14 18
	")
}

ee,wfn = optimize('scf', return_wfn=True)
oeprop( wfn, 'DIPOLE', 'QUADRUPOLE', 'MULLIKEN_CHARGES')
f=open( 'psi4out.xyz', 'w' )
f.write( "22  " )
f.write( str(ee) + "\n" )
f.write( MOL.save_string_xyz() )
f.close()
--------------------------------------------------------------------------

    Molecular point group: c1
  Charge       = 0
  Multiplicity = 1
  Basis Set: CC-PVTZ
  Basis Set:
  @DF-RHF Final Energy:  -290.48840252950424
    Total Energy =                       -290.4884025295041852
    Molecular point group: c1
  Basis Set: CC-PVTZ
  Basis Set:
  Basis Set: CC-PVTZ
  Basis Set:
  @DF-RHF Final Energy:  -290.48864702829889
    Total Energy =                       -290.4886470282989990
  Basis Set: CC-PVTZ
  Basis Set:
  Basis Set: CC-PVTZ
  Basis Set:
  @DF-RHF Final Energy:  -290.48882623768128
    Total Energy =                       -290.4888262376812236
  Basis Set: CC-PVTZ
  Basis Set:
  Basis Set: CC-PVTZ
  Basis Set:
  @DF-RHF Final Energy:  -290.48883069920396
    Total Energy =                       -290.4888306992037883
  Basis Set: CC-PVTZ
  Basis Set:
  Charge       = 0
  Multiplicity = 1
  Basis Set: CC-PVTZ
  Basis Set:

    Orbital Energies (a.u.)
    -----------------------

    Doubly Occupied:

       1A    -15.528009     2A    -11.236368     3A    -11.236249
       4A    -11.211895     5A    -11.211625     6A    -11.208534
       7A    -11.207605     8A     -1.207561     9A     -1.059924
      10A     -1.025000    11A     -0.929466    12A     -0.879582
      13A     -0.806121    14A     -0.789797    15A     -0.669105
      16A     -0.635949    17A     -0.623090    18A     -0.588280
      19A     -0.574994    20A     -0.572788    21A     -0.546853
      22A     -0.528902    23A     -0.506942    24A     -0.487108
      25A     -0.480140    26A     -0.472270    27A     -0.467399
      28A     -0.452285    29A     -0.361233

  @DF-RHF Final Energy:  -290.48883126270465

   => Energetics <=

    Nuclear Repulsion Energy =            317.4661910989820512
    One-Electron Energy =               -1020.8998937578892310
    Two-Electron Energy =                 412.9448713962027000
    DFT Exchange-Correlation Energy =       0.0000000000000000
    Empirical Dispersion Energy =           0.0000000000000000
    PCM Polarization Energy =               0.0000000000000000
    EFP Energy =                            0.0000000000000000
    Total Energy =                       -290.4888312627044229
    Molecular point group: c1
  Basis Set: CC-PVTZ
  Basis Set:

  -Total Gradient:
     Atom            X                  Y                   Z
    ------   -----------------  -----------------  -----------------
       1       -0.000002015607     0.000002300153     0.000000361497
       2       -0.000001946992     0.000003490724    -0.000003796646
       3        0.000003745052    -0.000003225931     0.000004716175
       4        0.000008232290     0.000001567390    -0.000000250612
       5        0.000001014196    -0.000004473836    -0.000002566458
       6       -0.000020295865     0.000007791369     0.000004158569
       7       -0.000002432153     0.000003595330     0.000005339824
       8       -0.000007058863    -0.000000464753     0.000000438481
       9        0.000029265274     0.000011754446    -0.000020879092
      10        0.000001957762     0.000004043120    -0.000004442304
      11        0.000000226558    -0.000004833974    -0.000007348418
      12        0.000172972136     0.000309780335     0.001185567314
      13       -0.000018770732     0.000014017591    -0.000006253170
      14       -0.000589741571    -0.000829675491    -0.000719028641
      15       -0.000079589805    -0.000154355438    -0.000877450541
      16        0.000025203737    -0.000024646720    -0.000020247450
      17        0.000022589081     0.000006916613     0.000010506897
      18        0.000466012045     0.000632292982     0.000443963641
      19       -0.000014944178     0.000025875336     0.000013464048
      20        0.000002110197    -0.000011780902    -0.000012623391
      21       -0.000002755680     0.000027040981    -0.000009314841
      22        0.000006223120    -0.000017009323     0.000015685115

  **** Optimization is complete! (in 5 steps) ****
    Final optimized geometry and variables:
    Molecular point group: c1

    Geometry (in Angstrom), charge = 0, multiplicity = 1:

    H            2.399669673629    -2.567608323310     2.762333017405
    C            2.379648773750    -2.114985928641     1.778020100597
    C            1.139694290121    -1.246044870515     1.599055695697
    H            3.286793392206    -1.530625912657     1.665522240300
    H            2.410039325844    -2.915392642480     1.046274833483
    C            1.071589710683    -0.589339854905     0.228259622271
    H            1.115202023723    -0.470782295335     2.356783955274
    H            0.250141249621    -1.853381087429     1.748984752635
    N           -0.101564067053     0.248602112889     0.099501180874
    H            1.948682507616     0.034761244893     0.085962065893
    H            1.113905159941    -1.361633716013    -0.545588215655
    C           -0.230315290351     0.891112767252    -1.191442229925
    H           -0.916814845320    -0.291654430468     0.295808734080
    C           -1.440882056366     1.813830613614    -1.267172949585
    H            0.665924620335     1.477674014535    -1.362910339769
    H           -0.279419581312     0.164857858008    -2.009205597174
    C           -2.786942531259     1.094649007076    -1.239032549589
    H           -1.366215818973     2.393890594265    -2.181936173403
    H           -1.387514304590     2.519840211632    -0.445247958372
    H           -2.859672795654     0.366954156584    -2.041123747976
    H           -3.602021988374     1.798937181176    -1.357986637697
    H           -2.948674166367     0.575289296576    -0.301028321283

  Mulliken Charges: (a.u.)
   Center  Symbol    Alpha    Beta     Spin     Total
       1     H     0.44770  0.44770  0.00000  0.10459
       2     C     3.15334  3.15334  0.00000 -0.30668
       3     C     3.08080  3.08080  0.00000 -0.16159
       4     H     0.45464  0.45464  0.00000  0.09072
       5     H     0.45608  0.45608  0.00000  0.08783
       6     C     3.02197  3.02197  0.00000 -0.04394
       7     H     0.44916  0.44916  0.00000  0.10168
       8     H     0.45986  0.45986  0.00000  0.08028
       9     N     3.63877  3.63877  0.00000 -0.27755
      10     H     0.45924  0.45924  0.00000  0.08152
      11     H     0.47483  0.47483  0.00000  0.05035
      12     C     3.03521  3.03521  0.00000 -0.07042
      13     H     0.44308  0.44308  0.00000  0.11384
      14     C     3.08331  3.08331  0.00000 -0.16662
      15     H     0.45407  0.45407  0.00000  0.09186
      16     H     0.47123  0.47123  0.00000  0.05753
      17     C     3.15431  3.15431  0.00000 -0.30863
      18     H     0.45397  0.45397  0.00000  0.09206
      19     H     0.45141  0.45141  0.00000  0.09718
      20     H     0.45442  0.45442  0.00000  0.09115
      21     H     0.44585  0.44585  0.00000  0.10830
      22     H     0.45673  0.45673  0.00000  0.08654

   Total alpha = 29.00000, Total beta = 29.00000, Total charge =  0.00000

*** Psi4 exiting successfully. Buy a developer a beer!
