  ==> Input File <==

--------------------------------------------------------------------------
set {
	reference rhf
	basis cc-pvtz
}

set_num_threads( 4 )
memory 2 gb

molecule MOL {
0 1

H	 -2.275620	 -0.505485	 3.267553
C	 -1.434889	 -0.512448	 2.601792
C	 -1.292838	 -1.518666	 1.656711
C	 -0.479910	 0.475080	 2.670197
H	 -2.028190	 -2.297855	 1.588485
C	 -0.217240	 -1.531444	 0.801756
H	 -0.572662	 1.261870	 3.394799
C	 0.612739	 0.477348	 1.814321
H	 -0.098144	 -2.304229	 0.068074
C	 0.744985	 -0.529830	 0.876141
H	 1.338468	 1.260029	 1.892994
O	 1.760432	 -0.625184	 0.000000
C	 2.773565	 0.334879	 0.000000
H	 2.728295	 0.960928	 -0.884150
H	 3.706387	 -0.206610	 0.000000
H	 2.728295	 0.960928	 0.884150

	symmetry c1
}
set optking {
	frozen_dihedral = ("
		10 12 13 14
	")
}

ee = optimize('scf')
oeprop('DIPOLE', 'QUADRUPOLE', 'MULLIKEN_CHARGES')
f=open( 'psi4out.xyz', 'w' )
f.write( "16  " )
f.write( str(ee) + "\n" )
f.write( MOL.save_string_xyz() )
f.close()
--------------------------------------------------------------------------

    Molecular point group: c1
  Charge       = 0
  Multiplicity = 1
  Basis Set: CC-PVTZ
  Basis Set:
  @DF-RHF Final Energy:  -344.69630337167365
    Total Energy =                       -344.6963033716738209
    Molecular point group: c1
  Basis Set: CC-PVTZ
  Basis Set:
  Basis Set: CC-PVTZ
  Basis Set:
  @DF-RHF Final Energy:  -344.69508611434014
    Total Energy =                       -344.6950861143403699
  Basis Set: CC-PVTZ
  Basis Set:
  Basis Set: CC-PVTZ
  Basis Set:
  @DF-RHF Final Energy:  -344.69858118551258
    Total Energy =                       -344.6985811855126371
  Basis Set: CC-PVTZ
  Basis Set:
  Basis Set: CC-PVTZ
  Basis Set:
  @DF-RHF Final Energy:  -344.69914929436220
    Total Energy =                       -344.6991492943622006
  Basis Set: CC-PVTZ
  Basis Set:
  @DF-RHF Final Energy:  -344.69985164078724
    Total Energy =                       -344.6998516407873012
  Basis Set: CC-PVTZ
  Basis Set:
  @DF-RHF Final Energy:  -344.69994961984202
    Total Energy =                       -344.6999496198417319
  Basis Set: CC-PVTZ
  Basis Set:
  Basis Set: CC-PVTZ
  Basis Set:
  @DF-RHF Final Energy:  -344.69998340000012
    Total Energy =                       -344.6999834000004057
  Basis Set: CC-PVTZ
  Basis Set:
  Basis Set: CC-PVTZ
  Basis Set:
  @DF-RHF Final Energy:  -344.69998659031967
    Total Energy =                       -344.6999865903199520
  Basis Set: CC-PVTZ
  Basis Set:
  Charge       = 0
  Multiplicity = 1
  Basis Set: CC-PVTZ
  Basis Set:

    Orbital Energies (a.u.)
    -----------------------

    Doubly Occupied:

       1A    -20.574025     2A    -11.292006     3A    -11.277111
       4A    -11.231495     5A    -11.230093     6A    -11.222551
       7A    -11.218545     8A    -11.218393     9A     -1.412620
      10A     -1.151211    11A     -1.024117    12A     -1.017179
      13A     -0.941841    14A     -0.835788    15A     -0.808641
      16A     -0.723150    17A     -0.667275    18A     -0.666583
      19A     -0.653724    20A     -0.617621    21A     -0.592604
      22A     -0.583392    23A     -0.529333    24A     -0.518284
      25A     -0.511415    26A     -0.483995    27A     -0.456099
      28A     -0.339518    29A     -0.312768

  @DF-RHF Final Energy:  -344.69998749828255

   => Energetics <=

    Nuclear Repulsion Energy =            348.3858769690293684
    One-Electron Energy =               -1157.9489793348627700
    Two-Electron Energy =                 464.8631148675507347
    DFT Exchange-Correlation Energy =       0.0000000000000000
    Empirical Dispersion Energy =           0.0000000000000000
    PCM Polarization Energy =               0.0000000000000000
    EFP Energy =                            0.0000000000000000
    Total Energy =                       -344.6999874982826668
    Molecular point group: c1
  Basis Set: CC-PVTZ
  Basis Set:

  -Total Gradient:
     Atom            X                  Y                   Z
    ------   -----------------  -----------------  -----------------
       1       -0.000008562194    -0.000007671372    -0.000001181503
       2        0.000056975522     0.000081640238     0.000029977378
       3        0.000013225293    -0.000025637072    -0.000068543014
       4       -0.000083667834    -0.000028387764     0.000056463974
       5        0.000002739686     0.000010373411     0.000014577706
       6        0.000013795397    -0.000013876126    -0.000013618821
       7       -0.000001017639    -0.000002004892    -0.000002442323
       8        0.000042582172    -0.000042829597    -0.000086893540
       9        0.000004059652     0.000001267551    -0.000005556121
      10        0.000684987972    -0.001942092382     0.000884579266
      11        0.000003198330    -0.000010549236    -0.000003193729
      12       -0.000909928868     0.002557567694    -0.001690841554
      13       -0.000759577060     0.000678469603     0.002834645803
      14        0.000995932656    -0.001278650729    -0.001947937113
      15       -0.000049056177    -0.000002747356     0.000020908913
      16       -0.000005686911     0.000025128030    -0.000020945320

  **** Optimization is complete! (in 9 steps) ****
    Final optimized geometry and variables:
    Molecular point group: c1

    Geometry (in Angstrom), charge = 0, multiplicity = 1:

    H           -2.535021142574    -0.274632207673     2.163117249221
    C           -1.748487237613    -0.206688646292     1.437090118520
    C           -1.562938156907    -1.215214576744     0.506498995052
    C           -0.911240265629     0.888431064350     1.413462954047
    H           -2.207850789814    -2.073439088771     0.510054917473
    C           -0.550867458150    -1.134377394989    -0.424885159985
    H           -1.048293945213     1.684084149228     2.121100712003
    C            0.104606793684     0.986520764682     0.477811240206
    H           -0.396982980615    -1.910755535862    -1.148204525566
    C            0.291291915972    -0.032657862036    -0.439776525035
    H            0.730025767446     1.856780016856     0.460387476155
    O            1.232696493140     0.000456890484    -1.404173890747
    C            2.482303428342     0.589450269020    -1.162282848296
    H            2.575675465990     1.510983561135    -1.723591456732
    H            3.240111262574    -0.098086445990    -1.512668563166
    H            2.645929751605     0.780647733026    -0.111516301459

  Mulliken Charges: (a.u.)
   Center  Symbol    Alpha    Beta     Spin     Total
       1     H     0.42424  0.42424  0.00000  0.15153
       2     C     3.09753  3.09753  0.00000 -0.19506
       3     C     3.06011  3.06011  0.00000 -0.12023
       4     C     3.06455  3.06455  0.00000 -0.12911
       5     H     0.42280  0.42280  0.00000  0.15439
       6     C     3.11060  3.11060  0.00000 -0.22120
       7     H     0.42287  0.42287  0.00000  0.15426
       8     C     3.13017  3.13017  0.00000 -0.26033
       9     H     0.41933  0.41933  0.00000  0.16133
      10     C     2.85666  2.85666  0.00000  0.28669
      11     H     0.42337  0.42337  0.00000  0.15326
      12     O     4.16281  4.16281  0.00000 -0.32561
      13     C     3.03952  3.03952  0.00000 -0.07903
      14     H     0.45470  0.45470  0.00000  0.09061
      15     H     0.44691  0.44691  0.00000  0.10618
      16     H     0.46384  0.46384  0.00000  0.07231

   Total alpha = 29.00000, Total beta = 29.00000, Total charge = -0.00000
