  ==> Input File <==

--------------------------------------------------------------------------
set {
	reference rhf
	basis cc-pvtz
}

set_num_threads( 4 )
memory 2 gb

molecule MOL {
0 1

H	 -2.006988	 -0.736961	 -2.685293
N	 -1.077894	 -0.833587	 -2.335266
C	 -1.081224	 -1.391678	 -0.995614
H	 -0.662843	 0.073963	 -2.326222
C	 0.330872	 -1.523542	 -0.472886
H	 -1.657937	 -0.803739	 -0.282680
H	 -1.522480	 -2.381598	 -1.033033
O	 0.881195	 -0.248324	 -0.336237
H	 0.322496	 -2.032446	 0.489983
H	 0.923471	 -2.115833	 -1.166389
C	 2.208068	 -0.234417	 0.074171
H	 2.725499	 -1.027054	 -0.446768
H	 2.688377	 0.712084	 -0.164856
H	 2.295137	 -0.403407	 1.144883

	symmetry c1
}
set optking {
	frozen_dihedral = ("
		5 8 11 13
	")
}

ee = optimize('scf')
oeprop('DIPOLE', 'QUADRUPOLE', 'MULLIKEN_CHARGES')
f=open( 'psi4out.xyz', 'w' )
f.write( "14  " )
f.write( str(ee) + "\n" )
f.write( MOL.save_string_xyz() )
f.close()
--------------------------------------------------------------------------

    Molecular point group: c1
  Charge       = 0
  Multiplicity = 1
  Basis Set: CC-PVTZ
  Basis Set:
  @DF-RHF Final Energy:  -248.22438144326043
    Total Energy =                       -248.2243814432605404
    Molecular point group: c1
  Basis Set: CC-PVTZ
  Basis Set:
  Basis Set: CC-PVTZ
  Basis Set:
  @DF-RHF Final Energy:  -248.22512568687765
    Total Energy =                       -248.2251256868771065
  Basis Set: CC-PVTZ
  Basis Set:
  Basis Set: CC-PVTZ
  Basis Set:
  @DF-RHF Final Energy:  -248.22531062122434
    Total Energy =                       -248.2253106212243665
  Basis Set: CC-PVTZ
  Basis Set:
  Charge       = 0
  Multiplicity = 1
  Basis Set: CC-PVTZ
  Basis Set:

    Orbital Energies (a.u.)
    -----------------------

    Doubly Occupied:

       1A    -20.550009     2A    -15.523404     3A    -11.264103
       4A    -11.263509     5A    -11.239759     6A     -1.383618
       7A     -1.175873     8A     -1.000631     9A     -0.907738
      10A     -0.815738    11A     -0.684872    12A     -0.675841
      13A     -0.646780    14A     -0.612432    15A     -0.607645
      16A     -0.541722    17A     -0.531710    18A     -0.497466
      19A     -0.474089    20A     -0.419280    21A     -0.383773

  @DF-RHF Final Energy:  -248.22531159111725

   => Energetics <=

    Nuclear Repulsion Energy =            194.6507888619111668
    One-Electron Energy =                -723.3522229692305245
    Two-Electron Energy =                 280.4761225162021674
    DFT Exchange-Correlation Energy =       0.0000000000000000
    Empirical Dispersion Energy =           0.0000000000000000
    PCM Polarization Energy =               0.0000000000000000
    EFP Energy =                            0.0000000000000000
    Total Energy =                       -248.2253115911171335
    Molecular point group: c1
  Basis Set: CC-PVTZ
  Basis Set:

  -Total Gradient:
     Atom            X                  Y                   Z
    ------   -----------------  -----------------  -----------------
       1       -0.000000794068     0.000003949173    -0.000006480309
       2       -0.000008712798     0.000006861822    -0.000020836004
       3        0.000044992741     0.000093028089     0.000013542369
       4       -0.000000015878     0.000003765567    -0.000003983786
       5        0.000660326216    -0.000151715612    -0.001757746158
       6       -0.000011414195     0.000002519684     0.000004958441
       7        0.000045895458     0.000001167866     0.000015076568
       8       -0.000682124091    -0.000070492350     0.002110524012
       9        0.000002635462     0.000006908286     0.000001374850
      10        0.000019433377     0.000024355019    -0.000008625060
      11       -0.000596417484     0.000975861833     0.001795174385
      12       -0.000014641572    -0.000022923587    -0.000014873206
      13        0.000603087986    -0.000875235197    -0.002114835086
      14       -0.000062251153     0.000001949407    -0.000013271013

  **** Optimization is complete! (in 4 steps) ****
    Final optimized geometry and variables:
    Molecular point group: c1

    Geometry (in Angstrom), charge = 0, multiplicity = 1:

    H           -2.270052351919     0.110650142951    -1.863490794866
    N           -1.341211561999     0.005274509849    -1.515366039255
    C           -1.346715198652    -0.556729870131    -0.177378503807
    H           -0.918680739437     0.909304164842    -1.504435782016
    C            0.065217352876    -0.700063773462     0.342908474689
    H           -1.918557568431     0.032904158384     0.538052695081
    H           -1.794531449211    -1.543650785295    -0.216841603942
    O            0.625117538617     0.571522797036     0.475727548070
    H            0.052761086709    -1.210571110249     1.305161549001
    H            0.652448651518    -1.295330127969    -0.351800625387
    C            1.950966288181     0.588799457192     0.893274771803
    H            2.532454330880    -0.184769865597     0.397974987742
    H            2.375130844416     1.546226838102     0.625473462582
    H            2.031975394512     0.445161503850     1.967784550471

  Mulliken Charges: (a.u.)
   Center  Symbol    Alpha    Beta     Spin     Total
       1     H     0.43026  0.43026  0.00000  0.13947
       2     N     3.69421  3.69421  0.00000 -0.38843
       3     C     3.02239  3.02239  0.00000 -0.04478
       4     H     0.42240  0.42240  0.00000  0.15521
       5     C     2.96936  2.96936  0.00000  0.06128
       6     H     0.46453  0.46453  0.00000  0.07094
       7     H     0.45872  0.45872  0.00000  0.08256
       8     O     4.18114  4.18114  0.00000 -0.36228
       9     H     0.47096  0.47096  0.00000  0.05807
      10     H     0.46705  0.46705  0.00000  0.06590
      11     C     3.03058  3.03058  0.00000 -0.06115
      12     H     0.47288  0.47288  0.00000  0.05423
      13     H     0.44898  0.44898  0.00000  0.10204
      14     H     0.46653  0.46653  0.00000  0.06693

   Total alpha = 21.00000, Total beta = 21.00000, Total charge = -0.00000
