  ==> Input File <==

--------------------------------------------------------------------------
set {
	reference rhf
	basis 6-31G*
}

set_num_threads( 4 )
memory 2 gb

molecule MOL {
0 1

H	 -3.420663	 1.227371	 -1.044276
O	 -3.452007	 0.283848	 -0.965577
C	 -3.181085	 -0.079926	 0.364119
C	 -1.765924	 0.277073	 0.805136
H	 -3.327791	 -1.152017	 0.410903
H	 -3.905698	 0.375695	 1.036898
C	 -0.677594	 -0.417312	 -0.014550
H	 -1.637766	 1.358238	 0.744969
H	 -1.659588	 0.017670	 1.857098
C	 0.738335	 -0.034840	 0.421385
H	 -0.814977	 -0.178223	 -1.064632
H	 -0.802730	 -1.495410	 0.071702
C	 0.886057	 1.461235	 0.711255
H	 1.004875	 -0.612256	 1.303409
H	 1.446122	 -0.320441	 -0.355836
C	 2.308754	 1.908567	 1.066196
H	 0.210929	 1.739374	 1.519052
H	 0.557294	 2.019049	 -0.163145
C	 2.842469	 1.344532	 2.384308
H	 2.324647	 2.994424	 1.120525
H	 2.983713	 1.636165	 0.257228
H	 2.180522	 1.590809	 3.210330
H	 3.820743	 1.756800	 2.612017
H	 2.944612	 0.264840	 2.352765

	symmetry c1
}
set optking {
	frozen_dihedral = ("
		13 10 7 11
	")
}

ee = optimize('scf')
oeprop('DIPOLE', 'QUADRUPOLE', 'MULLIKEN_CHARGES')
f=open( 'psi4out.xyz', 'w' )
f.write( "24  " )
f.write( str(ee) + "\n" )
f.write( MOL.save_string_xyz() )
f.close()
--------------------------------------------------------------------------

    Molecular point group: c1
  Charge       = 0
  Multiplicity = 1
  Basis Set: 6-31G*
  Basis Set:
  @DF-RHF Final Energy:  -349.24170089022425
    Total Energy =                       -349.2417008902240809
    Molecular point group: c1
  Basis Set: 6-31G*
  Basis Set:
  Basis Set: 6-31G*
  Basis Set:
  @DF-RHF Final Energy:  -349.24249496001903
    Total Energy =                       -349.2424949600190871
  Basis Set: 6-31G*
  Basis Set:
  Basis Set: 6-31G*
  Basis Set:
  @DF-RHF Final Energy:  -349.24390457808556
    Total Energy =                       -349.2439045780856759
  Basis Set: 6-31G*
  Basis Set:
  Basis Set: 6-31G*
  Basis Set:
  @DF-RHF Final Energy:  -349.24400492314919
    Total Energy =                       -349.2440049231490775
  Basis Set: 6-31G*
  Basis Set:
  Basis Set: 6-31G*
  Basis Set:
  @DF-RHF Final Energy:  -349.24398150497717
    Total Energy =                       -349.2439815049770004
  Basis Set: 6-31G*
  Basis Set:
  Basis Set: 6-31G*
  Basis Set:
  @DF-RHF Final Energy:  -349.24400714169298
    Total Energy =                       -349.2440071416929186
  Basis Set: 6-31G*
  Basis Set:
  Basis Set: 6-31G*
  Basis Set:
  @DF-RHF Final Energy:  -349.24404522036889
    Total Energy =                       -349.2440452203689460
  Basis Set: 6-31G*
  Basis Set:
  Charge       = 0
  Multiplicity = 1
  Basis Set: 6-31G*
  Basis Set:

    Orbital Energies (a.u.)
    -----------------------

    Doubly Occupied:

       1A    -20.553425     2A    -11.267653     3A    -11.217400
       4A    -11.215156     5A    -11.213367     6A    -11.212676
       7A    -11.211618     8A    -11.208086     9A     -1.360072
      10A     -1.088815    11A     -1.047045    12A     -0.984123
      13A     -0.916917    14A     -0.854730    15A     -0.810152
      16A     -0.764070    17A     -0.677352    18A     -0.650873
      19A     -0.627753    20A     -0.619457    21A     -0.598993
      22A     -0.577576    23A     -0.569109    24A     -0.537001
      25A     -0.524283    26A     -0.510040    27A     -0.493429
      28A     -0.482246    29A     -0.473562    30A     -0.455944
      31A     -0.448428    32A     -0.440165    33A     -0.423725

  @DF-RHF Final Energy:  -349.24404499509910

   => Energetics <=

    Nuclear Repulsion Energy =            389.5280497098356136
    One-Electron Energy =               -1245.4737043173704478
    Two-Electron Energy =                 506.7016096124353339
    DFT Exchange-Correlation Energy =       0.0000000000000000
    Empirical Dispersion Energy =           0.0000000000000000
    PCM Polarization Energy =               0.0000000000000000
    EFP Energy =                            0.0000000000000000
    Total Energy =                       -349.2440449950995003
    Molecular point group: c1
  Basis Set: 6-31G*
  Basis Set:

  -Total Gradient:
     Atom            X                  Y                   Z
    ------   -----------------  -----------------  -----------------
       1        0.000005860050    -0.000021146821     0.000027443295
       2        0.000061622753    -0.000075176846    -0.000046726197
       3       -0.000049909964     0.000158978836     0.000017722212
       4       -0.000014526738    -0.000104607700     0.000019188088
       5       -0.000003910955     0.000015207145    -0.000017116766
       6       -0.000010788500    -0.000003911396     0.000012225067
       7       -0.002329615917     0.005421989973     0.002754490968
       8       -0.000061594684    -0.000049381262    -0.000019156632
       9        0.000037787618    -0.000006170468     0.000014521167
      10        0.001907713623    -0.000408685021    -0.005074004699
      11        0.001500213158    -0.004441879904    -0.001082832716
      12        0.000007349172     0.000005307079     0.000039780443
      13       -0.001061799540    -0.000460545732     0.003375555824
      14        0.000002208708    -0.000001574961    -0.000011696556
      15        0.000005697132    -0.000011357648    -0.000007716724
      16       -0.000006306317    -0.000009903076     0.000017013659
      17        0.000017256290     0.000017433043     0.000004559964
      18        0.000010243699    -0.000012667059    -0.000007899864
      19       -0.000004399851    -0.000005220098    -0.000009321316
      20       -0.000001897421     0.000003155021     0.000002415100
      21       -0.000009071031    -0.000003813107     0.000001804944
      22       -0.000005046861    -0.000002267219    -0.000009790620
      23       -0.000000529282     0.000004743959     0.000000456473
      24        0.000003444864    -0.000008506735    -0.000000915106

  **** Optimization is complete! (in 8 steps) ****
    Final optimized geometry and variables:
    Molecular point group: c1

    Geometry (in Angstrom), charge = 0, multiplicity = 1:

    H           -3.197048751648     0.428372459989    -1.750440186274
    O           -3.154767156807    -0.507779151102    -1.611939072001
    C           -2.891408023605    -0.764687448593    -0.256151696932
    C           -1.526553325756    -0.255011685206     0.194555986915
    H           -2.944398096636    -1.840702530112    -0.146191938241
    H           -3.672205491542    -0.335989895275     0.369926524178
    C           -0.368463589105    -0.889657189637    -0.576233940561
    H           -1.506842541917     0.828006829044     0.089989540387
    H           -1.420461373318    -0.460540309345     1.258907798693
    C            1.041426313089    -0.531175653976    -0.078797396629
    H           -0.454816971927    -0.669295931842    -1.635744399964
    H           -0.473655883514    -1.971608109022    -0.511707869468
    C            1.275994547135     0.956018568519     0.208709022427
    H            1.242364754404    -1.098521383735     0.826939404423
    H            1.763429218402    -0.874185435071    -0.816442996039
    C            2.738318652506     1.316390711149     0.497134721403
    H            0.664062567288     1.269893625927     1.050631744973
    H            0.941894497883     1.541309229901    -0.646782519987
    C            3.307304117534     0.690094853889     1.771725597911
    H            2.817434689629     2.398088444907     0.575164169456
    H            3.353862497496     1.027896501652    -0.352399641961
    H            2.701094988809     0.946157678589     2.636759251223
    H            4.315454116133     1.046845335446     1.959122839714
    H            3.352089886953    -0.391935937688     1.707672884021

  Mulliken Charges: (a.u.)
   Center  Symbol    Alpha    Beta     Spin     Total
       1     H     0.28339  0.28339  0.00000  0.43321
       2     O     4.36821  4.36821  0.00000 -0.73642
       3     C     2.99630  2.99630  0.00000  0.00739
       4     C     3.17203  3.17203  0.00000 -0.34406
       5     H     0.41635  0.41635  0.00000  0.16731
       6     H     0.42811  0.42811  0.00000  0.14377
       7     C     3.15253  3.15253  0.00000 -0.30506
       8     H     0.42503  0.42503  0.00000  0.14994
       9     H     0.42258  0.42258  0.00000  0.15485
      10     C     3.15414  3.15414  0.00000 -0.30827
      11     H     0.41298  0.41298  0.00000  0.17403
      12     H     0.42235  0.42235  0.00000  0.15530
      13     C     3.15553  3.15553  0.00000 -0.31106
      14     H     0.42281  0.42281  0.00000  0.15437
      15     H     0.42116  0.42116  0.00000  0.15769
      16     C     3.15185  3.15185  0.00000 -0.30369
      17     H     0.42298  0.42298  0.00000  0.15404
      18     H     0.42393  0.42393  0.00000  0.15214
      19     C     3.24137  3.24137  0.00000 -0.48273
      20     H     0.42167  0.42167  0.00000  0.15666
      21     H     0.42307  0.42307  0.00000  0.15387
      22     H     0.42296  0.42296  0.00000  0.15408
      23     H     0.41932  0.41932  0.00000  0.16135
      24     H     0.41935  0.41935  0.00000  0.16130

   Total alpha = 33.00000, Total beta = 33.00000, Total charge =  0.00000
