  ==> Input File <==

--------------------------------------------------------------------------
set {
	reference rhf
	basis 6-31G*
}

set_num_threads( 4 )
memory 2 gb

molecule MOL {
0 1

H	 0.759440	 -5.011292	 -2.571086
O	 1.681289	 -4.855792	 -2.716292
C	 1.880037	 -3.522399	 -3.112041
C	 1.699073	 -2.524192	 -1.973814
H	 2.895828	 -3.473742	 -3.482815
H	 1.220832	 -3.268782	 -3.941443
C	 0.278322	 -2.478427	 -1.406154
H	 2.400645	 -2.773280	 -1.181906
H	 1.973452	 -1.536949	 -2.341828
C	 0.115918	 -1.429151	 -0.302766
H	 0.017915	 -3.458423	 -1.016074
H	 -0.425991	 -2.263417	 -2.209929
C	 -1.309753	 -1.282496	 0.241564
H	 0.791788	 -1.664549	 0.517378
H	 0.436611	 -0.465133	 -0.692028
C	 -2.037799	 -0.007733	 -0.193645
H	 -1.890610	 -2.142323	 -0.085726
H	 -1.285946	 -1.330893	 1.329189
C	 -3.489788	 0.042957	 0.286558
H	 -2.017067	 0.064384	 -1.280144
H	 -1.513726	 0.868678	 0.179924
C	 -4.216917	 1.317354	 -0.141063
H	 -4.025645	 -0.823308	 -0.095450
H	 -3.513059	 -0.038752	 1.371301
H	 -4.239342	 1.411634	 -1.223113
H	 -5.243387	 1.322503	 0.212445
H	 -3.726170	 2.201406	 0.256408

	symmetry c1
}
set optking {
	frozen_dihedral = ("
		14 10 13 16
	")
}

ee = optimize('scf')
oeprop('DIPOLE', 'QUADRUPOLE', 'MULLIKEN_CHARGES')
f=open( 'psi4out.xyz', 'w' )
f.write( "27  " )
f.write( str(ee) + "\n" )
f.write( MOL.save_string_xyz() )
f.close()
--------------------------------------------------------------------------

    Molecular point group: c1
  Charge       = 0
  Multiplicity = 1
  Basis Set: 6-31G*
  Basis Set:
  @DF-RHF Final Energy:  -388.27803997707701
    Total Energy =                       -388.2780399770766735
    Molecular point group: c1
  Basis Set: 6-31G*
  Basis Set:
  Basis Set: 6-31G*
  Basis Set:
  @DF-RHF Final Energy:  -388.27843700455225
    Total Energy =                       -388.2784370045517335
  Basis Set: 6-31G*
  Basis Set:
  Basis Set: 6-31G*
  Basis Set:
  @DF-RHF Final Energy:  -388.27852845978617
    Total Energy =                       -388.2785284597858890
  Basis Set: 6-31G*
  Basis Set:
  Basis Set: 6-31G*
  Basis Set:
  @DF-RHF Final Energy:  -388.27853075801602
    Total Energy =                       -388.2785307580161316
  Basis Set: 6-31G*
  Basis Set:
  Charge       = 0
  Multiplicity = 1
  Basis Set: 6-31G*
  Basis Set:

    Orbital Energies (a.u.)
    -----------------------

    Doubly Occupied:

       1A    -20.552231     2A    -11.267146     3A    -11.220879
       4A    -11.216706     5A    -11.216033     6A    -11.215343
       7A    -11.215205     8A    -11.214762     9A    -11.209592
      10A     -1.359038    11A     -1.094108    12A     -1.062412
      13A     -1.010887    14A     -0.950089    15A     -0.883803
      16A     -0.820907    17A     -0.794707    18A     -0.788828
      19A     -0.694054    20A     -0.649913    21A     -0.637195
      22A     -0.615116    23A     -0.603287    24A     -0.581124
      25A     -0.580071    26A     -0.554004    27A     -0.539385
      28A     -0.521150    29A     -0.507580    30A     -0.501994
      31A     -0.478651    32A     -0.475787    33A     -0.470672
      34A     -0.463490    35A     -0.452143    36A     -0.441049
      37A     -0.421780

  @DF-RHF Final Energy:  -388.27853076688058

   => Energetics <=

    Nuclear Repulsion Energy =            454.5774471541398611
    One-Electron Energy =               -1427.1497177543267298
    Two-Electron Energy =                 584.2937398333067449
    DFT Exchange-Correlation Energy =       0.0000000000000000
    Empirical Dispersion Energy =           0.0000000000000000
    PCM Polarization Energy =               0.0000000000000000
    EFP Energy =                            0.0000000000000000
    Total Energy =                       -388.2785307668800669
    Molecular point group: c1
  Basis Set: 6-31G*
  Basis Set:

  -Total Gradient:
     Atom            X                  Y                   Z
    ------   -----------------  -----------------  -----------------
       1        0.000003165938     0.000003430769    -0.000003018383
       2        0.000006955505    -0.000011954470     0.000003661791
       3       -0.000014154298     0.000005724107     0.000002738592
       4        0.000005763003    -0.000028601088     0.000020112300
       5       -0.000002105090    -0.000001910271    -0.000002070028
       6       -0.000000191994    -0.000000207755    -0.000001359028
       7       -0.000006237887    -0.000006370515    -0.000006944250
       8        0.000008801257     0.000000908170     0.000000937989
       9       -0.000007862562     0.000000392634     0.000006487603
      10       -0.000208866653    -0.002476103602     0.000048509129
      11        0.000005988835     0.000013015425    -0.000012064403
      12       -0.000002769532     0.000018167549     0.000001967909
      13       -0.000666568897    -0.000560972195    -0.001796040253
      14        0.000301792482     0.002228172870     0.000392894211
      15       -0.000052001993     0.000012456758     0.000007079486
      16        0.000549596416     0.000809526254     0.001321367410
      17        0.000051235232    -0.000006358530    -0.000026906771
      18        0.000013497733     0.000001822772     0.000019412513
      19        0.000010643261     0.000014828080     0.000009627360
      20        0.000008073029    -0.000009302313     0.000004451411
      21       -0.000009291932    -0.000005472530     0.000002612162
      22        0.000003484578    -0.000000663388     0.000002467130
      23        0.000009380174    -0.000001136451    -0.000001192138
      24       -0.000008975566     0.000000848698     0.000005842065
      25        0.000002320313    -0.000000107008    -0.000000156541
      26        0.000000342130    -0.000002207879    -0.000001130739
      27       -0.000002013476     0.000002073904     0.000000713473

  **** Optimization is complete! (in 5 steps) ****
    Final optimized geometry and variables:
    Molecular point group: c1

    Geometry (in Angstrom), charge = 0, multiplicity = 1:

    H            1.325400468016    -3.310926324944    -1.502426144026
    O            2.249035804431    -3.167364942622    -1.648803502644
    C            2.464824237172    -1.835606395054    -2.040648011285
    C            2.289355385908    -0.837822892045    -0.901073052952
    H            3.483016451704    -1.798080808742    -2.405952002388
    H            1.812988650156    -1.572650032527    -2.872991470966
    C            0.866496625208    -0.774617002681    -0.342811995600
    H            2.982560263541    -1.097486339313    -0.105158294300
    H            2.578344143123     0.146882930948    -1.264753241614
    C            0.701368283801     0.264053464890     0.768686716313
    H            0.584042175481    -1.750103356475     0.047746158008
    H            0.169211503183    -0.548741108612    -1.149772044473
    C           -0.740541978063     0.371303444040     1.309274892298
    H            1.388987765427     0.038132496221     1.579281847796
    H            1.014865067598     1.234429987980     0.388976734954
    C           -1.467637697479     1.642321904682     0.862638594591
    H           -1.314739428061    -0.499140785524     0.999157070602
    H           -0.728388452489     0.345931865553     2.395989719627
    C           -2.909975591227     1.724403410182     1.364057546473
    H           -1.461922663883     1.700360267115    -0.225275522073
    H           -0.914144891138     2.510720694041     1.215356345252
    C           -3.623725423359     3.002921671447     0.926042964731
    H           -3.465516321852     0.860309365907     1.005556582317
    H           -2.917214089461     1.661465195969     2.450275717771
    H           -3.662973993070     3.078752879195    -0.157021429365
    H           -4.643858534473     3.031098477716     1.296350412010
    H           -3.111913838821     3.885339891634     1.299682802349

  Mulliken Charges: (a.u.)
   Center  Symbol    Alpha    Beta     Spin     Total
       1     H     0.27993  0.27993  0.00000  0.44014
       2     O     4.37091  4.37091  0.00000 -0.74183
       3     C     2.99726  2.99726  0.00000  0.00547
       4     C     3.16197  3.16197  0.00000 -0.32394
       5     H     0.41440  0.41440  0.00000  0.17120
       6     H     0.43209  0.43209  0.00000  0.13582
       7     C     3.16284  3.16284  0.00000 -0.32569
       8     H     0.41487  0.41487  0.00000  0.17025
       9     H     0.42401  0.42401  0.00000  0.15199
      10     C     3.15450  3.15450  0.00000 -0.30901
      11     H     0.42459  0.42459  0.00000  0.15082
      12     H     0.42474  0.42474  0.00000  0.15052
      13     C     3.15552  3.15552  0.00000 -0.31104
      14     H     0.41855  0.41855  0.00000  0.16289
      15     H     0.42087  0.42087  0.00000  0.15827
      16     C     3.15222  3.15222  0.00000 -0.30444
      17     H     0.42230  0.42230  0.00000  0.15541
      18     H     0.42020  0.42020  0.00000  0.15960
      19     C     3.15204  3.15204  0.00000 -0.30407
      20     H     0.42494  0.42494  0.00000  0.15012
      21     H     0.42300  0.42300  0.00000  0.15399
      22     C     3.23919  3.23919  0.00000 -0.47837
      23     H     0.42330  0.42330  0.00000  0.15341
      24     H     0.42282  0.42282  0.00000  0.15435
      25     H     0.42205  0.42205  0.00000  0.15590
      26     H     0.41921  0.41921  0.00000  0.16157
      27     H     0.42167  0.42167  0.00000  0.15667

   Total alpha = 37.00000, Total beta = 37.00000, Total charge = -0.00000
