  ==> Input File <==

--------------------------------------------------------------------------
set {
	reference rhf
	basis 6-31G*
}

set_num_threads( 4 )
memory 2 gb

molecule MOL {
0 1

O	 2.738481	 -0.329823	 0.384558
C	 1.705091	 0.115954	 0.001797
C	 0.381791	 -0.609817	 0.001258
O	 1.579563	 1.344690	 -0.483576
C	 -0.823008	 0.326187	 0.001381
H	 0.371250	 -1.265087	 -0.865474
H	 0.370908	 -1.265746	 0.867490
C	 -2.149452	 -0.435131	 -0.000098
H	 -0.770201	 0.977095	 -0.865636
H	 -0.771220	 0.975655	 0.869608
C	 -3.368779	 0.488503	 -0.000883
H	 -2.193746	 -1.087250	 -0.871175
H	 -2.195311	 -1.087803	 0.870418
C	 -4.693822	 -0.272754	 -0.001129
H	 -3.325798	 1.139422	 -0.871284
H	 -3.326423	 1.139959	 0.869145
H	 -4.781274	 -0.907928	 -0.878124
H	 -5.538651	 0.408946	 -0.001420
H	 -4.781694	 -0.907783	 0.875984
C	 2.751614	 2.137404	 -0.537004
H	 3.161011	 2.277636	 0.453075
H	 2.448214	 3.085034	 -0.953923
H	 3.496513	 1.672520	 -1.166698

	symmetry c1
}
set optking {
	frozen_dihedral = ("
		1 2 3 6
	")
}

ee = optimize('scf')
oeprop('DIPOLE', 'QUADRUPOLE', 'MULLIKEN_CHARGES')
f=open( 'psi4out.xyz', 'w' )
f.write( "23  " )
f.write( str(ee) + "\n" )
f.write( MOL.save_string_xyz() )
f.close()
--------------------------------------------------------------------------

    Molecular point group: c1
  Charge       = 0
  Multiplicity = 1
  Basis Set: 6-31G*
  Basis Set:
  @DF-RHF Final Energy:  -422.97291782016248
    Total Energy =                       -422.9729178201625928
    Molecular point group: c1
  Basis Set: 6-31G*
  Basis Set:
  Basis Set: 6-31G*
  Basis Set:
  @DF-RHF Final Energy:  -422.97281195408647
    Total Energy =                       -422.9728119540858415
  Basis Set: 6-31G*
  Basis Set:
  Basis Set: 6-31G*
  Basis Set:
  @DF-RHF Final Energy:  -422.97306729062200
    Total Energy =                       -422.9730672906225664
  Basis Set: 6-31G*
  Basis Set:
  Basis Set: 6-31G*
  Basis Set:
  @DF-RHF Final Energy:  -422.97400654441691
    Total Energy =                       -422.9740065444170796
  Basis Set: 6-31G*
  Basis Set:
  Basis Set: 6-31G*
  Basis Set:
  @DF-RHF Final Energy:  -422.97404739616974
    Total Energy =                       -422.9740473961694534
  Basis Set: 6-31G*
  Basis Set:
  Basis Set: 6-31G*
  Basis Set:
  @DF-RHF Final Energy:  -422.97405020197709
    Total Energy =                       -422.9740502019768655
  Basis Set: 6-31G*
  Basis Set:
  Basis Set: 6-31G*
  Basis Set:
  @DF-RHF Final Energy:  -422.97405300149921
    Total Energy =                       -422.9740530014989872
  Basis Set: 6-31G*
  Basis Set:
  Charge       = 0
  Multiplicity = 1
  Basis Set: 6-31G*
  Basis Set:

    Orbital Energies (a.u.)
    -----------------------

    Doubly Occupied:

       1A    -20.605925     2A    -20.541210     3A    -11.372077
       4A    -11.281464     5A    -11.235489     6A    -11.224071
       7A    -11.220389     8A    -11.219214     9A    -11.211597
      10A     -1.469886    11A     -1.360915    12A     -1.095964
      13A     -1.044764    14A     -0.983100    15A     -0.936032
      16A     -0.848184    17A     -0.797391    18A     -0.774313
      19A     -0.692826    20A     -0.683303    21A     -0.670545
      22A     -0.653370    23A     -0.609941    24A     -0.592389
      25A     -0.577283    26A     -0.564137    27A     -0.554239
      28A     -0.523602    29A     -0.523021    30A     -0.507046
      31A     -0.488414    32A     -0.479644    33A     -0.470319
      34A     -0.468693    35A     -0.452919    36A     -0.425573

  @DF-RHF Final Energy:  -422.97405343876926

   => Energetics <=

    Nuclear Repulsion Energy =            455.0224267934518139
    One-Electron Energy =               -1477.6744712485433411
    Two-Electron Energy =                 599.6779910163221530
    DFT Exchange-Correlation Energy =       0.0000000000000000
    Empirical Dispersion Energy =           0.0000000000000000
    PCM Polarization Energy =               0.0000000000000000
    EFP Energy =                            0.0000000000000000
    Total Energy =                       -422.9740534387693742
    Molecular point group: c1
  Basis Set: 6-31G*
  Basis Set:

  -Total Gradient:
     Atom            X                  Y                   Z
    ------   -----------------  -----------------  -----------------
       1        0.000172201143    -0.000293466845    -0.000776434276
       2       -0.000157719597     0.000267184225     0.001218203353
       3       -0.000306640262     0.000631248986    -0.000839487329
       4        0.000023786652     0.000050179239    -0.000012280673
       5       -0.000017997693    -0.000010415572    -0.000012032371
       6        0.000285622462    -0.000622062029     0.000422097996
       7       -0.000005002663    -0.000004198972    -0.000000098921
       8        0.000000977382    -0.000001556802    -0.000007018553
       9       -0.000015442862    -0.000014958785     0.000011942316
      10        0.000018062953    -0.000002064276     0.000008691101
      11        0.000005395132     0.000004414170    -0.000020577287
      12        0.000005371523     0.000003621743    -0.000004410772
      13       -0.000003495524    -0.000003724093    -0.000002457541
      14        0.000004717364    -0.000003000299     0.000018261354
      15       -0.000004893162    -0.000002929846    -0.000006727822
      16        0.000003915330     0.000004043599    -0.000006303412
      17        0.000001581600     0.000006257223    -0.000000522152
      18        0.000002079920     0.000001237615     0.000006482222
      19       -0.000001901705    -0.000006684370    -0.000000281259
      20       -0.000007011495    -0.000001396255     0.000011408005
      21        0.000001612040     0.000001565119    -0.000003816755
      22       -0.000004305964    -0.000001351816    -0.000003001184
      23       -0.000000912588    -0.000001941958    -0.000001636042

  **** Optimization is complete! (in 8 steps) ****
    Final optimized geometry and variables:
    Molecular point group: c1

    Geometry (in Angstrom), charge = 0, multiplicity = 1:

    O            2.876424253442    -0.682651485333     0.468400923920
    C            1.877806544179    -0.166758372046     0.078913058064
    C            0.534387478186    -0.860014834304     0.048154729824
    O            1.844882156877     1.063321494379    -0.412060959885
    C           -0.697927886366     0.044867641412     0.056288671294
    H            0.538461426238    -1.486800263925    -0.841240989723
    H            0.526694093126    -1.540242491761     0.891937096598
    C           -1.998877329576    -0.759639433546     0.073294254949
    H           -0.678953098366     0.693311775066    -0.812648565008
    H           -0.662931632353     0.696147830437     0.925936457309
    C           -3.248148606069     0.123007618604     0.079113083951
    H           -2.028717971412    -1.417283010812    -0.794129407586
    H           -2.013908838802    -1.408329291289     0.947460824484
    C           -4.546886434515    -0.682114298930     0.098688258101
    H           -3.236437228776     0.768541178733    -0.796350479986
    H           -3.218821907958     0.781774499166     0.944285946620
    H           -4.622550034713    -1.325762582301    -0.773168954067
    H           -5.413974004411    -0.029051310830     0.103543328142
    H           -4.603619473891    -1.313684890367     0.980735051426
    C            3.072081048176     1.769374200519    -0.455778242943
    H            3.482073601219     1.878761490884     0.537680393918
    H            2.840846025802     2.736302381215    -0.874691224749
    H            3.785500936858     1.250635314319    -1.079578339296

  Mulliken Charges: (a.u.)
   Center  Symbol    Alpha    Beta     Spin     Total
       1     O     4.28896  4.28896  0.00000 -0.57791
       2     C     2.60551  2.60551  0.00000  0.78898
       3     C     3.20939  3.20939  0.00000 -0.41879
       4     O     4.30360  4.30360  0.00000 -0.60720
       5     C     3.15407  3.15407  0.00000 -0.30814
       6     H     0.40016  0.40016  0.00000  0.19968
       7     H     0.39778  0.39778  0.00000  0.20444
       8     C     3.15372  3.15372  0.00000 -0.30744
       9     H     0.41012  0.41012  0.00000  0.17977
      10     H     0.41738  0.41738  0.00000  0.16524
      11     C     3.15165  3.15165  0.00000 -0.30329
      12     H     0.42303  0.42303  0.00000  0.15393
      13     H     0.42223  0.42223  0.00000  0.15555
      14     C     3.23965  3.23965  0.00000 -0.47930
      15     H     0.42191  0.42191  0.00000  0.15617
      16     H     0.42195  0.42195  0.00000  0.15609
      17     H     0.42136  0.42136  0.00000  0.15728
      18     H     0.41842  0.41842  0.00000  0.16316
      19     H     0.42117  0.42117  0.00000  0.15767
      20     C     3.09257  3.09257  0.00000 -0.18514
      21     H     0.40819  0.40819  0.00000  0.18362
      22     H     0.40868  0.40868  0.00000  0.18263
      23     H     0.40849  0.40849  0.00000  0.18301

   Total alpha = 36.00000, Total beta = 36.00000, Total charge =  0.00000
