  ==> Input File <==

--------------------------------------------------------------------------
set {
	reference rhf
	basis 6-31G*
}

set_num_threads( 4 )
memory 2 gb

molecule MOL {
0 1

H	 -1.836216	 1.387520	 -0.000064
C	 -1.301823	 0.443321	 -0.000031
O	 -0.003969	 0.658512	 0.000451
O	 -1.829879	 -0.616434	 -0.000857
C	 0.801812	 -0.192688	 0.814922
C	 2.240065	 0.247486	 0.647604
H	 0.655794	 -1.216789	 0.499942
H	 0.472242	 -0.107853	 1.841315
H	 2.550316	 0.163378	 -0.387627
H	 2.888865	 -0.377203	 1.252629
H	 2.366043	 1.277681	 0.960200

	symmetry c1
}
set optking {
	frozen_dihedral = ("
		5 3 2 4
	")
}

ee = optimize('scf')
oeprop('DIPOLE', 'QUADRUPOLE', 'MULLIKEN_CHARGES')
f=open( 'psi4out.xyz', 'w' )
f.write( "11  " )
f.write( str(ee) + "\n" )
f.write( MOL.save_string_xyz() )
f.close()
--------------------------------------------------------------------------

    Molecular point group: c1
  Charge       = 0
  Multiplicity = 1
  Basis Set: 6-31G*
  Basis Set:
  @DF-RHF Final Energy:  -266.82009773957589
    Total Energy =                       -266.8200977395758855
    Molecular point group: c1
  Basis Set: 6-31G*
  Basis Set:
  Basis Set: 6-31G*
  Basis Set:
  @DF-RHF Final Energy:  -266.81205219136024
    Total Energy =                       -266.8120521913601806
  Basis Set: 6-31G*
  Basis Set:
  Basis Set: 6-31G*
  Basis Set:
  @DF-RHF Final Energy:  -266.82054168651399
    Total Energy =                       -266.8205416865139910
  Basis Set: 6-31G*
  Basis Set:
  Basis Set: 6-31G*
  Basis Set:
  @DF-RHF Final Energy:  -266.82082348783575
    Total Energy =                       -266.8208234878356961
  Basis Set: 6-31G*
  Basis Set:
  Basis Set: 6-31G*
  Basis Set:
  @DF-RHF Final Energy:  -266.82082635977440
    Total Energy =                       -266.8208263597746281
  Basis Set: 6-31G*
  Basis Set:
  Charge       = 0
  Multiplicity = 1
  Basis Set: 6-31G*
  Basis Set:

    Orbital Energies (a.u.)
    -----------------------

    Doubly Occupied:

       1A    -20.604542     2A    -20.561716     3A    -11.379292
       4A    -11.295194     5A    -11.227553     6A     -1.470995
       7A     -1.375143     8A     -1.051737     9A     -0.898787
      10A     -0.810488    11A     -0.738185    12A     -0.686919
      13A     -0.672540    14A     -0.607628    15A     -0.564357
      16A     -0.555471    17A     -0.523466    18A     -0.511922
      19A     -0.462010    20A     -0.450538

  @DF-RHF Final Energy:  -266.82082693485029

   => Energetics <=

    Nuclear Repulsion Energy =            178.3899731705029126
    One-Electron Energy =                -717.5246349847479905
    Two-Electron Energy =                 272.3138348793946761
    DFT Exchange-Correlation Energy =       0.0000000000000000
    Empirical Dispersion Energy =           0.0000000000000000
    PCM Polarization Energy =               0.0000000000000000
    EFP Energy =                            0.0000000000000000
    Total Energy =                       -266.8208269348504018
    Molecular point group: c1
  Basis Set: 6-31G*
  Basis Set:

  -Total Gradient:
     Atom            X                  Y                   Z
    ------   -----------------  -----------------  -----------------
       1        0.000018749222    -0.000011625301     0.000004933552
       2        0.000380335632     0.003094488958     0.019190657732
       3        0.000445031234    -0.008048277405    -0.014664943370
       4       -0.000372225441    -0.000298602775    -0.010613406022
       5       -0.000480074343     0.005247053967     0.006081707354
       6        0.000006945336     0.000010934228     0.000007268884
       7       -0.000005906446     0.000000597246     0.000009165546
       8        0.000000928159     0.000007796385    -0.000024753402
       9       -0.000006189191    -0.000002315321     0.000007049804
      10        0.000008737093    -0.000000979691     0.000002899116
      11        0.000003668749     0.000000929709    -0.000000579194

  **** Optimization is complete! (in 6 steps) ****
    Final optimized geometry and variables:
    Molecular point group: c1

    Geometry (in Angstrom), charge = 0, multiplicity = 1:

    H           -1.807204022942     1.300128121403    -0.381468298552
    C           -1.289415890307     0.351605846434    -0.276796830719
    O            0.022653288293     0.528045518151    -0.321484186704
    O           -1.844377181894    -0.691031207534    -0.234332152884
    C            0.836994896372    -0.322410758577     0.486888255258
    C            2.268315238675     0.147076669463     0.344079916655
    H            0.718873427915    -1.346382338146     0.161994403481
    H            0.497459092848    -0.249494486159     1.512884353251
    H            2.590124153937     0.078834314309    -0.688549564891
    H            2.921990416781    -0.471663414907     0.950141235624
    H            2.369295435548     1.176441353629     0.667783305315

  Mulliken Charges: (a.u.)
   Center  Symbol    Alpha    Beta     Spin     Total
       1     H     0.41475  0.41475  0.00000  0.17050
       2     C     2.72729  2.72729  0.00000  0.54543
       3     O     4.29733  4.29733  0.00000 -0.59466
       4     O     4.25184  4.25184  0.00000 -0.50368
       5     C     3.00570  3.00570  0.00000 -0.01141
       6     C     3.24881  3.24881  0.00000 -0.49762
       7     H     0.40420  0.40420  0.00000  0.19160
       8     H     0.41546  0.41546  0.00000  0.16908
       9     H     0.40841  0.40841  0.00000  0.18317
      10     H     0.41536  0.41536  0.00000  0.16929
      11     H     0.41085  0.41085  0.00000  0.17830

   Total alpha = 20.00000, Total beta = 20.00000, Total charge =  0.00000
