  ==> Input File <==

--------------------------------------------------------------------------
set {
	reference rhf
	basis 6-31G*
}

set_num_threads( 1 )
memory 2 gb

molecule MOL {
0 1

O	 0.624701	 1.348748	 -0.056369
C	 0.486307	 0.169203	 0.000779
C	 1.608116	 -0.841643	 0.000302
O	 -0.696876	 -0.424626	 0.071837
C	 2.990107	 -0.200498	 -0.000684
H	 1.468623	 -1.481519	 -0.865924
H	 1.469683	 -1.481289	 0.866878
H	 3.129736	 0.423364	 -0.875135
H	 3.757882	 -0.966877	 -0.001197
H	 3.130964	 0.423383	 0.873533
C	 -1.851589	 0.408422	 0.080144
C	 -3.062997	 -0.495905	 0.163783
H	 -1.860978	 1.006905	 -0.820586
H	 -1.795336	 1.080669	 0.925431
H	 -3.101914	 -1.166595	 -0.686993
H	 -3.969452	 0.100676	 0.172603
H	 -3.036043	 -1.092439	 1.068590

	symmetry c1
}
set optking {
	frozen_dihedral = ("
		2 4 11 13,
		11 4 2 3
	")
}

ee = energy('scf')
oeprop('DIPOLE', 'QUADRUPOLE', 'MULLIKEN_CHARGES')
f=open( 'psi4out.xyz', 'w' )
f.write( "17  " )
f.write( str(ee) + "\n" )
f.write( MOL.save_string_xyz() )
f.close()
--------------------------------------------------------------------------

    Molecular point group: c1

    Geometry (in Angstrom), charge = 0, multiplicity = 1:

       Center              X                  Y                   Z               Mass
    ------------   -----------------  -----------------  -----------------  -----------------
           O          0.623998071838     1.347985758635    -0.094007015401    15.994914619560
           C          0.485604071838     0.168440758635    -0.036859015401    12.000000000000
           C          1.607413071838    -0.842405241365    -0.037336015401    12.000000000000
           O         -0.697578928162    -0.425388241365     0.034198984599    15.994914619560
           C          2.989404071838    -0.201260241365    -0.038322015401    12.000000000000
           H          1.467920071838    -1.482281241365    -0.903562015401     1.007825032070
           H          1.468980071838    -1.482051241365     0.829239984599     1.007825032070
           H          3.129033071838     0.422601758635    -0.912773015401     1.007825032070
           H          3.757179071838    -0.967639241365    -0.038835015401     1.007825032070
           H          3.130261071838     0.422620758635     0.835894984599     1.007825032070
           C         -1.852291928162     0.407659758635     0.042505984599    12.000000000000
           C         -3.063699928162    -0.496667241365     0.126144984599    12.000000000000
           H         -1.861680928162     1.006142758635    -0.858224015401     1.007825032070
           H         -1.796038928162     1.079906758635     0.887792984599     1.007825032070
           H         -3.102616928162    -1.167357241365    -0.724631015401     1.007825032070
           H         -3.970154928162     0.099913758635     0.134964984599     1.007825032070
           H         -3.036745928162    -1.093201241365     1.030951984599     1.007825032070

  Charge       = 0
  Multiplicity = 1
  Basis Set: 6-31G*
  Basis Set:

    Orbital Energies (a.u.)
    -----------------------

    Doubly Occupied:

       1A    -20.600876     2A    -20.544293     3A    -11.371284
       4A    -11.284791     5A    -11.237527     6A    -11.222328
       7A    -11.215801     8A     -1.467532     9A     -1.361890
      10A     -1.069994    11A     -1.031809    12A     -0.910728
      13A     -0.847334    14A     -0.772769    15A     -0.695461
      16A     -0.689716    17A     -0.664330    18A     -0.629836
      19A     -0.582157    20A     -0.572223    21A     -0.558430
      22A     -0.523466    23A     -0.519121    24A     -0.514542
      25A     -0.504638    26A     -0.492599    27A     -0.452597
      28A     -0.436110

  @DF-RHF Final Energy:  -344.91197116877709

   => Energetics <=

    Nuclear Repulsion Energy =            314.6846930078078231
    One-Electron Energy =               -1093.6450319932328057
    Two-Electron Energy =                 434.0483678166471577
    DFT Exchange-Correlation Energy =       0.0000000000000000
    Empirical Dispersion Energy =           0.0000000000000000
    PCM Polarization Energy =               0.0000000000000000
    EFP Energy =                            0.0000000000000000
    Total Energy =                       -344.9119711687778249

  Mulliken Charges: (a.u.)
   Center  Symbol    Alpha    Beta     Spin     Total
       1     O     4.28638  4.28638  0.00000 -0.57276
       2     C     2.60567  2.60567  0.00000  0.78866
       3     C     3.20501  3.20501  0.00000 -0.41002
       4     O     4.31322  4.31322  0.00000 -0.62644
       5     C     3.23881  3.23881  0.00000 -0.47762
       6     H     0.40056  0.40056  0.00000  0.19888
       7     H     0.40099  0.40099  0.00000  0.19803
       8     H     0.40934  0.40934  0.00000  0.18133
       9     H     0.41821  0.41821  0.00000  0.16359
      10     H     0.41060  0.41060  0.00000  0.17880
      11     C     3.00212  3.00212  0.00000 -0.00423
      12     C     3.24843  3.24843  0.00000 -0.49685
      13     H     0.41030  0.41030  0.00000  0.17939
      14     H     0.41032  0.41032  0.00000  0.17937
      15     H     0.41187  0.41187  0.00000  0.17627
      16     H     0.41630  0.41630  0.00000  0.16740
      17     H     0.41189  0.41189  0.00000  0.17622

   Total alpha = 28.00000, Total beta = 28.00000, Total charge = -0.00000
