                              Psi4 1.0.54 Driver

  ==> Input File <==

--------------------------------------------------------------------------
set {
	reference rhf
	basis cc-pvtz
}

set_num_threads( 4 )
memory 2 gb

molecule MOL {
0 1

H	 -0.521482	 -1.601167	 -0.300300
N	 -0.625934	 -0.663929	 -0.000707
C	 -1.934889	 -0.218281	 0.415382
C	 0.468494	 0.129045	 -0.002160
H	 -2.651102	 -0.310406	 -0.392418
H	 -1.865328	 0.816969	 0.702632
H	 -2.290298	 -0.793557	 1.262011
C	 1.785715	 -0.615093	 0.000603
O	 0.413285	 1.323206	 0.000532
H	 1.866994	 -1.243310	 -0.878792
H	 2.591506	 0.100263	 0.006422
H	 1.860358	 -1.250360	 0.875522

	symmetry c1
}
set optking {
	frozen_dihedral = ("
		3 2 4 9
	")
}

ee,wfn = optimize('scf', return_wfn=True)
oeprop( wfn, 'DIPOLE', 'QUADRUPOLE', 'MULLIKEN_CHARGES')
f=open( 'psi4out.xyz', 'w' )
f.write( "12  " )
f.write( str(ee) + "\n" )
f.write( MOL.save_string_xyz() )
f.close()
--------------------------------------------------------------------------

    Molecular point group: c1
  Charge       = 0
  Multiplicity = 1
  Basis Set: CC-PVTZ
  Basis Set:
  @DF-RHF Final Energy:  -247.09661905551638
    Total Energy =                       -247.0966190555163848
    Molecular point group: c1
  Basis Set: CC-PVTZ
  Basis Set:
  Basis Set: CC-PVTZ
  Basis Set:
  @DF-RHF Final Energy:  -247.09762406002335
    Total Energy =                       -247.0976240600232927
  Basis Set: CC-PVTZ
  Basis Set:
  Basis Set: CC-PVTZ
  Basis Set:
  @DF-RHF Final Energy:  -247.09915393825136
    Total Energy =                       -247.0991539382515043
  Basis Set: CC-PVTZ
  Basis Set:
  Basis Set: CC-PVTZ
  Basis Set:
  @DF-RHF Final Energy:  -247.09971208884397
    Total Energy =                       -247.0997120888439440
  Basis Set: CC-PVTZ
  Basis Set:
  @DF-RHF Final Energy:  -247.09979351245414
    Total Energy =                       -247.0997935124541414
  @DF-RHF Final Energy:  -247.09993429280158
    Total Energy =                       -247.0999342928015494
  @DF-RHF Final Energy:  -247.09983903365350
    Total Energy =                       -247.0998390336534385
  @DF-RHF Final Energy:  -247.10025984642107
    Total Energy =                       -247.1002598464212383
  Basis Set: CC-PVTZ
  Basis Set:
  @DF-RHF Final Energy:  -247.10038045264909
    Total Energy =                       -247.1003804526491194
  Basis Set: CC-PVTZ
  Basis Set:
  Basis Set: CC-PVTZ
  Basis Set:
  @DF-RHF Final Energy:  -247.10041474374967
    Total Energy =                       -247.1004147437496385
  Basis Set: CC-PVTZ
  Basis Set:
  Basis Set: CC-PVTZ
  Basis Set:
  @DF-RHF Final Energy:  -247.10041894320105
    Total Energy =                       -247.1004189432012481
  Basis Set: CC-PVTZ
  Basis Set:
  Charge       = 0
  Multiplicity = 1
  Basis Set: CC-PVTZ
  Basis Set:

    Orbital Energies (a.u.)
    -----------------------

    Doubly Occupied:

       1A    -20.510101     2A    -15.575287     3A    -11.337047
       4A    -11.253471     5A    -11.229444     6A     -1.391542
       7A     -1.231160     8A     -1.016661     9A     -0.932483
      10A     -0.784836    11A     -0.691199    12A     -0.652314
      13A     -0.635857    14A     -0.588077    15A     -0.583568
      16A     -0.555046    17A     -0.547228    18A     -0.508405
      19A     -0.420706    20A     -0.393725

  @DF-RHF Final Energy:  -247.10041942365308

   => Energetics <=

    Nuclear Repulsion Energy =            181.7959962491904662
    One-Electron Energy =                -696.1165185550009937
    Two-Electron Energy =                 267.2201028821575619
    DFT Exchange-Correlation Energy =       0.0000000000000000
    Empirical Dispersion Energy =           0.0000000000000000
    PCM Polarization Energy =               0.0000000000000000
    EFP Energy =                            0.0000000000000000
    Total Energy =                       -247.1004194236529656
    Molecular point group: c1
  Basis Set: CC-PVTZ
  Basis Set:

  -Total Gradient:
     Atom            X                  Y                   Z
    ------   -----------------  -----------------  -----------------
       1        0.000019397263    -0.000020426577    -0.000002485380
       2       -0.000471235446     0.004647805080    -0.005336958662
       3        0.000462304738    -0.002399359932     0.002382043978
       4       -0.000340895939    -0.004364206821     0.006634703019
       5        0.000001884990     0.000032401879    -0.000000163781
       6       -0.000037011666     0.000001733177    -0.000001015139
       7        0.000029920484    -0.000001978321    -0.000060655335
       8       -0.000032358867    -0.000056875519     0.000055332079
       9        0.000388671763     0.002109882850    -0.003603017308
      10        0.000024786236    -0.000004480097    -0.000026765393
      11       -0.000032004892     0.000020044162    -0.000023529795
      12       -0.000013458665     0.000035460119    -0.000017488279

  **** Optimization is complete! (in 12 steps) ****
    Final optimized geometry and variables:
    Molecular point group: c1

    Geometry (in Angstrom), charge = 0, multiplicity = 1:

    H           -0.495605157288    -1.441070176634    -0.774057167407
    N           -0.636005529975    -0.515123260283    -0.449570452299
    C           -1.950354011994    -0.212991692805     0.077259145477
    C            0.463432078717     0.129281236931     0.020273555352
    H           -2.693991549636    -0.704574073896    -0.534207970988
    H           -2.118358344093     0.851295006040     0.041046543529
    H           -2.064413451204    -0.541587870094     1.104589100213
    C            1.784055063616    -0.545318598150    -0.272251126575
    O            0.399437716247     1.172944143542     0.596551337993
    H            1.766390005694    -1.090087079626    -1.207525205376
    H            2.561237794460     0.201945478128    -0.297806494026
    H            2.004344607295    -1.244351833450     0.527090251235

  Mulliken Charges: (a.u.)
   Center  Symbol    Alpha    Beta     Spin     Total
       1     H     0.41833  0.41833  0.00000  0.16334
       2     N     3.61318  3.61318  0.00000 -0.22635
       3     C     3.08133  3.08133  0.00000 -0.16266
       4     C     2.83915  2.83915  0.00000  0.32170
       5     H     0.45385  0.45385  0.00000  0.09231
       6     H     0.43718  0.43718  0.00000  0.12564
       7     H     0.45910  0.45910  0.00000  0.08180
       8     C     3.15079  3.15079  0.00000 -0.30158
       9     O     4.21223  4.21223  0.00000 -0.42445
      10     H     0.45397  0.45397  0.00000  0.09207
      11     H     0.43459  0.43459  0.00000  0.13081
      12     H     0.44631  0.44631  0.00000  0.10738

   Total alpha = 20.00000, Total beta = 20.00000, Total charge =  0.00000

*** Psi4 exiting successfully. Buy a developer a beer!
