  ==> Input File <==

--------------------------------------------------------------------------
set {
	reference rhf
	basis 6-31G*
}

set_num_threads( 4 )
memory 2 gb

molecule MOL {
0 1

H	 -2.613664	 2.012577	 1.580153
C	 -2.061974	 1.223530	 2.087287
O	 -0.772215	 1.098163	 1.581183
H	 -1.977938	 1.473522	 3.135897
H	 -2.622193	 0.294355	 1.991286
C	 -0.719715	 0.768384	 0.229244
C	 0.719720	 0.768376	 -0.229267
H	 -1.148406	 -0.220942	 0.064464
H	 -1.285517	 1.482512	 -0.365646
O	 1.392611	 -0.295398	 0.366430
H	 0.750534	 0.687200	 -1.313918
H	 1.185043	 1.714359	 0.050526
C	 2.706965	 -0.449871	 -0.062409
H	 2.756559	 -0.644779	 -1.131878
H	 3.305899	 0.433456	 0.155466
H	 3.125548	 -1.294566	 0.467107

	symmetry c1
}
set optking {
	frozen_dihedral = ("
		3 6 7 11
	")
}

ee = optimize('scf')
oeprop('DIPOLE', 'QUADRUPOLE', 'MULLIKEN_CHARGES')
f=open( 'psi4out.xyz', 'w' )
f.write( "16  " )
f.write( str(ee) + "\n" )
f.write( MOL.save_string_xyz() )
f.close()
--------------------------------------------------------------------------

    Molecular point group: c1
  Charge       = 0
  Multiplicity = 1
  Basis Set: 6-31G*
  Basis Set:
  @DF-RHF Final Energy:  -306.97725540313593
    Total Energy =                       -306.9772554031359277
    Molecular point group: c1
  Basis Set: 6-31G*
  Basis Set:
  Basis Set: 6-31G*
  Basis Set:
  @DF-RHF Final Energy:  -306.97767308451733
    Total Energy =                       -306.9776730845169368
  Basis Set: 6-31G*
  Basis Set:
  Basis Set: 6-31G*
  Basis Set:
  @DF-RHF Final Energy:  -306.97769619060745
    Total Energy =                       -306.9776961906071620
  Basis Set: 6-31G*
  Basis Set:
  Charge       = 0
  Multiplicity = 1
  Basis Set: 6-31G*
  Basis Set:

    Orbital Energies (a.u.)
    -----------------------

    Doubly Occupied:

       1A    -20.553438     2A    -20.553330     3A    -11.269189
       4A    -11.268529     5A    -11.263482     6A    -11.263445
       7A     -1.388356     8A     -1.370432     9A     -1.030842
      10A     -0.935866    11A     -0.892268    12A     -0.823618
      13A     -0.684455    14A     -0.680231    15A     -0.656968
      16A     -0.636166    17A     -0.629131    18A     -0.596864
      19A     -0.551965    20A     -0.534492    21A     -0.508929
      22A     -0.477215    23A     -0.462666    24A     -0.419292
      25A     -0.410697

  @DF-RHF Final Energy:  -306.97769891775602

   => Energetics <=

    Nuclear Repulsion Energy =            258.9833570861537737
    One-Electron Energy =                -932.1983824908481893
    Two-Electron Energy =                 366.2373264869383434
    DFT Exchange-Correlation Energy =       0.0000000000000000
    Empirical Dispersion Energy =           0.0000000000000000
    PCM Polarization Energy =               0.0000000000000000
    EFP Energy =                            0.0000000000000000
    Total Energy =                       -306.9776989177560722
    Molecular point group: c1
  Basis Set: 6-31G*
  Basis Set:

  -Total Gradient:
     Atom            X                  Y                   Z
    ------   -----------------  -----------------  -----------------
       1       -0.000009277134    -0.000005422981     0.000012940564
       2       -0.000001501398     0.000027728193    -0.000005886137
       3        0.000027119838    -0.000605004652     0.000123337663
       4       -0.000007523421     0.000001841673     0.000001571716
       5        0.000003851128    -0.000008114120    -0.000003735341
       6       -0.000023527750     0.000556296546    -0.000192290160
       7        0.000045258239     0.000742099058     0.000019499561
       8       -0.000033902748    -0.000002694314     0.000029962447
       9        0.000009537872    -0.000005701918    -0.000006977139
      10       -0.000037633792     0.000061681323    -0.000027219913
      11       -0.000016494136    -0.000756453464     0.000081651145
      12        0.000031391283     0.000012649497    -0.000010695628
      13       -0.000001936637    -0.000027335791    -0.000034361853
      14        0.000020792594    -0.000002519308     0.000008236383
      15       -0.000011023686     0.000010305277     0.000007048123
      16        0.000004869749     0.000000644982    -0.000003081432

  **** Optimization is complete! (in 4 steps) ****
    Final optimized geometry and variables:
    Molecular point group: c1

    Geometry (in Angstrom), charge = 0, multiplicity = 1:

    H           -2.881209079055     1.373604586851     0.963420597685
    C           -2.218668716508     0.667940815922     1.462785886046
    O           -0.951369817300     0.662058988230     0.888907675553
    H           -2.107365566248     0.965090591617     2.496426454799
    H           -2.676284518348    -0.318745231669     1.427240248943
    C           -0.935978193164     0.300257523273    -0.455359421353
    C            0.493566241912     0.227427445257    -0.938058854037
    H           -1.412479372806    -0.667517400901    -0.599123531455
    H           -1.478614687541     1.033847930466    -1.052976689045
    O            1.123398577387    -0.864810010770    -0.346926101158
    H            0.497851354617     0.120508057209    -2.023566494558
    H            1.007729027968     1.152990537450    -0.687110715604
    C            2.475986506686    -0.976393415704    -0.652525037408
    H            2.636483242859    -1.091102957950    -1.723703351777
    H            3.034226479014    -0.106669706786    -0.311677948556
    H            2.853326325017    -1.854562802380    -0.147013886459

  Mulliken Charges: (a.u.)
   Center  Symbol    Alpha    Beta     Spin     Total
       1     H     0.43191  0.43191  0.00000  0.13618
       2     C     3.07949  3.07949  0.00000 -0.15899
       3     O     4.30038  4.30038  0.00000 -0.60076
       4     H     0.41122  0.41122  0.00000  0.17755
       5     H     0.42816  0.42816  0.00000  0.14367
       6     C     2.99320  2.99320  0.00000  0.01359
       7     C     2.99323  2.99323  0.00000  0.01355
       8     H     0.42330  0.42330  0.00000  0.15340
       9     H     0.43227  0.43227  0.00000  0.13546
      10     O     4.30047  4.30047  0.00000 -0.60094
      11     H     0.43230  0.43230  0.00000  0.13540
      12     H     0.42320  0.42320  0.00000  0.15360
      13     C     3.07946  3.07946  0.00000 -0.15891
      14     H     0.43197  0.43197  0.00000  0.13606
      15     H     0.42819  0.42819  0.00000  0.14361
      16     H     0.41124  0.41124  0.00000  0.17752

   Total alpha = 25.00000, Total beta = 25.00000, Total charge = -0.00000
