  ==> Input File <==

--------------------------------------------------------------------------
set {
	reference rhf
	basis 6-31G*
}

set_num_threads( 1 )
memory 2 gb

molecule MOL {
0 1

O	 1.177956	 1.259443	 0.339951
C	 1.122059	 0.121804	 -0.000188
C	 -0.118227	 -0.590954	 -0.481394
O	 2.172624	 -0.688929	 0.000216
C	 -1.358597	 0.296985	 -0.501136
H	 0.097969	 -0.987278	 -1.469797
H	 -0.264058	 -1.456877	 0.158657
C	 -2.600140	 -0.449372	 -0.991938
H	 -1.172546	 1.158522	 -1.134889
H	 -1.534820	 0.688664	 0.495877
C	 -3.847832	 0.432557	 -1.013663
H	 -2.417908	 -0.840409	 -1.990916
H	 -2.780464	 -1.313045	 -0.355052
H	 -3.711465	 1.287587	 -1.669394
H	 -4.713201	 -0.120276	 -1.365498
H	 -4.076960	 0.811059	 -0.021758
C	 3.452279	 -0.082609	 0.000533
H	 3.583069	 0.529321	 -0.880332
H	 4.163299	 -0.894027	 0.001117
H	 3.582335	 0.529955	 0.881077

	symmetry c1
}
set optking {
	frozen_dihedral = ("
		9 5 8 12,
		1 2 3 6,
		9 5 3 6
	")
}

ee = energy('scf')
oeprop('DIPOLE', 'QUADRUPOLE', 'MULLIKEN_CHARGES')
f=open( 'psi4out.xyz', 'w' )
f.write( "20  " )
f.write( str(ee) + "\n" )
f.write( MOL.save_string_xyz() )
f.close()
--------------------------------------------------------------------------

    Molecular point group: c1

    Geometry (in Angstrom), charge = 0, multiplicity = 1:

       Center              X                  Y                   Z               Mass
    ------------   -----------------  -----------------  -----------------  -----------------
           O          1.142898076086     1.214176514546     0.665758234933    15.994914619560
           C          1.087001076086     0.076537514546     0.325619234933    12.000000000000
           C         -0.153284923914    -0.636220485454    -0.155586765067    12.000000000000
           O          2.137566076086    -0.734195485454     0.326023234933    15.994914619560
           C         -1.393654923914     0.251718514546    -0.175328765067    12.000000000000
           H          0.062911076086    -1.032544485454    -1.143989765067     1.007825032070
           H         -0.299115923914    -1.502143485454     0.484464234933     1.007825032070
           C         -2.635197923914    -0.494638485454    -0.666130765067    12.000000000000
           H         -1.207603923914     1.113255514546    -0.809081765067     1.007825032070
           H         -1.569877923914     0.643397514546     0.821684234933     1.007825032070
           C         -3.882889923914     0.387290514546    -0.687855765067    12.000000000000
           H         -2.452965923914    -0.885675485454    -1.665108765067     1.007825032070
           H         -2.815521923914    -1.358311485454    -0.029244765067     1.007825032070
           H         -3.746522923914     1.242320514546    -1.343586765067     1.007825032070
           H         -4.748258923914    -0.165542485454    -1.039690765067     1.007825032070
           H         -4.112017923914     0.765792514546     0.304049234933     1.007825032070
           C          3.417221076086    -0.127875485454     0.326340234933    12.000000000000
           H          3.548011076086     0.484054514546    -0.554524765067     1.007825032070
           H          4.128241076086    -0.939293485454     0.326924234933     1.007825032070
           H          3.547277076086     0.484688514546     1.206884234933     1.007825032070

  Charge       = 0
  Multiplicity = 1
  Basis Set: 6-31G*
  Basis Set:

    Orbital Energies (a.u.)
    -----------------------

    Doubly Occupied:

       1A    -20.601581     2A    -20.546313     3A    -11.372620
       4A    -11.281994     5A    -11.235798     6A    -11.220371
       7A    -11.219341     8A    -11.210710     9A     -1.468795
      10A     -1.363094    11A     -1.088735    12A     -1.024085
      13A     -0.969547    14A     -0.886528    15A     -0.804184
      16A     -0.767676    17A     -0.696839    18A     -0.683100
      19A     -0.672065    20A     -0.645908    21A     -0.598845
      22A     -0.592108    23A     -0.579819    24A     -0.541784
      25A     -0.536452    26A     -0.521228    27A     -0.500873
      28A     -0.478650    29A     -0.474293    30A     -0.470439
      31A     -0.454974    32A     -0.435936

  @DF-RHF Final Energy:  -383.93908804299537

   => Energetics <=

    Nuclear Repulsion Energy =            381.1076523924586468
    One-Electron Energy =               -1278.2042433909023202
    Two-Electron Energy =                 513.1575029554467164
    DFT Exchange-Correlation Energy =       0.0000000000000000
    Empirical Dispersion Energy =           0.0000000000000000
    PCM Polarization Energy =               0.0000000000000000
    EFP Energy =                            0.0000000000000000
    Total Energy =                       -383.9390880429969002

  Mulliken Charges: (a.u.)
   Center  Symbol    Alpha    Beta     Spin     Total
       1     O     4.28368  4.28368  0.00000 -0.56737
       2     C     2.60492  2.60492  0.00000  0.79016
       3     C     3.20879  3.20879  0.00000 -0.41758
       4     O     4.30783  4.30783  0.00000 -0.61566
       5     C     3.15129  3.15129  0.00000 -0.30259
       6     H     0.40181  0.40181  0.00000  0.19638
       7     H     0.39995  0.39995  0.00000  0.20011
       8     C     3.15419  3.15419  0.00000 -0.30838
       9     H     0.41236  0.41236  0.00000  0.17528
      10     H     0.41161  0.41161  0.00000  0.17678
      11     C     3.23931  3.23931  0.00000 -0.47861
      12     H     0.42320  0.42320  0.00000  0.15361
      13     H     0.42278  0.42278  0.00000  0.15445
      14     H     0.42008  0.42008  0.00000  0.15984
      15     H     0.41874  0.41874  0.00000  0.16251
      16     H     0.41984  0.41984  0.00000  0.16031
      17     C     3.09360  3.09360  0.00000 -0.18719
      18     H     0.41342  0.41342  0.00000  0.17317
      19     H     0.40790  0.40790  0.00000  0.18420
      20     H     0.40471  0.40471  0.00000  0.19059

   Total alpha = 32.00000, Total beta = 32.00000, Total charge = -0.00000
