                              Psi4 1.0.54 Driver

  ==> Input File <==

--------------------------------------------------------------------------
set {
	reference rhf
	basis cc-pvtz
}

set_num_threads( 4 )
memory 2 gb

molecule MOL {
0 1

H	 1.754414	 -1.567071	 -0.576086
O	 2.012307	 -0.863440	 0.000222
C	 1.050374	 0.054877	 0.000135
C	 -0.318151	 -0.570512	 0.000144
O	 1.286319	 1.213453	 -0.000040
C	 -1.454884	 0.441630	 -0.000560
H	 -0.371613	 -1.223646	 -0.864985
H	 -0.371920	 -1.222758	 0.865929
C	 -2.822577	 -0.232186	 0.000063
H	 -1.359760	 1.084704	 -0.867077
H	 -1.359641	 1.085996	 0.864983
H	 -2.954352	 -0.858985	 -0.875745
H	 -3.615886	 0.505352	 0.000019
H	 -2.953878	 -0.858359	 0.876394

	symmetry c1
}
set optking {
	frozen_dihedral = ("
		1 2 3 5
	")
}

ee,wfn = optimize('scf', return_wfn=True)
oeprop( wfn, 'DIPOLE', 'QUADRUPOLE', 'MULLIKEN_CHARGES')
f=open( 'psi4out.xyz', 'w' )
f.write( "14  " )
f.write( str(ee) + "\n" )
f.write( MOL.save_string_xyz() )
f.close()
--------------------------------------------------------------------------

    Molecular point group: c1
  Charge       = 0
  Multiplicity = 1
  Basis Set: CC-PVTZ
  Basis Set:
  @DF-RHF Final Energy:  -305.98555465536981
    Total Energy =                       -305.9855546553700378
    Molecular point group: c1
  Basis Set: CC-PVTZ
  Basis Set:
  Basis Set: CC-PVTZ
  Basis Set:
  @DF-RHF Final Energy:  -305.98661238601005
    Total Energy =                       -305.9866123860101652
  Basis Set: CC-PVTZ
  Basis Set:
  Basis Set: CC-PVTZ
  Basis Set:
  @DF-RHF Final Energy:  -305.98673316687274
    Total Energy =                       -305.9867331668726820
  Basis Set: CC-PVTZ
  Basis Set:
  Basis Set: CC-PVTZ
  Basis Set:
  @DF-RHF Final Energy:  -305.98682048477758
    Total Energy =                       -305.9868204847776951
  Basis Set: CC-PVTZ
  Basis Set:
  Basis Set: CC-PVTZ
  Basis Set:
  @DF-RHF Final Energy:  -305.98696946591485
    Total Energy =                       -305.9869694659145125
  Basis Set: CC-PVTZ
  Basis Set:
  Charge       = 0
  Multiplicity = 1
  Basis Set: CC-PVTZ
  Basis Set:

    Orbital Energies (a.u.)
    -----------------------

    Doubly Occupied:

       1A    -20.597533     2A    -20.542548     3A    -11.373701
       4A    -11.248577     5A    -11.228496     6A    -11.219843
       7A     -1.468110     8A     -1.373674     9A     -1.087847
      10A     -0.978673    11A     -0.853761    12A     -0.815017
      13A     -0.720444    14A     -0.674991    15A     -0.663719
      16A     -0.629186    17A     -0.583709    18A     -0.578275
      19A     -0.551298    20A     -0.510190    21A     -0.496639
      22A     -0.488388    23A     -0.484264    24A     -0.445583

  @DF-RHF Final Energy:  -305.98697019738290

   => Energetics <=

    Nuclear Repulsion Energy =            240.1286706755681450
    One-Electron Energy =                -893.0023508928666161
    Two-Electron Energy =                 346.8867100199154265
    DFT Exchange-Correlation Energy =       0.0000000000000000
    Empirical Dispersion Energy =           0.0000000000000000
    PCM Polarization Energy =               0.0000000000000000
    EFP Energy =                            0.0000000000000000
    Total Energy =                       -305.9869701973830161
    Molecular point group: c1
  Basis Set: CC-PVTZ
  Basis Set:

  -Total Gradient:
     Atom            X                  Y                   Z
    ------   -----------------  -----------------  -----------------
       1        0.002780054630     0.003211132121    -0.005440910339
       2       -0.003492312405    -0.004083603986     0.004236413181
       3        0.000582991199     0.001191029575     0.007170699284
       4        0.000000389585    -0.000013905213     0.000060973026
       5        0.000175755514    -0.000290639515    -0.005973399966
       6       -0.000012624898     0.000002435661    -0.000028830938
       7       -0.000002170774     0.000002141628    -0.000024256393
       8       -0.000012984490    -0.000011728481    -0.000022808309
       9       -0.000007319903    -0.000000784236     0.000004234619
      10        0.000002955558    -0.000002590759     0.000007054008
      11        0.000003126625     0.000004412525     0.000008886153
      12       -0.000002205791    -0.000006007408    -0.000007204427
      13       -0.000011324644     0.000004237381     0.000001538250
      14       -0.000004330207    -0.000006129293     0.000007611850

  **** Optimization is complete! (in 6 steps) ****
    Final optimized geometry and variables:
    Molecular point group: c1

    Geometry (in Angstrom), charge = 0, multiplicity = 1:

    H            1.987993533093    -1.480160763391    -0.443516361580
    O            2.114427667822    -0.708287162699     0.080905931811
    C            1.054678843643     0.117628817572     0.022378014214
    C           -0.286716239012    -0.577434859260     0.040699016921
    O            1.209050901631     1.280702675111    -0.035319368413
    C           -1.474543045484     0.369907511704    -0.052378262020
    H           -0.304590366319    -1.291944680861    -0.780046564359
    H           -0.329110052485    -1.168913080890     0.950319800503
    C           -2.806561367188    -0.371505555455    -0.027081770486
    H           -1.392632454400     0.955120279930    -0.960103341246
    H           -1.427115482380     1.076125125000     0.767048101985
    H           -2.890503625261    -1.063475108107    -0.858850608674
    H           -3.634969356639     0.323118010842    -0.092365919356
    H           -2.924711231932    -0.940659956918     0.889092640906

  Mulliken Charges: (a.u.)
   Center  Symbol    Alpha    Beta     Spin     Total
       1     H     0.38815  0.38815  0.00000  0.22369
       2     O     4.15555  4.15555  0.00000 -0.31110
       3     C     2.80487  2.80487  0.00000  0.39026
       4     C     3.11772  3.11772  0.00000 -0.23544
       5     O     4.16813  4.16813  0.00000 -0.33627
       6     C     3.08281  3.08281  0.00000 -0.16561
       7     H     0.45284  0.45284  0.00000  0.09431
       8     H     0.43643  0.43643  0.00000  0.12714
       9     C     3.15014  3.15014  0.00000 -0.30029
      10     H     0.44499  0.44499  0.00000  0.11003
      11     H     0.44274  0.44274  0.00000  0.11451
      12     H     0.45638  0.45638  0.00000  0.08723
      13     H     0.44405  0.44405  0.00000  0.11190
      14     H     0.45518  0.45518  0.00000  0.08964

   Total alpha = 24.00000, Total beta = 24.00000, Total charge =  0.00000

*** Psi4 exiting successfully. Buy a developer a beer!
