  ==> Input File <==

--------------------------------------------------------------------------
set {
	reference rhf
	basis 6-31G*
}

set_num_threads( 4 )
memory 2 gb

molecule MOL {
0 1

H	 1.093365	 -0.625764	 -0.058191
C	 0.850167	 0.441173	 0.000644
C	 -0.623425	 0.760064	 0.000248
O	 1.718774	 1.249592	 0.061689
C	 -1.518387	 -0.473136	 -0.000101
H	 -0.818289	 1.390622	 -0.866171
H	 -0.818694	 1.390413	 0.866696
H	 -1.333417	 -1.085530	 -0.874338
H	 -2.563510	 -0.183466	 -0.000351
H	 -1.333864	 -1.085676	 0.874123

	symmetry c1
}
set optking {
	frozen_dihedral = ("
		4 2 3 6
	")
}

ee = optimize('scf')
oeprop('DIPOLE', 'QUADRUPOLE', 'MULLIKEN_CHARGES')
f=open( 'psi4out.xyz', 'w' )
f.write( "10  " )
f.write( str(ee) + "\n" )
f.write( MOL.save_string_xyz() )
f.close()
--------------------------------------------------------------------------

    Molecular point group: c1
  Charge       = 0
  Multiplicity = 1
  Basis Set: 6-31G*
  Basis Set:
  @DF-RHF Final Energy:  -191.94900957315423
    Total Energy =                       -191.9490095731541714
    Molecular point group: c1
  Basis Set: 6-31G*
  Basis Set:
  Basis Set: 6-31G*
  Basis Set:
  @DF-RHF Final Energy:  -191.94908610774280
    Total Energy =                       -191.9490861077429145
  Basis Set: 6-31G*
  Basis Set:
  Basis Set: 6-31G*
  Basis Set:
  @DF-RHF Final Energy:  -191.94912381347228
    Total Energy =                       -191.9491238134723119
  Basis Set: 6-31G*
  Basis Set:
  Basis Set: 6-31G*
  Basis Set:
  @DF-RHF Final Energy:  -191.94920206311355
    Total Energy =                       -191.9492020631135176
  Basis Set: 6-31G*
  Basis Set:
  Charge       = 0
  Multiplicity = 1
  Basis Set: 6-31G*
  Basis Set:

    Orbital Energies (a.u.)
    -----------------------

    Doubly Occupied:

       1A    -20.562977     2A    -11.329135     3A    -11.239323
       4A    -11.231861     5A     -1.404087     6A     -1.066329
       7A     -0.901550     8A     -0.798462     9A     -0.657645
      10A     -0.639797    11A     -0.638379    12A     -0.552636
      13A     -0.543859    14A     -0.525976    15A     -0.489071
      16A     -0.412689

  @DF-RHF Final Energy:  -191.94920461143545

   => Energetics <=

    Nuclear Repulsion Energy =            116.8320397227276999
    One-Electron Energy =                -491.5749364875337051
    Two-Electron Energy =                 182.7936921533704435
    DFT Exchange-Correlation Energy =       0.0000000000000000
    Empirical Dispersion Energy =           0.0000000000000000
    PCM Polarization Energy =               0.0000000000000000
    EFP Energy =                            0.0000000000000000
    Total Energy =                       -191.9492046114355617
    Molecular point group: c1
  Basis Set: 6-31G*
  Basis Set:

  -Total Gradient:
     Atom            X                  Y                   Z
    ------   -----------------  -----------------  -----------------
       1       -0.000017428560     0.000014240510    -0.000001327285
       2       -0.000025391132     0.000048581895     0.000253643069
       3       -0.000002933701    -0.000134787726    -0.000247418209
       4        0.000044121449     0.000015071133    -0.000157344557
       5       -0.000008901674    -0.000030418740     0.000068288083
       6        0.000058693388     0.000141092519     0.000098268678
       7        0.000002439420    -0.000039671324    -0.000021463468
       8        0.000011588797     0.000027568820     0.000011861314
       9       -0.000039732231    -0.000009303972    -0.000000475823
      10       -0.000022455757    -0.000032373117    -0.000004031803

  **** Optimization is complete! (in 5 steps) ****
    Final optimized geometry and variables:
    Molecular point group: c1

    Geometry (in Angstrom), charge = 0, multiplicity = 1:

    H            1.012794570455    -1.121161303463    -0.071612052460
    C            0.751080320085    -0.057801043912    -0.013367920425
    C           -0.727310549361     0.269211990836    -0.012508304865
    O            1.605513773472     0.765398913249     0.040143174271
    C           -1.626033327798    -0.964787266756    -0.015326352653
    H           -0.919207925898     0.892472884158    -0.881576688030
    H           -0.920531454227     0.892713610965     0.855286658174
    H           -1.450197077338    -1.579551259978    -0.893070569329
    H           -2.671877942122    -0.679912136084    -0.017192464234
    H           -1.453771168318    -1.581675210572     0.861655845918

  Mulliken Charges: (a.u.)
   Center  Symbol    Alpha    Beta     Spin     Total
       1     H     0.42856  0.42856  0.00000  0.14288
       2     C     2.83789  2.83789  0.00000  0.32421
       3     C     3.20445  3.20445  0.00000 -0.40890
       4     O     4.23886  4.23886  0.00000 -0.47771
       5     C     3.25324  3.25324  0.00000 -0.50649
       6     H     0.39822  0.39822  0.00000  0.20356
       7     H     0.39782  0.39782  0.00000  0.20437
       8     H     0.41584  0.41584  0.00000  0.16832
       9     H     0.40968  0.40968  0.00000  0.18065
      10     H     0.41544  0.41544  0.00000  0.16912

   Total alpha = 16.00000, Total beta = 16.00000, Total charge =  0.00000
