                              Psi4 1.0.54 Driver

  ==> Input File <==

--------------------------------------------------------------------------
set {
	reference rhf
	basis cc-pvtz
}

set_num_threads( 4 )
memory 2 gb

molecule MOL {
0 1

H	 -2.771188	 0.619316	 -0.260548
N	 -1.798800	 0.708872	 -0.056803
C	 -1.017452	 0.802780	 -1.276154
H	 -1.524015	 -0.097028	 0.463789
C	 0.454104	 0.927779	 -0.954366
H	 -1.152112	 -0.047415	 -1.943671
H	 -1.322837	 1.692041	 -1.816531
O	 0.881195	 -0.248324	 -0.336237
H	 1.019619	 1.095818	 -1.869859
H	 0.613022	 1.777727	 -0.294622
C	 2.208068	 -0.234417	 0.074171
H	 2.725499	 -1.027054	 -0.446768
H	 2.688377	 0.712084	 -0.164856
H	 2.295137	 -0.403407	 1.144883

	symmetry c1
}
set optking {
	frozen_dihedral = ("
		5 8 11 13
	")
}

ee,wfn = optimize('scf', return_wfn=True)
oeprop( wfn, 'DIPOLE', 'QUADRUPOLE', 'MULLIKEN_CHARGES')
f=open( 'psi4out.xyz', 'w' )
f.write( "14  " )
f.write( str(ee) + "\n" )
f.write( MOL.save_string_xyz() )
f.close()
--------------------------------------------------------------------------

    Molecular point group: c1
  Charge       = 0
  Multiplicity = 1
  Basis Set: CC-PVTZ
  Basis Set:
  @DF-RHF Final Energy:  -248.22211256268932
    Total Energy =                       -248.2221125626894036
    Molecular point group: c1
  Basis Set: CC-PVTZ
  Basis Set:
  Basis Set: CC-PVTZ
  Basis Set:
  @DF-RHF Final Energy:  -248.22247935673548
    Total Energy =                       -248.2224793567356187
  Basis Set: CC-PVTZ
  Basis Set:
  Basis Set: CC-PVTZ
  Basis Set:
  @DF-RHF Final Energy:  -248.22258516337800
    Total Energy =                       -248.2225851633778575
  Basis Set: CC-PVTZ
  Basis Set:
  Charge       = 0
  Multiplicity = 1
  Basis Set: CC-PVTZ
  Basis Set:

    Orbital Energies (a.u.)
    -----------------------

    Doubly Occupied:

       1A    -20.547160     2A    -15.523071     3A    -11.264443
       4A    -11.263221     5A    -11.239339     6A     -1.379638
       7A     -1.175509     8A     -1.000386     9A     -0.907897
      10A     -0.815323    11A     -0.683848    12A     -0.673432
      13A     -0.644905    14A     -0.611443    15A     -0.607632
      16A     -0.540172    17A     -0.536378    18A     -0.497225
      19A     -0.473394    20A     -0.414586    21A     -0.383473

  @DF-RHF Final Energy:  -248.22258593712380

   => Energetics <=

    Nuclear Repulsion Energy =            194.4015713165366890
    One-Electron Energy =                -722.8833713809001438
    Two-Electron Energy =                 280.2592141272397157
    DFT Exchange-Correlation Energy =       0.0000000000000000
    Empirical Dispersion Energy =           0.0000000000000000
    PCM Polarization Energy =               0.0000000000000000
    EFP Energy =                            0.0000000000000000
    Total Energy =                       -248.2225859371237675
    Molecular point group: c1
  Basis Set: CC-PVTZ
  Basis Set:

  -Total Gradient:
     Atom            X                  Y                   Z
    ------   -----------------  -----------------  -----------------
       1        0.000008078919     0.000004971367    -0.000014704208
       2        0.000017440350    -0.000001158451    -0.000013131695
       3       -0.000027992415     0.000022184915    -0.000019925278
       4        0.000008663670     0.000007754067    -0.000006084521
       5       -0.000064600122     0.000030054788     0.000027685625
       6        0.000000601693     0.000006741960     0.000015190752
       7       -0.000039192689     0.000011051265    -0.000011985234
       8        0.000161169882    -0.000000580763     0.000035276283
       9       -0.000002327993    -0.000030172390     0.000029629456
      10        0.000007685892     0.000004409208    -0.000009675253
      11       -0.000045056938    -0.000078254110    -0.000042997721
      12        0.000026982997    -0.000009709848     0.000006099463
      13       -0.000040818166     0.000017945262    -0.000002048873
      14       -0.000010635076     0.000014762728     0.000006671202

  **** Optimization is complete! (in 4 steps) ****
    Final optimized geometry and variables:
    Molecular point group: c1

    Geometry (in Angstrom), charge = 0, multiplicity = 1:

    H           -2.921803523051     0.175911635285     0.259165944895
    N           -1.950170690480     0.285791390505     0.456371960636
    C           -1.182242066781     0.420810691491    -0.767535016698
    H           -1.650993949493    -0.522691714590     0.959133676742
    C            0.288590076773     0.576763198887    -0.456151905639
    H           -1.301605503876    -0.420653966190    -1.448861605827
    H           -1.514083253780     1.311685491944    -1.289615144364
    O            0.745038285531    -0.600824570036     0.140942620837
    H            0.839272590656     0.772136923395    -1.374623079084
    H            0.430197455020     1.420303586791     0.214512236736
    C            2.075990878156    -0.605499955404     0.558421225852
    H            2.618206201627    -1.393924145716     0.048930952647
    H            2.568962001563     0.337693129313     0.348323932200
    H            2.125997798318    -0.784181864552     1.626384217287

  Mulliken Charges: (a.u.)
   Center  Symbol    Alpha    Beta     Spin     Total
       1     H     0.43035  0.43035  0.00000  0.13929
       2     N     3.69429  3.69429  0.00000 -0.38858
       3     C     3.02431  3.02431  0.00000 -0.04862
       4     H     0.42217  0.42217  0.00000  0.15565
       5     C     2.96756  2.96756  0.00000  0.06488
       6     H     0.46488  0.46488  0.00000  0.07025
       7     H     0.45876  0.45876  0.00000  0.08248
       8     O     4.18476  4.18476  0.00000 -0.36952
       9     H     0.46985  0.46985  0.00000  0.06031
      10     H     0.46882  0.46882  0.00000  0.06235
      11     C     3.02697  3.02697  0.00000 -0.05393
      12     H     0.45851  0.45851  0.00000  0.08298
      13     H     0.47156  0.47156  0.00000  0.05689
      14     H     0.45722  0.45722  0.00000  0.08557

   Total alpha = 21.00000, Total beta = 21.00000, Total charge =  0.00000

*** Psi4 exiting successfully. Buy a developer a beer!
