                              Psi4 1.0.54 Driver

  ==> Input File <==

--------------------------------------------------------------------------
set {
	reference rhf
	basis cc-pvtz
}

set_num_threads( 4 )
memory 2 gb

molecule MOL {
0 1

H	 -3.258660	 -0.290394	 1.471450
C	 -3.307964	 -0.275695	 0.374072
C	 -2.653809	 0.914422	 -0.273689
O	 -3.855140	 -1.148880	 -0.205112
C	 -1.216901	 1.136108	 0.207794
H	 -2.700131	 0.790676	 -1.347875
H	 -3.256452	 1.781007	 -0.010713
C	 -0.247837	 0.040196	 -0.230469
H	 -0.872882	 2.093195	 -0.169002
H	 -1.209325	 1.218376	 1.291938
C	 1.181757	 0.280428	 0.247371
H	 -0.259600	 -0.030819	 -1.314870
H	 -0.591284	 -0.923375	 0.136958
C	 2.151032	 -0.811012	 -0.202643
H	 1.515939	 1.247397	 -0.115449
H	 1.191514	 0.341223	 1.333422
C	 3.580021	 -0.656538	 0.320835
H	 2.170545	 -0.847575	 -1.289412
H	 1.766632	 -1.772905	 0.124928
C	 3.769422	 0.465282	 1.339036
H	 4.235728	 -0.472543	 -0.524497
H	 3.905888	 -1.597484	 0.756425
H	 3.445391	 1.418275	 0.933075
H	 3.210185	 0.286418	 2.249501
H	 4.813558	 0.562507	 1.613431

	symmetry c1
}
set optking {
	frozen_dihedral = ("
		20 17 14 18
	")
}

ee,wfn = optimize('scf', return_wfn=True)
oeprop( wfn, 'DIPOLE', 'QUADRUPOLE', 'MULLIKEN_CHARGES')
f=open( 'psi4out.xyz', 'w' )
f.write( "25  " )
f.write( str(ee) + "\n" )
f.write( MOL.save_string_xyz() )
f.close()
--------------------------------------------------------------------------

    Molecular point group: c1
  Charge       = 0
  Multiplicity = 1
  Basis Set: CC-PVTZ
  Basis Set:
  @DF-RHF Final Energy:  -387.25025587335034
    Total Energy =                       -387.2502558733501701
    Molecular point group: c1
  Basis Set: CC-PVTZ
  Basis Set:
  Basis Set: CC-PVTZ
  Basis Set:
  @DF-RHF Final Energy:  -387.21931797911355
    Total Energy =                       -387.2193179791139528
  Basis Set: CC-PVTZ
  Basis Set:
  Basis Set: CC-PVTZ
  Basis Set:
  @DF-RHF Final Energy:  -387.25091528348429
    Total Energy =                       -387.2509152834843462
  Basis Set: CC-PVTZ
  Basis Set:
  Basis Set: CC-PVTZ
  Basis Set:
  @DF-RHF Final Energy:  -387.25220744953151
    Total Energy =                       -387.2522074495315110
  Basis Set: CC-PVTZ
  Basis Set:
  @DF-RHF Final Energy:  -387.25219883469236
    Total Energy =                       -387.2521988346920807
  @DF-RHF Final Energy:  -387.25128178553257
    Total Energy =                       -387.2512817855323419
  @DF-RHF Final Energy:  -387.25225464026767
    Total Energy =                       -387.2522546402680064
  Basis Set: CC-PVTZ
  Basis Set:
  @DF-RHF Final Energy:  -387.25225231787562
    Total Energy =                       -387.2522523178759002
  Basis Set: CC-PVTZ
  Basis Set:
  Basis Set: CC-PVTZ
  Basis Set:
  @DF-RHF Final Energy:  -387.25226206334679
    Total Energy =                       -387.2522620633474162
  Basis Set: CC-PVTZ
  Basis Set:
  Basis Set: CC-PVTZ
  Basis Set:
  @DF-RHF Final Energy:  -387.25226316081552
    Total Energy =                       -387.2522631608154597
  Basis Set: CC-PVTZ
  Basis Set:
  Charge       = 0
  Multiplicity = 1
  Basis Set: CC-PVTZ
  Basis Set:

    Orbital Energies (a.u.)
    -----------------------

    Doubly Occupied:

       1A    -20.551283     2A    -11.320912     3A    -11.233690
       4A    -11.232668     5A    -11.221375     6A    -11.217506
       7A    -11.216477     8A    -11.215291     9A    -11.209067
      10A     -1.406266    11A     -1.104439    12A     -1.067671
      13A     -1.013544    14A     -0.943073    15A     -0.878882
      16A     -0.823365    17A     -0.788469    18A     -0.774311
      19A     -0.667719    20A     -0.665873    21A     -0.639621
      22A     -0.622435    23A     -0.607300    24A     -0.588437
      25A     -0.573007    26A     -0.557167    27A     -0.531969
      28A     -0.525969    29A     -0.517082    30A     -0.497123
      31A     -0.491424    32A     -0.481944    33A     -0.461283
      34A     -0.450030    35A     -0.443123    36A     -0.411778

  @DF-RHF Final Energy:  -387.25226335353557

   => Energetics <=

    Nuclear Repulsion Energy =            440.6188603781160964
    One-Electron Energy =               -1397.8391000439310119
    Two-Electron Energy =                 569.9679763122796885
    DFT Exchange-Correlation Energy =       0.0000000000000000
    Empirical Dispersion Energy =           0.0000000000000000
    PCM Polarization Energy =               0.0000000000000000
    EFP Energy =                            0.0000000000000000
    Total Energy =                       -387.2522633535352270
    Molecular point group: c1
  Basis Set: CC-PVTZ
  Basis Set:

  -Total Gradient:
     Atom            X                  Y                   Z
    ------   -----------------  -----------------  -----------------
       1       -0.000032125105    -0.000017946893     0.000054905842
       2        0.000070247694     0.000057790580    -0.000002791692
       3        0.000024464040     0.000017572174    -0.000008307850
       4       -0.000055482415    -0.000069248337    -0.000047710663
       5       -0.000005622201     0.000002996173     0.000011312662
       6       -0.000000605850    -0.000003327790    -0.000007706421
       7        0.000007581924     0.000013430381    -0.000001945057
       8       -0.000007174695    -0.000001650776    -0.000005151688
       9       -0.000005205215     0.000002612941     0.000005080940
      10       -0.000001316863    -0.000001950182     0.000008376888
      11       -0.000000230980    -0.000010991390     0.000006893993
      12       -0.000005691274    -0.000002623165    -0.000008755221
      13        0.000011714115    -0.000004066430     0.000001062155
      14        0.000388133945    -0.002759362568    -0.000745701668
      15        0.000006651341     0.000000478135    -0.000001257687
      16       -0.000001387115     0.000007422975     0.000007665216
      17       -0.001266787584    -0.001453286748     0.001922384408
      18        0.000003431405     0.002788050410     0.000107977640
      19       -0.000007165453     0.000000445779     0.000003293233
      20        0.000854421198     0.001433634795    -0.001323854088
      21        0.000005972494     0.000000946315    -0.000011406670
      22        0.000005251036    -0.000008660153    -0.000001794474
      23       -0.000004784237     0.000009555206     0.000002618253
      24       -0.000023781670     0.000006452741     0.000014484673
      25        0.000039491455    -0.000008274174     0.000020327277

  **** Optimization is complete! (in 11 steps) ****
    Final optimized geometry and variables:
    Molecular point group: c1

    Geometry (in Angstrom), charge = 0, multiplicity = 1:

    H           -3.476615523246    -0.049120397377     0.314175127749
    C           -3.203200262429     0.051378577661    -0.745202025605
    C           -2.301383413049     1.214158908839    -1.059489428412
    O           -3.622637930608    -0.716999771657    -1.539603226757
    C           -1.056914499545     1.257384728129    -0.167974992563
    H           -2.039580809221     1.173187284586    -2.108853386620
    H           -2.889081751133     2.114986482655    -0.896766362667
    C           -0.085614917598     0.105211531214    -0.416001919627
    H           -0.547882468901     2.200373879097    -0.335335036858
    H           -1.361909705661     1.260351235365     0.875636466397
    C            1.157290801151     0.171825971497     0.467860838391
    H            0.211297250262     0.110694255556    -1.461396929054
    H           -0.590779070300    -0.843421689330    -0.252971405922
    C            2.122034705988    -0.984400169986     0.197561953259
    H            1.658646608917     1.120280687341     0.298445996388
    H            0.850269028533     0.169522962053     1.508907213735
    C            3.430953108905    -1.019211550392     1.030101847109
    H            2.384438341487    -0.941181606440    -0.854373775841
    H            1.582649933951    -1.914977033088     0.339189726635
    C            3.554893812807    -0.025836576877     2.185199919325
    H            4.269635662351    -0.851181209915     0.362781197825
    H            3.568321598346    -2.020433905384     1.422714902661
    H            3.499305249534     1.001051485123     1.845813435231
    H            2.783603852115    -0.170666796193     2.933077684509
    H            4.511961961376    -0.154506421723     2.677918153868

  Mulliken Charges: (a.u.)
   Center  Symbol    Alpha    Beta     Spin     Total
       1     H     0.46417  0.46417  0.00000  0.07166
       2     C     2.90478  2.90478  0.00000  0.19043
       3     C     3.08883  3.08883  0.00000 -0.17766
       4     O     4.16637  4.16637  0.00000 -0.33274
       5     C     3.11626  3.11626  0.00000 -0.23252
       6     H     0.44292  0.44292  0.00000  0.11416
       7     H     0.44055  0.44055  0.00000  0.11890
       8     C     3.09093  3.09093  0.00000 -0.18186
       9     H     0.44325  0.44325  0.00000  0.11349
      10     H     0.45000  0.45000  0.00000  0.10000
      11     C     3.08991  3.08991  0.00000 -0.17983
      12     H     0.45008  0.45008  0.00000  0.09983
      13     H     0.44865  0.44865  0.00000  0.10270
      14     C     3.10049  3.10049  0.00000 -0.20098
      15     H     0.45229  0.45229  0.00000  0.09542
      16     H     0.45199  0.45199  0.00000  0.09601
      17     C     3.08792  3.08792  0.00000 -0.17583
      18     H     0.45060  0.45060  0.00000  0.09880
      19     H     0.44985  0.44985  0.00000  0.10031
      20     C     3.15737  3.15737  0.00000 -0.31474
      21     H     0.45200  0.45200  0.00000  0.09600
      22     H     0.45001  0.45001  0.00000  0.09997
      23     H     0.45333  0.45333  0.00000  0.09333
      24     H     0.45364  0.45364  0.00000  0.09272
      25     H     0.44379  0.44379  0.00000  0.11242

   Total alpha = 36.00000, Total beta = 36.00000, Total charge = -0.00000

*** Psi4 exiting successfully. Buy a developer a beer!
