  ==> Input File <==

--------------------------------------------------------------------------
set {
	reference rhf
	basis 6-31G*
}

set_num_threads( 1 )
memory 2 gb

molecule MOL {
0 1

H	 2.792027	 -0.683946	 1.225606
O	 3.496748	 -0.706234	 0.594778
C	 3.311021	 -1.786030	 -0.284767
C	 2.176930	 -1.563129	 -1.279191
H	 4.247177	 -1.896629	 -0.816796
H	 3.145296	 -2.707297	 0.272531
C	 0.795799	 -1.440633	 -0.630855
H	 2.392166	 -0.664854	 -1.852027
H	 2.174026	 -2.394573	 -1.982085
C	 -0.326930	 -1.271955	 -1.658399
H	 0.794754	 -0.593964	 0.049965
H	 0.598519	 -2.327656	 -0.028682
C	 -1.740545	 -1.230086	 -1.066555
H	 -0.151261	 -0.365602	 -2.235038
H	 -0.274561	 -2.096177	 -2.366648
C	 -2.037799	 -0.007733	 -0.193645
H	 -2.455162	 -1.252382	 -1.886702
H	 -1.915496	 -2.136742	 -0.489316
C	 -3.489788	 0.042957	 0.286558
H	 -1.814628	 0.897834	 -0.756008
H	 -1.380966	 0.002066	 0.672829
C	 -4.216917	 1.317354	 -0.141063
H	 -4.025645	 -0.823308	 -0.095450
H	 -3.513059	 -0.038752	 1.371301
H	 -4.239342	 1.411634	 -1.223113
H	 -5.243387	 1.322503	 0.212445
H	 -3.726170	 2.201406	 0.256408

	symmetry c1
}
set optking {
	frozen_dihedral = ("
		14 10 7 4,
		14 10 13 16,
		10 7 4 8,
		8 4 3 2,
		10 13 16 20,
		4 3 2 1
	")
}

ee = energy('scf')
oeprop('DIPOLE', 'QUADRUPOLE', 'MULLIKEN_CHARGES')
f=open( 'psi4out.xyz', 'w' )
f.write( "27  " )
f.write( str(ee) + "\n" )
f.write( MOL.save_string_xyz() )
f.close()
--------------------------------------------------------------------------

    Molecular point group: c1

    Geometry (in Angstrom), charge = 0, multiplicity = 1:

       Center              X                  Y                   Z               Mass
    ------------   -----------------  -----------------  -----------------  -----------------
           H          2.969555722479     0.044590829693     1.685495214510     1.007825032070
           O          3.674276722479     0.022302829693     1.054667214510    15.994914619560
           C          3.488549722479    -1.057493170307     0.175122214510    12.000000000000
           C          2.354458722479    -0.834592170307    -0.819301785490    12.000000000000
           H          4.424705722479    -1.168092170307    -0.356906785490     1.007825032070
           H          3.322824722479    -1.978760170307     0.732420214510     1.007825032070
           C          0.973327722479    -0.712096170307    -0.170965785490    12.000000000000
           H          2.569694722479     0.063682829693    -1.392137785490     1.007825032070
           H          2.351554722479    -1.666036170307    -1.522195785490     1.007825032070
           C         -0.149401277521    -0.543418170307    -1.198509785490    12.000000000000
           H          0.972282722479     0.134572829693     0.509854214510     1.007825032070
           H          0.776047722479    -1.599119170307     0.431207214510     1.007825032070
           C         -1.563016277521    -0.501549170307    -0.606665785490    12.000000000000
           H          0.026267722479     0.362934829693    -1.775148785490     1.007825032070
           H         -0.097032277521    -1.367640170307    -1.906758785490     1.007825032070
           C         -1.860270277521     0.720803829693     0.266244214510    12.000000000000
           H         -2.277633277521    -0.523845170307    -1.426812785490     1.007825032070
           H         -1.737967277521    -1.408205170307    -0.029426785490     1.007825032070
           C         -3.312259277521     0.771493829693     0.746447214510    12.000000000000
           H         -1.637099277521     1.626370829693    -0.296118785490     1.007825032070
           H         -1.203437277521     0.730602829693     1.132718214510     1.007825032070
           C         -4.039388277521     2.045890829693     0.318826214510    12.000000000000
           H         -3.848116277521    -0.094771170307     0.364439214510     1.007825032070
           H         -3.335530277521     0.689784829693     1.831190214510     1.007825032070
           H         -4.061813277521     2.140170829693    -0.763223785490     1.007825032070
           H         -5.065858277521     2.051039829693     0.672334214510     1.007825032070
           H         -3.548641277521     2.929942829693     0.716297214510     1.007825032070

  Charge       = 0
  Multiplicity = 1
  Basis Set: 6-31G*
  Basis Set:

    Orbital Energies (a.u.)
    -----------------------

    Doubly Occupied:

       1A    -20.552254     2A    -11.267008     3A    -11.219690
       4A    -11.216892     5A    -11.216078     6A    -11.215123
       7A    -11.214383     8A    -11.212690     9A    -11.209459
      10A     -1.359000    11A     -1.095283    12A     -1.061528
      13A     -1.010860    14A     -0.947750    15A     -0.889072
      16A     -0.821700    17A     -0.800383    18A     -0.777962
      19A     -0.693671    20A     -0.648010    21A     -0.636731
      22A     -0.615291    23A     -0.598196    24A     -0.590388
      25A     -0.579706    26A     -0.554614    27A     -0.540278
      28A     -0.527960    29A     -0.510475    30A     -0.490503
      31A     -0.483911    32A     -0.477047    33A     -0.468754
      34A     -0.459017    35A     -0.449397    36A     -0.440119
      37A     -0.422590

  @DF-RHF Final Energy:  -388.27583821227518

   => Energetics <=

    Nuclear Repulsion Energy =            459.9386501822642686
    One-Electron Energy =               -1437.8817723639367614
    Two-Electron Energy =                 589.6672839693978858
    DFT Exchange-Correlation Energy =       0.0000000000000000
    Empirical Dispersion Energy =           0.0000000000000000
    PCM Polarization Energy =               0.0000000000000000
    EFP Energy =                            0.0000000000000000
    Total Energy =                       -388.2758382122746070

  Mulliken Charges: (a.u.)
   Center  Symbol    Alpha    Beta     Spin     Total
       1     H     0.27993  0.27993  0.00000  0.44015
       2     O     4.37095  4.37095  0.00000 -0.74190
       3     C     2.99737  2.99737  0.00000  0.00525
       4     C     3.16087  3.16087  0.00000 -0.32174
       5     H     0.41446  0.41446  0.00000  0.17109
       6     H     0.43207  0.43207  0.00000  0.13587
       7     C     3.16317  3.16317  0.00000 -0.32634
       8     H     0.41498  0.41498  0.00000  0.17005
       9     H     0.42435  0.42435  0.00000  0.15129
      10     C     3.15260  3.15260  0.00000 -0.30520
      11     H     0.42295  0.42295  0.00000  0.15411
      12     H     0.42551  0.42551  0.00000  0.14897
      13     C     3.15613  3.15613  0.00000 -0.31227
      14     H     0.42158  0.42158  0.00000  0.15683
      15     H     0.42167  0.42167  0.00000  0.15665
      16     C     3.15577  3.15577  0.00000 -0.31153
      17     H     0.42099  0.42099  0.00000  0.15801
      18     H     0.42365  0.42365  0.00000  0.15271
      19     C     3.15427  3.15427  0.00000 -0.30853
      20     H     0.42056  0.42056  0.00000  0.15887
      21     H     0.42122  0.42122  0.00000  0.15756
      22     C     3.24036  3.24036  0.00000 -0.48073
      23     H     0.42008  0.42008  0.00000  0.15984
      24     H     0.42098  0.42098  0.00000  0.15805
      25     H     0.42182  0.42182  0.00000  0.15636
      26     H     0.42049  0.42049  0.00000  0.15901
      27     H     0.42122  0.42122  0.00000  0.15757

   Total alpha = 37.00000, Total beta = 37.00000, Total charge =  0.00000
