  ==> Input File <==

--------------------------------------------------------------------------
set {
	reference rhf
	basis 6-31G*
}

set_num_threads( 4 )
memory 2 gb

molecule MOL {
0 1

H	 3.276176	 0.174363	 -0.109463
N	 2.434251	 -0.367735	 -0.081097
C	 1.267428	 0.496480	 0.024474
H	 2.501951	 -0.965776	 0.720575
C	 -0.016086	 -0.325158	 -0.029487
H	 1.288818	 1.183521	 -0.816092
H	 1.267576	 1.109062	 0.929528
C	 -1.282277	 0.529072	 0.046735
H	 -0.012495	 -0.908639	 -0.945788
H	 -0.015903	 -1.041248	 0.791956
C	 -2.485766	 -0.130646	 -0.625640
H	 -1.094544	 1.494045	 -0.419710
H	 -1.520483	 0.735015	 1.088273
H	 -2.292119	 -0.317845	 -1.677865
H	 -3.368181	 0.498069	 -0.557953
H	 -2.721578	 -1.083156	 -0.159443

	symmetry c1
}
set optking {
	frozen_dihedral = ("
		12 8 5 9
	")
}

ee = optimize('scf')
oeprop('DIPOLE', 'QUADRUPOLE', 'MULLIKEN_CHARGES')
f=open( 'psi4out.xyz', 'w' )
f.write( "16  " )
f.write( str(ee) + "\n" )
f.write( MOL.save_string_xyz() )
f.close()
--------------------------------------------------------------------------

    Molecular point group: c1
  Charge       = 0
  Multiplicity = 1
  Basis Set: 6-31G*
  Basis Set:
  @DF-RHF Final Energy:  -212.31480972495592
    Total Energy =                       -212.3148097249560351
    Molecular point group: c1
  Basis Set: 6-31G*
  Basis Set:
  Basis Set: 6-31G*
  Basis Set:
  @DF-RHF Final Energy:  -212.31503854840554
    Total Energy =                       -212.3150385484054823
  Basis Set: 6-31G*
  Basis Set:
  Basis Set: 6-31G*
  Basis Set:
  @DF-RHF Final Energy:  -212.31508091375750
    Total Energy =                       -212.3150809137575834
  Basis Set: 6-31G*
  Basis Set:
  Basis Set: 6-31G*
  Basis Set:
  @DF-RHF Final Energy:  -212.31508316961217
    Total Energy =                       -212.3150831696119667
  Basis Set: 6-31G*
  Basis Set:
  Charge       = 0
  Multiplicity = 1
  Basis Set: 6-31G*
  Basis Set:

    Orbital Energies (a.u.)
    -----------------------

    Doubly Occupied:

       1A    -15.532757     2A    -11.240401     3A    -11.214999
       4A    -11.209524     5A    -11.208070     6A     -1.176954
       7A     -1.058478     8A     -0.958872     9A     -0.844495
      10A     -0.792411    11A     -0.663747    12A     -0.631269
      13A     -0.612096    14A     -0.574506    15A     -0.562090
      16A     -0.529221    17A     -0.497545    18A     -0.473183
      19A     -0.463465    20A     -0.458548    21A     -0.381256

  @DF-RHF Final Energy:  -212.31508387202007

   => Energetics <=

    Nuclear Repulsion Energy =            186.2196007457012001
    One-Electron Energy =                -654.9016001544048322
    Two-Electron Energy =                 256.3669155366837344
    DFT Exchange-Correlation Energy =       0.0000000000000000
    Empirical Dispersion Energy =           0.0000000000000000
    PCM Polarization Energy =               0.0000000000000000
    EFP Energy =                            0.0000000000000000
    Total Energy =                       -212.3150838720198976
    Molecular point group: c1
  Basis Set: 6-31G*
  Basis Set:

  -Total Gradient:
     Atom            X                  Y                   Z
    ------   -----------------  -----------------  -----------------
       1        0.000017818610    -0.000009672328     0.000005307185
       2        0.000035171465     0.000007442396     0.000002935035
       3       -0.000043671918    -0.000035632413    -0.000025072737
       4        0.000003533998     0.000000302930     0.000001369437
       5        0.002512445320     0.004026574494    -0.001471183062
       6       -0.000004004547    -0.000009021872     0.000003162914
       7       -0.000007017098    -0.000006090109    -0.000008011229
       8       -0.001912906840    -0.002485644209    -0.003744889686
       9       -0.001787042865    -0.002889027314     0.001795264289
      10        0.000003608232    -0.000001465499     0.000030942418
      11        0.000006347014     0.000021407730     0.000008255323
      12        0.001187562264     0.001385194962     0.003368417991
      13       -0.000024851981    -0.000010375002     0.000023034632
      14        0.000010939462     0.000003126103     0.000016142842
      15       -0.000002674156    -0.000000243682    -0.000010487076
      16        0.000004743039     0.000003123815     0.000004811723

  **** Optimization is complete! (in 5 steps) ****
    Final optimized geometry and variables:
    Molecular point group: c1

    Geometry (in Angstrom), charge = 0, multiplicity = 1:

    H            3.269842492941     0.130063264512     0.085463923965
    N            2.425012294107    -0.408208296299     0.091560297486
    C            1.259036247347     0.461239631686     0.143698522443
    H            2.461769491797    -0.996215973844     0.902515351213
    C           -0.024797271563    -0.353525319907     0.050358667262
    H            1.313777622857     1.139164348883    -0.702547227394
    H            1.226428084603     1.084132524575     1.041516403793
    C           -1.297661930665     0.498058603714     0.148131858198
    H           -0.020028916558    -0.932296642724    -0.868906815531
    H           -0.034018173287    -1.092248946698     0.851579285101
    C           -2.521575502808    -0.170106941268    -0.473884700449
    H           -1.127611081151     1.470918063855    -0.309194883962
    H           -1.501321578491     0.711648626448     1.195481644886
    H           -2.378144504170    -0.335300718174    -1.537620341225
    H           -3.410829158624     0.439869675028    -0.348451731408
    H           -2.714700715951    -1.135345289058    -0.013928880119

  Mulliken Charges: (a.u.)
   Center  Symbol    Alpha    Beta     Spin     Total
       1     H     0.33242  0.33242  0.00000  0.33517
       2     N     3.92186  3.92186  0.00000 -0.84372
       3     C     3.06148  3.06148  0.00000 -0.12296
       4     H     0.33522  0.33522  0.00000  0.32955
       5     C     3.15121  3.15121  0.00000 -0.30243
       6     H     0.42038  0.42038  0.00000  0.15925
       7     H     0.43457  0.43457  0.00000  0.13086
       8     C     3.15666  3.15666  0.00000 -0.31332
       9     H     0.41311  0.41311  0.00000  0.17378
      10     H     0.42697  0.42697  0.00000  0.14606
      11     C     3.23886  3.23886  0.00000 -0.47773
      12     H     0.42297  0.42297  0.00000  0.15405
      13     H     0.42267  0.42267  0.00000  0.15467
      14     H     0.42024  0.42024  0.00000  0.15952
      15     H     0.42003  0.42003  0.00000  0.15995
      16     H     0.42135  0.42135  0.00000  0.15730

   Total alpha = 21.00000, Total beta = 21.00000, Total charge =  0.00000
