  ==> Input File <==

--------------------------------------------------------------------------
set {
	reference rhf
	basis 6-31G*
}

set_num_threads( 4 )
memory 2 gb

molecule MOL {
0 1

O	 2.373390	 2.115246	 -0.105332
C	 1.294728	 2.565434	 -0.343192
C	 0.040541	 1.709933	 -0.334651
C	 1.106928	 4.032379	 -0.671764
C	 0.291004	 0.242674	 0.000989
H	 -0.659815	 2.152481	 0.372484
H	 -0.435072	 1.806044	 -1.309821
C	 -0.994322	 -0.586602	 0.000262
H	 0.772287	 0.176935	 0.971646
H	 0.997092	 -0.170011	 -0.712649
C	 -2.259874	 0.272531	 0.000494
H	 -1.004862	 -1.240012	 -0.870939
H	 -1.005220	 -1.241071	 0.870675
C	 -3.549786	 -0.549746	 -0.000374
H	 -2.250389	 0.926680	 -0.869574
H	 -2.250838	 0.925513	 0.871430
C	 -4.809590	 0.315458	 -0.000369
H	 -3.560515	 -1.202009	 -0.871156
H	 -3.561123	 -1.202955	 0.869711
H	 -4.844746	 0.956611	 -0.876632
H	 -5.706986	 -0.295590	 -0.001609
H	 -4.845960	 0.954827	 0.877144
H	 0.432007	 4.497057	 0.041099
H	 2.062584	 4.537248	 -0.646023
H	 0.663367	 4.146056	 -1.656632

	symmetry c1
}
set optking {
	frozen_dihedral = ("
		9 5 8 12
	")
}

ee = optimize('scf')
oeprop('DIPOLE', 'QUADRUPOLE', 'MULLIKEN_CHARGES')
f=open( 'psi4out.xyz', 'w' )
f.write( "25  " )
f.write( str(ee) + "\n" )
f.write( MOL.save_string_xyz() )
f.close()
--------------------------------------------------------------------------

    Molecular point group: c1
  Charge       = 0
  Multiplicity = 1
  Basis Set: 6-31G*
  Basis Set:
  @DF-RHF Final Energy:  -387.12273760656728
    Total Energy =                       -387.1227376065668295
    Molecular point group: c1
  Basis Set: 6-31G*
  Basis Set:
  Basis Set: 6-31G*
  Basis Set:
  @DF-RHF Final Energy:  -387.12317563475801
    Total Energy =                       -387.1231756347582404
  Basis Set: 6-31G*
  Basis Set:
  Basis Set: 6-31G*
  Basis Set:
  @DF-RHF Final Energy:  -387.12713363482391
    Total Energy =                       -387.1271336348238492
  Basis Set: 6-31G*
  Basis Set:
  Basis Set: 6-31G*
  Basis Set:
  @DF-RHF Final Energy:  -387.12786095540190
    Total Energy =                       -387.1278609554020704
  Basis Set: 6-31G*
  Basis Set:
  @DF-RHF Final Energy:  -387.12784235226678
    Total Energy =                       -387.1278423522671801
  @DF-RHF Final Energy:  -387.12617135790612
    Total Energy =                       -387.1261713579059460
  @DF-RHF Final Energy:  -387.12797141542939
    Total Energy =                       -387.1279714154297835
  Basis Set: 6-31G*
  Basis Set:
  @DF-RHF Final Energy:  -387.12795924632860
    Total Energy =                       -387.1279592463290555
  Basis Set: 6-31G*
  Basis Set:
  Basis Set: 6-31G*
  Basis Set:
  @DF-RHF Final Energy:  -387.12797970437214
    Total Energy =                       -387.1279797043715689
  Basis Set: 6-31G*
  Basis Set:
  Basis Set: 6-31G*
  Basis Set:
  @DF-RHF Final Energy:  -387.12798103659895
    Total Energy =                       -387.1279810365991807
  Basis Set: 6-31G*
  Basis Set:
  Charge       = 0
  Multiplicity = 1
  Basis Set: 6-31G*
  Basis Set:

    Orbital Energies (a.u.)
    -----------------------

    Doubly Occupied:

       1A    -20.550324     2A    -11.326165     3A    -11.231583
       4A    -11.228170     5A    -11.218058     6A    -11.217486
       7A    -11.216939     8A    -11.216423     9A    -11.211207
      10A     -1.395685    11A     -1.092571    12A     -1.055545
      13A     -1.013381    14A     -0.968007    15A     -0.900283
      16A     -0.817657    17A     -0.786497    18A     -0.727486
      19A     -0.659111    20A     -0.654325    21A     -0.632551
      22A     -0.621894    23A     -0.595123    24A     -0.584246
      25A     -0.568069    26A     -0.560680    27A     -0.543717
      28A     -0.527620    29A     -0.521306    30A     -0.494222
      31A     -0.489661    32A     -0.476529    33A     -0.461277
      34A     -0.450812    35A     -0.447313    36A     -0.400970

  @DF-RHF Final Energy:  -387.12798124291862

   => Energetics <=

    Nuclear Repulsion Energy =            445.5570095249121323
    One-Electron Energy =               -1407.6441999469184339
    Two-Electron Energy =                 574.9592091790879067
    DFT Exchange-Correlation Energy =       0.0000000000000000
    Empirical Dispersion Energy =           0.0000000000000000
    PCM Polarization Energy =               0.0000000000000000
    EFP Energy =                            0.0000000000000000
    Total Energy =                       -387.1279812429183949
    Molecular point group: c1
  Basis Set: 6-31G*
  Basis Set:

  -Total Gradient:
     Atom            X                  Y                   Z
    ------   -----------------  -----------------  -----------------
       1       -0.000002737176    -0.000012536721     0.000001887829
       2        0.000009649918    -0.000004572128    -0.000052176765
       3       -0.000021053991    -0.000011637499     0.000042403143
       4       -0.000003521572     0.000019119305     0.000027127623
       5       -0.002968043773     0.004348029472     0.002637291301
       6       -0.000044752841     0.000001545203     0.000009387311
       7        0.000031873400    -0.000004761099     0.000022268746
       8       -0.002194577666     0.003748768922    -0.003831461987
       9        0.002795315096    -0.004237377753    -0.001639744403
      10        0.000011635267    -0.000022864650    -0.000009082872
      11        0.000006065093     0.000013508414    -0.000049955364
      12        0.002337472739    -0.003832168656     0.002811493992
      13        0.000020096645    -0.000016987926     0.000018040502
      14       -0.000003474310    -0.000006233818     0.000028872759
      15       -0.000015030751     0.000024547265     0.000004148646
      16        0.000023474824    -0.000019918292    -0.000002571899
      17        0.000007002416     0.000006876935    -0.000019972227
      18        0.000007023352     0.000000413153     0.000004977838
      19       -0.000002732186     0.000002665885     0.000010284939
      20       -0.000001907159     0.000007804075    -0.000000045213
      21        0.000006332133    -0.000002305246    -0.000006810951
      22        0.000000478959    -0.000006412280     0.000003256513
      23       -0.000007790055     0.000029350321    -0.000008295211
      24        0.000000536484    -0.000000242748    -0.000010238744
      25        0.000008665155    -0.000024610133     0.000008914494

  **** Optimization is complete! (in 11 steps) ****
    Final optimized geometry and variables:
    Molecular point group: c1

    Geometry (in Angstrom), charge = 0, multiplicity = 1:

    O            3.177945555264     0.914838780078     0.133927352229
    C            2.156393892355     1.447550657068    -0.174814909230
    C            0.831441132853     0.705903142969    -0.218791303723
    C            2.114889492751     2.915899801612    -0.546797462523
    C            0.950022216582    -0.766250868039     0.166929914398
    H            0.138246636234     1.236570633287     0.429458719497
    H            0.429341413062     0.814807994731    -1.224544722188
    C           -0.351847542341    -1.604249018311     0.101438575044
    H            1.396475113368    -0.852019326200     1.151009418667
    H            1.682293590423    -1.220629411174    -0.491875906965
    C           -1.682842117628    -0.850843155226     0.165315557273
    H           -0.328409705467    -2.236894265207    -0.782480617922
    H           -0.329672254258    -2.306492439639     0.931815047055
    C           -2.888288746365    -1.793418543309     0.158718069079
    H           -1.770215799382    -0.163910483174    -0.673226910889
    H           -1.716622718850    -0.240982169274     1.066538227428
    C           -4.224787558089    -1.054422805085     0.215981758442
    H           -2.855926649909    -2.411576460474    -0.735909889049
    H           -2.816749956821    -2.475432534647     1.003059665641
    H           -4.342426654880    -0.389060391680    -0.634825362743
    H           -5.058892416496    -1.749190337943     0.209316094097
    H           -4.302634212339    -0.453518115973     1.117753026057
    H            1.449498678804     3.457275591577     0.119381432799
    H            3.108963620923     3.336159783579    -0.483472041421
    H            1.732292918222     3.040550519442    -1.555583292405

  Mulliken Charges: (a.u.)
   Center  Symbol    Alpha    Beta     Spin     Total
       1     O     4.26099  4.26099  0.00000 -0.52198
       2     C     2.73585  2.73585  0.00000  0.52829
       3     C     3.21301  3.21301  0.00000 -0.42602
       4     C     3.28631  3.28631  0.00000 -0.57262
       5     C     3.15319  3.15319  0.00000 -0.30639
       6     H     0.40806  0.40806  0.00000  0.18389
       7     H     0.40956  0.40956  0.00000  0.18088
       8     C     3.15791  3.15791  0.00000 -0.31582
       9     H     0.41003  0.41003  0.00000  0.17993
      10     H     0.40997  0.40997  0.00000  0.18005
      11     C     3.15457  3.15457  0.00000 -0.30915
      12     H     0.42052  0.42052  0.00000  0.15897
      13     H     0.41945  0.41945  0.00000  0.16110
      14     C     3.15117  3.15117  0.00000 -0.30235
      15     H     0.42455  0.42455  0.00000  0.15089
      16     H     0.42421  0.42421  0.00000  0.15159
      17     C     3.23928  3.23928  0.00000 -0.47856
      18     H     0.42237  0.42237  0.00000  0.15527
      19     H     0.42196  0.42196  0.00000  0.15608
      20     H     0.42238  0.42238  0.00000  0.15525
      21     H     0.41857  0.41857  0.00000  0.16287
      22     H     0.42197  0.42197  0.00000  0.15606
      23     H     0.40870  0.40870  0.00000  0.18261
      24     H     0.39651  0.39651  0.00000  0.20697
      25     H     0.40891  0.40891  0.00000  0.18219

   Total alpha = 36.00000, Total beta = 36.00000, Total charge = -0.00000
