  ==> Input File <==

--------------------------------------------------------------------------
set {
	reference rhf
	basis 6-31G*
}

set_num_threads( 4 )
memory 2 gb

molecule MOL {
0 1

H	 3.463771	 0.168298	 -0.756243
C	 2.752674	 -0.045734	 0.033351
C	 1.322923	 0.120767	 -0.479465
H	 2.934561	 -1.059086	 0.377456
H	 2.958358	 0.631174	 0.856809
C	 0.306652	 -0.176050	 0.621399
H	 1.144658	 -0.551717	 -1.312180
H	 1.166477	 1.131798	 -0.836680
N	 -1.068537	 -0.011044	 0.085269
H	 0.372515	 -1.192590	 0.973735
H	 0.391664	 0.520566	 1.441230
O	 -1.969804	 -0.028777	 0.865510
O	 -1.178573	 0.096196	 -1.098123

	symmetry c1
}
set optking {
	frozen_dihedral = ("
		12 9 6 3
	")
}

ee = optimize('scf')
oeprop('DIPOLE', 'QUADRUPOLE', 'MULLIKEN_CHARGES')
f=open( 'psi4out.xyz', 'w' )
f.write( "13  " )
f.write( str(ee) + "\n" )
f.write( MOL.save_string_xyz() )
f.close()
--------------------------------------------------------------------------

    Molecular point group: c1
  Charge       = 0
  Multiplicity = 1
  Basis Set: 6-31G*
  Basis Set:
  @DF-RHF Final Energy:  -321.73302533783976
    Total Energy =                       -321.7330253378397629
    Molecular point group: c1
  Basis Set: 6-31G*
  Basis Set:
  Basis Set: 6-31G*
  Basis Set:
  @DF-RHF Final Energy:  -321.73401948422600
    Total Energy =                       -321.7340194842261667
  Basis Set: 6-31G*
  Basis Set:
  Basis Set: 6-31G*
  Basis Set:
  @DF-RHF Final Energy:  -321.73489158173084
    Total Energy =                       -321.7348915817310058
  Basis Set: 6-31G*
  Basis Set:
  Basis Set: 6-31G*
  Basis Set:
  @DF-RHF Final Energy:  -321.73465490775345
    Total Energy =                       -321.7346549077533950
  Basis Set: 6-31G*
  Basis Set:
  @DF-RHF Final Energy:  -321.73476224933233
    Total Energy =                       -321.7347622493324479
  Basis Set: 6-31G*
  Basis Set:
  @DF-RHF Final Energy:  -321.73498049225566
    Total Energy =                       -321.7349804922557723
  Basis Set: 6-31G*
  Basis Set:
  Basis Set: 6-31G*
  Basis Set:
  @DF-RHF Final Energy:  -321.73493700523778
    Total Energy =                       -321.7349370052374979
  Basis Set: 6-31G*
  Basis Set:
  Basis Set: 6-31G*
  Basis Set:
  @DF-RHF Final Energy:  -321.73500984859243
    Total Energy =                       -321.7350098485923695
  Basis Set: 6-31G*
  Basis Set:
  Charge       = 0
  Multiplicity = 1
  Basis Set: 6-31G*
  Basis Set:

    Orbital Energies (a.u.)
    -----------------------

    Doubly Occupied:

       1A    -20.604358     2A    -20.598286     3A    -15.848928
       4A    -11.301196     5A    -11.249831     6A    -11.237537
       7A     -1.632060     8A     -1.417378     9A     -1.132927
      10A     -1.027305    11A     -0.884791    12A     -0.825545
      13A     -0.760039    14A     -0.749680    15A     -0.725774
      16A     -0.656324    17A     -0.607664    18A     -0.576475
      19A     -0.553648    20A     -0.522856    21A     -0.509995
      22A     -0.485550    23A     -0.473008    24A     -0.448756

  @DF-RHF Final Energy:  -321.73500988673021

   => Energetics <=

    Nuclear Repulsion Energy =            247.0400369264301048
    One-Electron Energy =                -927.8902691637223370
    Two-Electron Energy =                 359.1152223505619077
    DFT Exchange-Correlation Energy =       0.0000000000000000
    Empirical Dispersion Energy =           0.0000000000000000
    PCM Polarization Energy =               0.0000000000000000
    EFP Energy =                            0.0000000000000000
    Total Energy =                       -321.7350098867302677
    Molecular point group: c1
  Basis Set: 6-31G*
  Basis Set:

  -Total Gradient:
     Atom            X                  Y                   Z
    ------   -----------------  -----------------  -----------------
       1       -0.000000191932     0.000004733353     0.000001004775
       2        0.000003385510     0.000022744768     0.000009601662
       3       -0.000009201766    -0.000144641424    -0.000044308932
       4       -0.000006431391     0.000001170213    -0.000007306335
       5        0.000005024774    -0.000002905230     0.000005918308
       6       -0.000009222244     0.000104166211     0.000045805077
       7       -0.000000971573    -0.000003063029     0.000007563777
       8       -0.000003995249     0.000004436661     0.000000972219
       9        0.000019192653     0.000144682579     0.000012190335
      10        0.000000844853    -0.000001260805    -0.000020795877
      11        0.000003809155     0.000001385982     0.000009319212
      12       -0.000003680166    -0.000128651266    -0.000015479381
      13        0.000001437384    -0.000002798012    -0.000004484839

  **** Optimization is complete! (in 9 steps) ****
    Final optimized geometry and variables:
    Molecular point group: c1

    Geometry (in Angstrom), charge = 0, multiplicity = 1:

    H            3.514110697858     0.165644366607    -0.728124745584
    C            2.776579847348    -0.037788699879     0.039668324833
    C            1.363987331052     0.121838781112    -0.525157739645
    H            2.948352866672    -1.046691730735     0.402838034399
    H            2.957851115997     0.648124712740     0.861690847534
    C            0.327857683135    -0.161945505819     0.548111505370
    H            1.215523531872    -0.551315699159    -1.359559584580
    H            1.225430771775     1.127674904840    -0.904111414966
    N           -1.080123597000    -0.004867770512     0.081282283505
    H            0.378129164272    -1.179864291147     0.911888978670
    H            0.410076395958     0.498751510941     1.398418657815
    O           -1.917745501040    -0.035421590051     0.930242327921
    O           -1.286054330505     0.119399993868    -1.085120929204

  Mulliken Charges: (a.u.)
   Center  Symbol    Alpha    Beta     Spin     Total
       1     H     0.40757  0.40757  0.00000  0.18486
       2     C     3.25017  3.25017  0.00000 -0.50034
       3     C     3.16501  3.16501  0.00000 -0.33001
       4     H     0.41650  0.41650  0.00000  0.16699
       5     H     0.41635  0.41635  0.00000  0.16730
       6     C     3.08860  3.08860  0.00000 -0.17721
       7     H     0.39954  0.39954  0.00000  0.20093
       8     H     0.40337  0.40337  0.00000  0.19326
       9     N     3.22478  3.22478  0.00000  0.55045
      10     H     0.38528  0.38528  0.00000  0.22944
      11     H     0.38585  0.38585  0.00000  0.22829
      12     O     4.22923  4.22923  0.00000 -0.45846
      13     O     4.22775  4.22775  0.00000 -0.45550

   Total alpha = 24.00000, Total beta = 24.00000, Total charge = -0.00000
