                              Psi4 1.0.54 Driver

  ==> Input File <==

--------------------------------------------------------------------------
set {
	reference rhf
	basis cc-pvtz
}

set_num_threads( 4 )
memory 2 gb

molecule MOL {
0 1

H	 3.694297	 -0.673900	 3.242602
C	 3.073499	 -1.059242	 2.442459
C	 1.792235	 -0.244905	 2.301500
H	 3.658090	 -1.030638	 1.528964
H	 2.858288	 -2.099304	 2.663761
C	 0.888791	 -0.753025	 1.187691
H	 2.030733	 0.794959	 2.107675
H	 1.246686	 -0.266804	 3.241964
N	 -0.305983	 0.053814	 1.064149
H	 1.423912	 -0.708462	 0.243854
H	 0.658002	 -1.808316	 1.361417
C	 -1.215959	 -0.382435	 0.027143
H	 -0.783760	 0.084875	 1.940552
C	 -2.451944	 0.502410	 -0.038737
H	 -0.691090	 -0.336063	 -0.922351
H	 -1.522898	 -1.424315	 0.158871
C	 -3.752217	 -0.292550	 0.005776
H	 -2.407325	 1.093801	 -0.946480
H	 -2.431979	 1.206234	 0.790023
H	 -3.817783	 -0.982946	 -0.828547
H	 -4.612613	 0.364348	 -0.042306
H	 -3.830160	 -0.871666	 0.919868

	symmetry c1
}
set optking {
	frozen_dihedral = ("
		15 12 14 18
	")
}

ee,wfn = optimize('scf', return_wfn=True)
oeprop( wfn, 'DIPOLE', 'QUADRUPOLE', 'MULLIKEN_CHARGES')
f=open( 'psi4out.xyz', 'w' )
f.write( "22  " )
f.write( str(ee) + "\n" )
f.write( MOL.save_string_xyz() )
f.close()
--------------------------------------------------------------------------

    Molecular point group: c1
  Charge       = 0
  Multiplicity = 1
  Basis Set: CC-PVTZ
  Basis Set:
  @DF-RHF Final Energy:  -290.48385810749909
    Total Energy =                       -290.4838581074986905
    Molecular point group: c1
  Basis Set: CC-PVTZ
  Basis Set:
  Basis Set: CC-PVTZ
  Basis Set:
  @DF-RHF Final Energy:  -290.48419245283731
    Total Energy =                       -290.4841924528373056
  Basis Set: CC-PVTZ
  Basis Set:
  Basis Set: CC-PVTZ
  Basis Set:
  @DF-RHF Final Energy:  -290.48428780568889
    Total Energy =                       -290.4842878056886093
  Basis Set: CC-PVTZ
  Basis Set:
  Basis Set: CC-PVTZ
  Basis Set:
  @DF-RHF Final Energy:  -290.48428915445174
    Total Energy =                       -290.4842891544515737
  Basis Set: CC-PVTZ
  Basis Set:
  Charge       = 0
  Multiplicity = 1
  Basis Set: CC-PVTZ
  Basis Set:

    Orbital Energies (a.u.)
    -----------------------

    Doubly Occupied:

       1A    -15.528450     2A    -11.236450     3A    -11.235846
       4A    -11.211824     5A    -11.211717     6A    -11.207747
       7A    -11.207538     8A     -1.206794     9A     -1.058640
      10A     -1.025896    11A     -0.928279    12A     -0.870313
      13A     -0.811065    14A     -0.794486    15A     -0.667977
      16A     -0.631164    17A     -0.618817    18A     -0.600982
      19A     -0.576363    20A     -0.563643    21A     -0.543286
      22A     -0.527997    23A     -0.507451    24A     -0.488096
      25A     -0.481408    26A     -0.472310    27A     -0.464839
      28A     -0.451352    29A     -0.360711

  @DF-RHF Final Energy:  -290.48428931411104

   => Energetics <=

    Nuclear Repulsion Energy =            314.0720669167848200
    One-Electron Energy =               -1014.1298290215181623
    Two-Electron Energy =                 409.5734727906226453
    DFT Exchange-Correlation Energy =       0.0000000000000000
    Empirical Dispersion Energy =           0.0000000000000000
    PCM Polarization Energy =               0.0000000000000000
    EFP Energy =                            0.0000000000000000
    Total Energy =                       -290.4842893141106970
    Molecular point group: c1
  Basis Set: CC-PVTZ
  Basis Set:

  -Total Gradient:
     Atom            X                  Y                   Z
    ------   -----------------  -----------------  -----------------
       1       -0.000002545534     0.000001413613    -0.000001207795
       2       -0.000002393936     0.000001862662    -0.000003130769
       3        0.000004523032    -0.000004672158     0.000002933533
       4        0.000001115354    -0.000000485388    -0.000000502101
       5       -0.000001026780     0.000000866843     0.000000089177
       6       -0.000003724818     0.000009250947     0.000007866095
       7        0.000001739332     0.000001381240     0.000001090899
       8       -0.000000495097     0.000000305781     0.000001664765
       9       -0.000012624142    -0.000026247485    -0.000021985712
      10        0.000001405712    -0.000001019651    -0.000001668699
      11        0.000001903998    -0.000003675715    -0.000000018074
      12       -0.001600162509    -0.002334885441    -0.001114895936
      13       -0.000000231119    -0.000001746002    -0.000013262426
      14        0.001490737693     0.002219870231     0.001451850155
      15        0.001109392826     0.001615499176     0.000712385651
      16        0.000001014671     0.000014542247     0.000003570649
      17        0.000007018666     0.000010928818     0.000010809389
      18       -0.000999944682    -0.001505924147    -0.001031800488
      19       -0.000001260869    -0.000004179490     0.000002853188
      20        0.000011006686    -0.000001288476     0.000003129090
      21       -0.000002734252     0.000001770454    -0.000004010515
      22       -0.000002714231     0.000006431942    -0.000005760077

  **** Optimization is complete! (in 5 steps) ****
    Final optimized geometry and variables:
    Molecular point group: c1

    Geometry (in Angstrom), charge = 0, multiplicity = 1:

    H            3.994828057580    -0.343083612494     2.231590660521
    C            3.371812502396    -0.729885062036     1.433852868935
    C            2.087071314055     0.080000156648     1.299495331165
    H            3.952111444611    -0.698304070753     0.517726467076
    H            3.161182149263    -1.770891792348     1.655120152751
    C            1.180929548340    -0.429572051125     0.188417454513
    H            2.321173317202     1.120965289797     1.106295610239
    H            1.545543746324     0.054508080288     2.242198884424
    N           -0.015437811066     0.375029080449     0.068864183800
    H            1.713073704027    -0.383793617394    -0.757169918443
    H            0.952918888659    -1.485538338489     0.362329373931
    C           -0.931156723199    -0.072223358221    -0.962828991805
    H           -0.489086745714     0.405538902260     0.947777306705
    C           -2.179431315055     0.823671035482    -1.040806273996
    H           -0.391181588584    -0.036019250327    -1.902137454626
    H           -1.230771388221    -1.112152390137    -0.813992894721
    C           -3.489722313082     0.040737395005    -1.028422711856
    H           -2.142944210344     1.420942161962    -1.944610504121
    H           -2.164763623094     1.521539728524    -0.211913093793
    H           -3.543481940429    -0.648424917692    -1.864742886318
    H           -4.343501475226     0.705494099066    -1.094209922837
    H           -3.590957595423    -0.541068565461    -0.117853075838

  Mulliken Charges: (a.u.)
   Center  Symbol    Alpha    Beta     Spin     Total
       1     H     0.44772  0.44772  0.00000  0.10456
       2     C     3.15358  3.15358  0.00000 -0.30717
       3     C     3.08032  3.08032  0.00000 -0.16063
       4     H     0.45473  0.45473  0.00000  0.09054
       5     H     0.45614  0.45614  0.00000  0.08771
       6     C     3.02055  3.02055  0.00000 -0.04110
       7     H     0.44904  0.44904  0.00000  0.10192
       8     H     0.45976  0.45976  0.00000  0.08049
       9     N     3.63751  3.63751  0.00000 -0.27502
      10     H     0.45933  0.45933  0.00000  0.08133
      11     H     0.47535  0.47535  0.00000  0.04929
      12     C     3.03359  3.03359  0.00000 -0.06719
      13     H     0.44507  0.44507  0.00000  0.10986
      14     C     3.08908  3.08908  0.00000 -0.17817
      15     H     0.45680  0.45680  0.00000  0.08640
      16     H     0.47047  0.47047  0.00000  0.05905
      17     C     3.14953  3.14953  0.00000 -0.29906
      18     H     0.44972  0.44972  0.00000  0.10056
      19     H     0.45065  0.45065  0.00000  0.09869
      20     H     0.45512  0.45512  0.00000  0.08975
      21     H     0.44910  0.44910  0.00000  0.10179
      22     H     0.45681  0.45681  0.00000  0.08638

   Total alpha = 29.00000, Total beta = 29.00000, Total charge = -0.00000

*** Psi4 exiting successfully. Buy a developer a beer!
