                              Psi4 1.0.54 Driver

  ==> Input File <==

--------------------------------------------------------------------------
set {
	reference rhf
	basis cc-pvtz
}

set_num_threads( 4 )
memory 2 gb

molecule MOL {
0 1

H	 3.721907	 -0.933076	 -0.066039
O	 2.824271	 -1.154299	 0.131461
C	 2.076458	 -0.067370	 -0.038225
C	 0.626018	 -0.337582	 0.258241
O	 2.538288	 0.965419	 -0.381593
C	 -0.267326	 0.883135	 0.076490
H	 0.325620	 -1.161483	 -0.378003
H	 0.574537	 -0.713685	 1.275261
C	 -1.726822	 0.642622	 0.463839
H	 -0.210803	 1.217591	 -0.953497
H	 0.129920	 1.693110	 0.675679
C	 -2.744379	 0.915850	 -0.642490
H	 -1.959145	 1.280374	 1.311514
H	 -1.844693	 -0.379961	 0.815801
C	 -4.185757	 0.760925	 -0.168251
H	 -2.596529	 1.923511	 -1.021693
H	 -2.576373	 0.246244	 -1.479961
H	 -4.886607	 0.961981	 -0.970166
H	 -4.406039	 1.445748	 0.643655
H	 -4.373385	 -0.245825	 0.190087

	symmetry c1
}
set optking {
	frozen_dihedral = ("
		12 9 6 10
	")
}

ee,wfn = optimize('scf', return_wfn=True)
oeprop( wfn, 'DIPOLE', 'QUADRUPOLE', 'MULLIKEN_CHARGES')
f=open( 'psi4out.xyz', 'w' )
f.write( "20  " )
f.write( str(ee) + "\n" )
f.write( MOL.save_string_xyz() )
f.close()
--------------------------------------------------------------------------

    Molecular point group: c1
  Charge       = 0
  Multiplicity = 1
  Basis Set: CC-PVTZ
  Basis Set:
  @DF-RHF Final Energy:  -384.09060196274953
    Total Energy =                       -384.0906019627490764
    Molecular point group: c1
  Basis Set: CC-PVTZ
  Basis Set:
  Basis Set: CC-PVTZ
  Basis Set:
  @DF-RHF Final Energy:  -384.09103057425671
    Total Energy =                       -384.0910305742565356
  Basis Set: CC-PVTZ
  Basis Set:
  Basis Set: CC-PVTZ
  Basis Set:
  @DF-RHF Final Energy:  -384.09118206592143
    Total Energy =                       -384.0911820659214868
  Basis Set: CC-PVTZ
  Basis Set:
  Basis Set: CC-PVTZ
  Basis Set:
  @DF-RHF Final Energy:  -384.09088397667659
    Total Energy =                       -384.0908839766766505
  Basis Set: CC-PVTZ
  Basis Set:
  Basis Set: CC-PVTZ
  Basis Set:
  @DF-RHF Final Energy:  -384.09121407652117
    Total Energy =                       -384.0912140765211689
  Basis Set: CC-PVTZ
  Basis Set:
  Basis Set: CC-PVTZ
  Basis Set:
  @DF-RHF Final Energy:  -384.09121539011284
    Total Energy =                       -384.0912153901131205
  Basis Set: CC-PVTZ
  Basis Set:
  Charge       = 0
  Multiplicity = 1
  Basis Set: CC-PVTZ
  Basis Set:

    Orbital Energies (a.u.)
    -----------------------

    Doubly Occupied:

       1A    -20.603965     2A    -20.540640     3A    -11.373289
       4A    -11.239641     5A    -11.220487     6A    -11.218144
       7A    -11.217392     8A    -11.209402     9A     -1.477580
      10A     -1.369111    11A     -1.095293    12A     -1.043733
      13A     -0.959463    14A     -0.870463    15A     -0.808013
      16A     -0.789870    17A     -0.703792    18A     -0.691565
      19A     -0.667039    20A     -0.636588    21A     -0.602961
      22A     -0.595905    23A     -0.571310    24A     -0.560458
      25A     -0.543711    26A     -0.504860    27A     -0.497204
      28A     -0.484415    29A     -0.473406    30A     -0.468043
      31A     -0.458308    32A     -0.443963

  @DF-RHF Final Energy:  -384.09121603561454

   => Energetics <=

    Nuclear Repulsion Energy =            373.1739348556546361
    One-Electron Energy =               -1262.6502757627531537
    Two-Electron Energy =                 505.3851248714836970
    DFT Exchange-Correlation Energy =       0.0000000000000000
    Empirical Dispersion Energy =           0.0000000000000000
    PCM Polarization Energy =               0.0000000000000000
    EFP Energy =                            0.0000000000000000
    Total Energy =                       -384.0912160356148775
    Molecular point group: c1
  Basis Set: CC-PVTZ
  Basis Set:

  -Total Gradient:
     Atom            X                  Y                   Z
    ------   -----------------  -----------------  -----------------
       1       -0.000132449606     0.000022429911     0.000025137923
       2        0.000010948398     0.000009832364    -0.000007405338
       3        0.000157563155     0.000074585760    -0.000060421811
       4        0.000061381796    -0.000007789464    -0.000039303435
       5       -0.000094514156    -0.000096426549     0.000060648412
       6        0.000076662401    -0.000750230928    -0.000259873739
       7       -0.000009752212    -0.000002719940     0.000005019111
       8       -0.000000512415     0.000004925943     0.000009314654
       9       -0.000064828563     0.000639591806     0.000220546246
      10       -0.000030682957     0.000517465123     0.000176519242
      11        0.000016352541    -0.000001621448    -0.000008057503
      12        0.000012629379    -0.000424925618    -0.000136875314
      13       -0.000007324092    -0.000010776947     0.000005664935
      14       -0.000010694599     0.000001650055    -0.000010157234
      15       -0.000003084365     0.000024212055     0.000009736830
      16        0.000022808561     0.000014042356    -0.000004259837
      17        0.000006245201    -0.000013583233     0.000002268547
      18        0.000003476364     0.000004488393     0.000003880797
      19       -0.000013005838     0.000005585205     0.000008405561
      20       -0.000001218992    -0.000010734847    -0.000000788048

  **** Optimization is complete! (in 7 steps) ****
    Final optimized geometry and variables:
    Molecular point group: c1

    Geometry (in Angstrom), charge = 0, multiplicity = 1:

    H            3.719548214595    -1.359214276991    -0.142017482009
    O            2.826412998081    -1.538227807328     0.110614510539
    C            2.115746807709    -0.424134719762    -0.040415152358
    C            0.674689946928    -0.625853689459     0.342830059187
    O            2.598546034121     0.581739209174    -0.431676480835
    C           -0.183140843367     0.622685719315     0.187344547179
    H            0.294314997960    -1.442758705253    -0.262071946512
    H            0.663829933937    -0.986560527494     1.366183669586
    C           -1.656663675410     0.387734471725     0.577360370259
    H           -0.119321816465     0.966460122820    -0.837591774229
    H            0.244179621791     1.416259710353     0.786460815446
    C           -2.640593792364     0.690354988255    -0.550761085983
    H           -1.909908460201     0.996795730188     1.438892688852
    H           -1.798475607815    -0.642377336833     0.892643115077
    C           -4.094863955175     0.460667399217    -0.155694689147
    H           -2.510800422225     1.720416692844    -0.870605067352
    H           -2.397235542351     0.072840298657    -1.411471900517
    H           -4.764830729997     0.684187477491    -0.977819102026
    H           -4.377028268068     1.090697630724     0.681326163254
    H           -4.263382225364    -0.570473040669     0.137192232527

  Mulliken Charges: (a.u.)
   Center  Symbol    Alpha    Beta     Spin     Total
       1     H     0.38240  0.38240  0.00000  0.23520
       2     O     4.16009  4.16009  0.00000 -0.32018
       3     C     2.80708  2.80708  0.00000  0.38584
       4     C     3.10962  3.10962  0.00000 -0.21924
       5     O     4.19113  4.19113  0.00000 -0.38225
       6     C     3.09311  3.09311  0.00000 -0.18623
       7     H     0.43740  0.43740  0.00000  0.12521
       8     H     0.43634  0.43634  0.00000  0.12731
       9     C     3.09517  3.09517  0.00000 -0.19035
      10     H     0.44542  0.44542  0.00000  0.10916
      11     H     0.44101  0.44101  0.00000  0.11799
      12     C     3.08285  3.08285  0.00000 -0.16569
      13     H     0.44790  0.44790  0.00000  0.10419
      14     H     0.45635  0.45635  0.00000  0.08731
      15     C     3.15054  3.15054  0.00000 -0.30108
      16     H     0.45139  0.45139  0.00000  0.09721
      17     H     0.45451  0.45451  0.00000  0.09098
      18     H     0.44776  0.44776  0.00000  0.10447
      19     H     0.45462  0.45462  0.00000  0.09075
      20     H     0.45531  0.45531  0.00000  0.08939

   Total alpha = 32.00000, Total beta = 32.00000, Total charge =  0.00000

*** Psi4 exiting successfully. Buy a developer a beer!
