  ==> Input File <==

--------------------------------------------------------------------------
set {
	reference rhf
	basis 6-31G*
}

set_num_threads( 4 )
memory 2 gb

molecule MOL {
0 1

H	 -3.407059	 -1.043082	 0.000000
O	 -3.119761	 -0.140267	 0.000000
C	 -1.777559	 -0.059267	 0.000000
C	 -1.072922	 0.573234	 -1.020015
C	 -1.103122	 -0.636630	 1.068575
H	 -1.603344	 1.018181	 -1.844627
C	 0.304129	 0.625828	 -0.967267
H	 -1.668916	 -1.118708	 1.843010
C	 0.274285	 -0.575816	 1.107148
H	 0.860531	 1.110600	 -1.747339
C	 0.994191	 0.052517	 0.095932
H	 0.797416	 -1.023080	 1.935007
C	 2.468208	 0.109699	 0.150864
O	 3.158945	 0.626967	 -0.671373
H	 2.916643	 -0.370084	 1.027152

	symmetry c1
}
set optking {
	frozen_dihedral = ("
		5 3 2 1
	")
}

ee = optimize('scf')
oeprop('DIPOLE', 'QUADRUPOLE', 'MULLIKEN_CHARGES')
f=open( 'psi4out.xyz', 'w' )
f.write( "15  " )
f.write( str(ee) + "\n" )
f.write( MOL.save_string_xyz() )
f.close()
--------------------------------------------------------------------------

    Molecular point group: c1
  Charge       = 0
  Multiplicity = 1
  Basis Set: 6-31G*
  Basis Set:
  @DF-RHF Final Energy:  -418.28391295641632
    Total Energy =                       -418.2839129564160885
    Molecular point group: c1
  Basis Set: 6-31G*
  Basis Set:
  Basis Set: 6-31G*
  Basis Set:
  @DF-RHF Final Energy:  -418.28538708995728
    Total Energy =                       -418.2853870899571120
  Basis Set: 6-31G*
  Basis Set:
  Basis Set: 6-31G*
  Basis Set:
  @DF-RHF Final Energy:  -418.28537821741577
    Total Energy =                       -418.2853782174158823
  Basis Set: 6-31G*
  Basis Set:
  Basis Set: 6-31G*
  Basis Set:
  @DF-RHF Final Energy:  -418.28499203828659
    Total Energy =                       -418.2849920382858500
  Basis Set: 6-31G*
  Basis Set:
  Basis Set: 6-31G*
  Basis Set:
  @DF-RHF Final Energy:  -418.28549910320646
    Total Energy =                       -418.2854991032062344
  Basis Set: 6-31G*
  Basis Set:
  Charge       = 0
  Multiplicity = 1
  Basis Set: 6-31G*
  Basis Set:

    Orbital Energies (a.u.)
    -----------------------

    Doubly Occupied:

       1A    -20.597743     2A    -20.559593     3A    -11.330559
       4A    -11.315680     5A    -11.261276     6A    -11.253208
       7A    -11.244555     8A    -11.243427     9A    -11.239942
      10A     -1.415883    11A     -1.400663    12A     -1.170635
      13A     -1.041766    14A     -1.036706    15A     -0.889554
      16A     -0.856330    17A     -0.799350    18A     -0.752351
      19A     -0.700407    20A     -0.678513    21A     -0.643252
      22A     -0.629044    23A     -0.618064    24A     -0.607045
      25A     -0.561136    26A     -0.552692    27A     -0.540941
      28A     -0.499880    29A     -0.483205    30A     -0.421119
      31A     -0.355359    32A     -0.337059

  @DF-RHF Final Energy:  -418.28550098130660

   => Energetics <=

    Nuclear Repulsion Energy =            400.9021211135950011
    One-Electron Energy =               -1364.3013722098303333
    Two-Electron Energy =                 545.1137501149286209
    DFT Exchange-Correlation Energy =       0.0000000000000000
    Empirical Dispersion Energy =           0.0000000000000000
    PCM Polarization Energy =               0.0000000000000000
    EFP Energy =                            0.0000000000000000
    Total Energy =                       -418.2855009813066545
    Molecular point group: c1
  Basis Set: 6-31G*
  Basis Set:

  -Total Gradient:
     Atom            X                  Y                   Z
    ------   -----------------  -----------------  -----------------
       1        0.000096400950    -0.000095275284    -0.002849152158
       2       -0.000184746201     0.001075358498     0.004074535353
       3        0.000177085802    -0.002688622073    -0.002443627282
       4       -0.000255907518    -0.000088487898     0.000100396037
       5        0.000150947602     0.001829629884     0.001108340799
       6        0.000004830780     0.000005250120     0.000001044553
       7        0.000244768710    -0.000094111363     0.000125598952
       8        0.000000380200     0.000006292585    -0.000003732954
       9       -0.000200365972    -0.000125687056     0.000075453327
      10       -0.000021065650     0.000009226895    -0.000004323807
      11       -0.000015322232     0.000148605428    -0.000227270370
      12        0.000017469688     0.000017729787     0.000000793984
      13        0.000022879829     0.000032507219     0.000070805268
      14       -0.000025349397    -0.000014434462    -0.000022094755
      15       -0.000012006587    -0.000017982283    -0.000006766946

  **** Optimization is complete! (in 6 steps) ****
    Final optimized geometry and variables:
    Molecular point group: c1

    Geometry (in Angstrom), charge = 0, multiplicity = 1:

    H           -3.458745992014    -1.049036790564     0.006071636398
    O           -3.126664672186    -0.161282136484    -0.008566556561
    C           -1.767112880124    -0.153320715480     0.040339191505
    C           -1.074162915805     0.492868343486    -0.975958887643
    C           -1.089071352683    -0.712496501730     1.112457533304
    H           -1.628244331742     0.928994164748    -1.785758049830
    C            0.301852550883     0.562969042652    -0.924445221901
    H           -1.641915535029    -1.183266187645     1.905239587393
    C            0.292220606288    -0.646484027430     1.149546508356
    H            0.854315922734     1.056186662894    -1.701943279644
    C            0.997749640219    -0.011015964597     0.137104334982
    H            0.821547981002    -1.083491682755     1.978836431151
    C            2.474301474664     0.058007710410     0.191833694006
    O            3.158739051341     0.578558909622    -0.632445450051
    H            2.927323334075    -0.416357070125     1.068450345469

  Mulliken Charges: (a.u.)
   Center  Symbol    Alpha    Beta     Spin     Total
       1     H     0.26908  0.26908  0.00000  0.46184
       2     O     4.38156  4.38156  0.00000 -0.76312
       3     C     2.80365  2.80365  0.00000  0.39270
       4     C     3.12128  3.12128  0.00000 -0.24256
       5     C     3.13097  3.13097  0.00000 -0.26194
       6     H     0.38634  0.38634  0.00000  0.22732
       7     C     3.08347  3.08347  0.00000 -0.16695
       8     H     0.39302  0.39302  0.00000  0.21396
       9     C     3.09694  3.09694  0.00000 -0.19387
      10     H     0.37486  0.37486  0.00000  0.25028
      11     C     3.06218  3.06218  0.00000 -0.12436
      12     H     0.39007  0.39007  0.00000  0.21986
      13     C     2.83087  2.83087  0.00000  0.33826
      14     O     4.25158  4.25158  0.00000 -0.50316
      15     H     0.42413  0.42413  0.00000  0.15174

   Total alpha = 32.00000, Total beta = 32.00000, Total charge =  0.00000
