  ==> Input File <==

--------------------------------------------------------------------------
set {
	reference rhf
	basis 6-31G*
}

set_num_threads( 1 )
memory 2 gb

molecule MOL {
0 1

H	 -2.153054	 -2.250733	 0.000000
O	 -2.462445	 -1.355403	 0.000000
C	 -1.434260	 -0.483044	 0.000000
C	 -1.747402	 0.872187	 0.000000
C	 -0.112826	 -0.887672	 0.000000
H	 -2.781042	 1.162947	 0.000000
C	 -0.737782	 1.812486	 0.000000
H	 0.142965	 -1.932242	 0.000000
C	 0.894804	 0.073633	 0.000000
H	 -0.988012	 2.857452	 0.000000
C	 0.595063	 1.425424	 0.000000
C	 2.274807	 -0.357748	 0.000000
H	 1.382498	 2.154482	 0.000000
N	 3.359236	 -0.696734	 -0.002597

	symmetry c1
}
set optking {
	frozen_dihedral = ("
		5 3 2 1
	")
}

ee = energy('scf')
oeprop('DIPOLE', 'QUADRUPOLE', 'MULLIKEN_CHARGES')
f=open( 'psi4out.xyz', 'w' )
f.write( "14  " )
f.write( str(ee) + "\n" )
f.write( MOL.save_string_xyz() )
f.close()
--------------------------------------------------------------------------

    Molecular point group: c1

    Geometry (in Angstrom), charge = 0, multiplicity = 1:

       Center              X                  Y                   Z               Mass
    ------------   -----------------  -----------------  -----------------  -----------------
           H         -2.153144995898    -2.251024604051     0.000305501218     1.007825032070
           O         -2.462535995898    -1.355694604051     0.000305501218    15.994914619560
           C         -1.434350995898    -0.483335604051     0.000305501218    12.000000000000
           C         -1.747492995898     0.871895395949     0.000305501218    12.000000000000
           C         -0.112916995898    -0.887963604051     0.000305501218    12.000000000000
           H         -2.781132995898     1.162655395949     0.000305501218     1.007825032070
           C         -0.737872995898     1.812194395949     0.000305501218    12.000000000000
           H          0.142874004102    -1.932533604051     0.000305501218     1.007825032070
           C          0.894713004102     0.073341395949     0.000305501218    12.000000000000
           H         -0.988102995898     2.857160395949     0.000305501218     1.007825032070
           C          0.594972004102     1.425132395949     0.000305501218    12.000000000000
           C          2.274716004102    -0.358039604051     0.000305501218    12.000000000000
           H          1.382407004102     2.154190395949     0.000305501218     1.007825032070
           N          3.359145004102    -0.697025604051    -0.002291498782    14.003074004780

  Charge       = 0
  Multiplicity = 1
  Basis Set: 6-31G*
  Basis Set:

    Orbital Energies (a.u.)
    -----------------------

    Doubly Occupied:

       1A    -20.613357     2A    -15.576094     3A    -11.326475
       4A    -11.295199     5A    -11.277354     6A    -11.263923
       7A    -11.262493     8A    -11.259239     9A    -11.253928
      10A     -1.433723    11A     -1.233858    12A     -1.182278
      13A     -1.063260    14A     -1.039159    15A     -0.896236
      16A     -0.867779    17A     -0.778129    18A     -0.726550
      19A     -0.700217    20A     -0.664101    21A     -0.627031
      22A     -0.613997    23A     -0.592983    24A     -0.562274
      25A     -0.550734    26A     -0.538997    27A     -0.527030
      28A     -0.473335    29A     -0.473314    30A     -0.363599
      31A     -0.336671

  @DF-RHF Final Energy:  -397.29196293428231

   => Energetics <=

    Nuclear Repulsion Energy =            379.4043943358421984
    One-Electron Energy =               -1290.6460767115183899
    Two-Electron Energy =                 513.9497194413925172
    DFT Exchange-Correlation Energy =       0.0000000000000000
    Empirical Dispersion Energy =           0.0000000000000000
    PCM Polarization Energy =               0.0000000000000000
    EFP Energy =                            0.0000000000000000
    Total Energy =                       -397.2919629342836743

  Mulliken Charges: (a.u.)
   Center  Symbol    Alpha    Beta     Spin     Total
       1     H     0.26830  0.26830  0.00000  0.46340
       2     O     4.37595  4.37595  0.00000 -0.75191
       3     C     2.79153  2.79153  0.00000  0.41694
       4     C     3.11408  3.11408  0.00000 -0.22817
       5     C     3.13446  3.13446  0.00000 -0.26892
       6     H     0.38292  0.38292  0.00000  0.23416
       7     C     3.09574  3.09574  0.00000 -0.19149
       8     H     0.38534  0.38534  0.00000  0.22931
       9     C     2.99112  2.99112  0.00000  0.01775
      10     H     0.38856  0.38856  0.00000  0.22287
      11     C     3.09892  3.09892  0.00000 -0.19784
      12     C     2.86663  2.86663  0.00000  0.26674
      13     H     0.38126  0.38126  0.00000  0.23749
      14     N     3.72517  3.72517  0.00000 -0.45034

   Total alpha = 31.00000, Total beta = 31.00000, Total charge =  0.00000
