  ==> Input File <==

--------------------------------------------------------------------------
set {
	reference rhf
	basis 6-31G*
}

set_num_threads( 1 )
memory 2 gb

molecule MOL {
0 1

O	 -0.879349	 -1.332730	 -1.941718
C	 -1.639335	 -1.270270	 -1.028956
C	 -2.886227	 -2.109120	 -0.915553
O	 -1.481751	 -0.454642	 0.000584
H	 -2.605160	 -3.155205	 -0.939403
H	 -3.433875	 -1.896526	 -0.009283
H	 -3.513383	 -1.918560	 -1.778247
C	 -0.334255	 0.388708	 0.000906
C	 0.891947	 -0.504646	 0.000751
H	 -0.365390	 1.025305	 -0.873475
H	 -0.365484	 1.024911	 0.875569
C	 2.191998	 0.301789	 0.000897
H	 0.855148	 -1.151283	 -0.871571
H	 0.855132	 -1.151660	 0.872805
C	 3.441114	 -0.581407	 0.000108
H	 2.215074	 0.954890	 -0.869742
H	 2.215465	 0.953923	 0.872248
C	 4.739576	 0.224112	 -0.001102
H	 3.419457	 -1.233487	 -0.870178
H	 3.420834	 -1.233096	 0.870717
H	 4.804918	 0.861552	 -0.878265
H	 5.606527	 -0.429058	 -0.001824
H	 4.806469	 0.861674	 0.875853

	symmetry c1
}
set optking {
	frozen_dihedral = ("
		13 9 8 10,
		16 12 9 13,
		19 15 12 16,
		1 2 4 8
	")
}

ee = energy('scf')
oeprop('DIPOLE', 'QUADRUPOLE', 'MULLIKEN_CHARGES')
f=open( 'psi4out.xyz', 'w' )
f.write( "23  " )
f.write( str(ee) + "\n" )
f.write( MOL.save_string_xyz() )
f.close()
--------------------------------------------------------------------------

    Molecular point group: c1

    Geometry (in Angstrom), charge = 0, multiplicity = 1:

       Center              X                  Y                   Z               Mass
    ------------   -----------------  -----------------  -----------------  -----------------
           O         -1.318614324756    -0.735215632681    -1.502747588703    15.994914619560
           C         -2.078600324756    -0.672755632681    -0.589985588703    12.000000000000
           C         -3.325492324756    -1.511605632681    -0.476582588703    12.000000000000
           O         -1.921016324756     0.142872367319     0.439554411297    15.994914619560
           H         -3.044425324756    -2.557690632681    -0.500432588703     1.007825032070
           H         -3.873140324756    -1.299011632681     0.429687411297     1.007825032070
           H         -3.952648324756    -1.321045632681    -1.339276588703     1.007825032070
           C         -0.773520324756     0.986222367319     0.439876411297    12.000000000000
           C          0.452681675244     0.092868367319     0.439721411297    12.000000000000
           H         -0.804655324756     1.622819367319    -0.434504588703     1.007825032070
           H         -0.804749324756     1.622425367319     1.314539411297     1.007825032070
           C          1.752732675244     0.899303367319     0.439867411297    12.000000000000
           H          0.415882675244    -0.553768632681    -0.432600588703     1.007825032070
           H          0.415866675244    -0.554145632681     1.311775411297     1.007825032070
           C          3.001848675244     0.016107367319     0.439078411297    12.000000000000
           H          1.775808675244     1.552404367319    -0.430771588703     1.007825032070
           H          1.776199675244     1.551437367319     1.311218411297     1.007825032070
           C          4.300310675244     0.821626367319     0.437868411297    12.000000000000
           H          2.980191675244    -0.635972632681    -0.431207588703     1.007825032070
           H          2.981568675244    -0.635581632681     1.309687411297     1.007825032070
           H          4.365652675244     1.459066367319    -0.439294588703     1.007825032070
           H          5.167261675244     0.168456367319     0.437146411297     1.007825032070
           H          4.367203675244     1.459188367319     1.314823411297     1.007825032070

  Charge       = 0
  Multiplicity = 1
  Basis Set: 6-31G*
  Basis Set:

    Orbital Energies (a.u.)
    -----------------------

    Doubly Occupied:

       1A    -20.603928     2A    -20.541800     3A    -11.377641
       4A    -11.282563     5A    -11.233938     6A    -11.215552
       7A    -11.214684     8A    -11.207781     9A    -11.207554
      10A     -1.471504    11A     -1.364030    12A     -1.086414
      13A     -1.040010    14A     -0.999269    15A     -0.929102
      16A     -0.849796    17A     -0.795058    18A     -0.762936
      19A     -0.703671    20A     -0.682156    21A     -0.657299
      22A     -0.643180    23A     -0.603235    24A     -0.589352
      25A     -0.581307    26A     -0.569665    27A     -0.553797
      28A     -0.534033    29A     -0.520863    30A     -0.518599
      31A     -0.484619    32A     -0.473449    33A     -0.467688
      34A     -0.464256    35A     -0.435118    36A     -0.426588

  @DF-RHF Final Energy:  -422.96972532401838

   => Energetics <=

    Nuclear Repulsion Energy =            464.2460593388349821
    One-Electron Energy =               -1496.2472157338509078
    Two-Electron Energy =                 609.0314310710016343
    DFT Exchange-Correlation Energy =       0.0000000000000000
    Empirical Dispersion Energy =           0.0000000000000000
    PCM Polarization Energy =               0.0000000000000000
    EFP Energy =                            0.0000000000000000
    Total Energy =                       -422.9697253240142345

  Mulliken Charges: (a.u.)
   Center  Symbol    Alpha    Beta     Spin     Total
       1     O     4.28597  4.28597  0.00000 -0.57194
       2     C     2.61346  2.61346  0.00000  0.77307
       3     C     3.28778  3.28778  0.00000 -0.57556
       4     O     4.31153  4.31153  0.00000 -0.62306
       5     H     0.39778  0.39778  0.00000  0.20443
       6     H     0.39877  0.39877  0.00000  0.20247
       7     H     0.39710  0.39710  0.00000  0.20579
       8     C     3.00040  3.00040  0.00000 -0.00080
       9     C     3.18521  3.18521  0.00000 -0.37043
      10     H     0.40992  0.40992  0.00000  0.18016
      11     H     0.40741  0.40741  0.00000  0.18517
      12     C     3.15842  3.15842  0.00000 -0.31683
      13     H     0.38176  0.38176  0.00000  0.23649
      14     H     0.42065  0.42065  0.00000  0.15871
      15     C     3.15109  3.15109  0.00000 -0.30217
      16     H     0.42133  0.42133  0.00000  0.15734
      17     H     0.42671  0.42671  0.00000  0.14658
      18     C     3.23957  3.23957  0.00000 -0.47913
      19     H     0.41935  0.41935  0.00000  0.16130
      20     H     0.42309  0.42309  0.00000  0.15383
      21     H     0.42125  0.42125  0.00000  0.15750
      22     H     0.41902  0.41902  0.00000  0.16197
      23     H     0.42244  0.42244  0.00000  0.15512

   Total alpha = 36.00000, Total beta = 36.00000, Total charge =  0.00000
