                              Psi4 1.0.54 Driver

  ==> Input File <==

--------------------------------------------------------------------------
set {
	reference rhf
	basis cc-pvtz
}

set_num_threads( 4 )
memory 2 gb

molecule MOL {
0 1

O	 -1.278239	 1.034789	 -0.784693
C	 -1.204115	 0.062668	 -0.112312
C	 -2.386398	 -0.667698	 0.460323
O	 -0.068058	 -0.518372	 0.226882
H	 -2.382952	 -1.693172	 0.114333
H	 -3.296656	 -0.175702	 0.158400
H	 -2.312537	 -0.685191	 1.540100
C	 -0.097152	 -1.802620	 0.858277
C	 1.168435	 -1.896575	 1.686876
C	 -0.200326	 -2.892180	 -0.193778
H	 -0.964097	 -1.836678	 1.500410
H	 1.205998	 -1.100643	 2.419563
H	 1.200131	 -2.845008	 2.209543
H	 2.046593	 -1.822956	 1.056516
H	 -0.210156	 -3.865873	 0.281959
H	 -1.110736	 -2.787333	 -0.767198
H	 0.647216	 -2.850267	 -0.868463

	symmetry c1
}
set optking {
	frozen_dihedral = ("
		8 4 2 1
	")
}

ee,wfn = optimize('scf', return_wfn=True)
oeprop( wfn, 'DIPOLE', 'QUADRUPOLE', 'MULLIKEN_CHARGES')
f=open( 'psi4out.xyz', 'w' )
f.write( "17  " )
f.write( str(ee) + "\n" )
f.write( MOL.save_string_xyz() )
f.close()
--------------------------------------------------------------------------

    Molecular point group: c1
  Charge       = 0
  Multiplicity = 1
  Basis Set: CC-PVTZ
  Basis Set:
  @DF-RHF Final Energy:  -345.01492711042903
    Total Energy =                       -345.0149271104289141
    Molecular point group: c1
  Basis Set: CC-PVTZ
  Basis Set:
  Basis Set: CC-PVTZ
  Basis Set:
  @DF-RHF Final Energy:  -344.99663885300788
    Total Energy =                       -344.9966388530078802
  Basis Set: CC-PVTZ
  Basis Set:
  Basis Set: CC-PVTZ
  Basis Set:
  @DF-RHF Final Energy:  -345.02612785286624
    Total Energy =                       -345.0261278528658977
  Basis Set: CC-PVTZ
  Basis Set:
  Basis Set: CC-PVTZ
  Basis Set:
  @DF-RHF Final Energy:  -345.02699081963431
    Total Energy =                       -345.0269908196345341
  Basis Set: CC-PVTZ
  Basis Set:
  @DF-RHF Final Energy:  -345.02887112255706
    Total Energy =                       -345.0288711225572342
  @DF-RHF Final Energy:  -345.02898795196222
    Total Energy =                       -345.0289879519622787
  Basis Set: CC-PVTZ
  Basis Set:
  @DF-RHF Final Energy:  -345.02902473134191
    Total Energy =                       -345.0290247313419059
  Basis Set: CC-PVTZ
  Basis Set:
  Basis Set: CC-PVTZ
  Basis Set:
  @DF-RHF Final Energy:  -345.02903789696182
    Total Energy =                       -345.0290378969618814
  Basis Set: CC-PVTZ
  Basis Set:
  Basis Set: CC-PVTZ
  Basis Set:
  @DF-RHF Final Energy:  -345.02904170562681
    Total Energy =                       -345.0290417056269234
  Basis Set: CC-PVTZ
  Basis Set:
  Charge       = 0
  Multiplicity = 1
  Basis Set: CC-PVTZ
  Basis Set:

    Orbital Energies (a.u.)
    -----------------------

    Doubly Occupied:

       1A    -20.589290     2A    -20.524741     3A    -11.367461
       4A    -11.302492     5A    -11.239794     6A    -11.227141
       7A    -11.223666     8A     -1.463123     9A     -1.364749
      10A     -1.079340    11A     -1.017342    12A     -0.958014
      13A     -0.863245    14A     -0.775321    15A     -0.700856
      16A     -0.668614    17A     -0.664759    18A     -0.623622
      19A     -0.597171    20A     -0.585729    21A     -0.563266
      22A     -0.557352    23A     -0.546793    24A     -0.533294
      25A     -0.509977    26A     -0.492009    27A     -0.442587
      28A     -0.434086

  @DF-RHF Final Energy:  -345.02904222175982

   => Energetics <=

    Nuclear Repulsion Energy =            322.8102837241868883
    One-Electron Energy =               -1109.8469867529006478
    Two-Electron Energy =                 442.0076608069538224
    DFT Exchange-Correlation Energy =       0.0000000000000000
    Empirical Dispersion Energy =           0.0000000000000000
    PCM Polarization Energy =               0.0000000000000000
    EFP Energy =                            0.0000000000000000
    Total Energy =                       -345.0290422217599371
    Molecular point group: c1
  Basis Set: CC-PVTZ
  Basis Set:

  -Total Gradient:
     Atom            X                  Y                   Z
    ------   -----------------  -----------------  -----------------
       1       -0.000022946203    -0.000251992186    -0.000208803404
       2       -0.000068841803     0.000352549366     0.000151149053
       3        0.000017524999    -0.000051099627    -0.000055669020
       4       -0.000001747665     0.000113888534     0.000282191747
       5       -0.000019338756     0.000014200946     0.000004926966
       6        0.000006335734    -0.000002618227     0.000002015472
       7        0.000011763279     0.000022735326     0.000001058059
       8        0.000090952366    -0.000146057943    -0.000251510367
       9       -0.000015609940    -0.000016070046     0.000018029077
      10       -0.000040691387    -0.000009344005     0.000030108602
      11        0.000027503803    -0.000017897849     0.000016861651
      12        0.000001338780    -0.000003617865     0.000001741069
      13        0.000012958447    -0.000009292126     0.000016956776
      14       -0.000014775101    -0.000001099867    -0.000001448331
      15        0.000001264600    -0.000002026408    -0.000005164887
      16        0.000006700835    -0.000000551247     0.000000149366
      17        0.000007608010     0.000008293224    -0.000002591831

  **** Optimization is complete! (in 10 steps) ****
    Final optimized geometry and variables:
    Molecular point group: c1

    Geometry (in Angstrom), charge = 0, multiplicity = 1:

    O           -0.521410066556     1.745788292720    -1.445417658647
    C           -0.642072872493     0.894025691448    -0.637899531064
    C           -1.998615857342     0.406315221028    -0.186611469849
    O            0.443485406799     0.369328862262    -0.082552574998
    H           -2.115723156858    -0.657498576844    -0.343068931227
    H           -2.743046051995     0.936917765369    -0.755949577817
    H           -2.142463353481     0.608784774035     0.867607649861
    C            0.465496415585    -0.786513098341     0.743756536084
    C            1.600112408998    -0.586399841220     1.730630884653
    C            0.653970580829    -2.025018835508    -0.116587697489
    H           -0.462682378372    -0.861550826045     1.292783340643
    H            1.434486102565     0.302519650497     2.325214954226
    H            1.673724811737    -1.438547624779     2.395738037994
    H            2.540436057788    -0.474250564797     1.205857810660
    H            0.687848282729    -2.912626920504     0.504085699625
    H           -0.155877477446    -2.140889832542    -0.826490864957
    H            1.580680303383    -1.955646947288    -0.672387829869

  Mulliken Charges: (a.u.)
   Center  Symbol    Alpha    Beta     Spin     Total
       1     O     4.18428  4.18428  0.00000 -0.36856
       2     C     2.82155  2.82155  0.00000  0.35691
       3     C     3.16700  3.16700  0.00000 -0.33400
       4     O     4.13843  4.13843  0.00000 -0.27686
       5     H     0.44744  0.44744  0.00000  0.10513
       6     H     0.42609  0.42609  0.00000  0.14782
       7     H     0.44560  0.44560  0.00000  0.10879
       8     C     2.94927  2.94927  0.00000  0.10147
       9     C     3.13544  3.13544  0.00000 -0.27087
      10     C     3.14261  3.14261  0.00000 -0.28523
      11     H     0.45152  0.45152  0.00000  0.09695
      12     H     0.44551  0.44551  0.00000  0.10897
      13     H     0.45575  0.45575  0.00000  0.08850
      14     H     0.44690  0.44690  0.00000  0.10620
      15     H     0.44936  0.44936  0.00000  0.10128
      16     H     0.44899  0.44899  0.00000  0.10202
      17     H     0.44427  0.44427  0.00000  0.11147

   Total alpha = 28.00000, Total beta = 28.00000, Total charge = -0.00000

*** Psi4 exiting successfully. Buy a developer a beer!
