  ==> Input File <==

--------------------------------------------------------------------------
set {
	reference rhf
	basis cc-pvtz
}

set_num_threads( 4 )
memory 2 gb

molecule MOL {
0 1

H	 -3.110580	 1.070879	 1.913855
O	 -2.416789	 0.502246	 1.635457
C	 -2.302264	 0.528872	 0.237390
C	 -1.175688	 -0.398187	 -0.171891
H	 -3.232712	 0.208826	 -0.226949
H	 -2.094460	 1.539367	 -0.108366
C	 0.196029	 0.106276	 0.266738
H	 -1.201873	 -0.515469	 -1.250677
H	 -1.365975	 -1.378728	 0.252664
C	 1.330220	 -0.826136	 -0.155230
H	 0.359542	 1.097229	 -0.145561
H	 0.212134	 0.218135	 1.348778
C	 2.719700	 -0.407669	 0.328325
H	 1.339388	 -0.911200	 -1.239363
H	 1.119001	 -1.821953	 0.224128
C	 3.241564	 0.893452	 -0.276737
H	 3.418299	 -1.204729	 0.093035
H	 2.711776	 -0.323368	 1.411960
H	 3.254204	 0.841071	 -1.360784
H	 2.634460	 1.745075	 0.005842
H	 4.254264	 1.092401	 0.054971

	symmetry c1
}
set optking {
	frozen_dihedral = ("
		2 3 4 8
	")
}

ee = optimize('scf')
oeprop('DIPOLE', 'QUADRUPOLE', 'MULLIKEN_CHARGES')
f=open( 'psi4out.xyz', 'w' )
f.write( "21  " )
f.write( str(ee) + "\n" )
f.write( MOL.save_string_xyz() )
f.close()
--------------------------------------------------------------------------

    Molecular point group: c1
  Charge       = 0
  Multiplicity = 1
  Basis Set: CC-PVTZ
  Basis Set:
  @DF-RHF Final Energy:  -310.33284566814484
    Total Energy =                       -310.3328456681453531
    Molecular point group: c1
  Basis Set: CC-PVTZ
  Basis Set:
  Basis Set: CC-PVTZ
  Basis Set:
  @DF-RHF Final Energy:  -310.33294473964349
    Total Energy =                       -310.3329447396434944
  Basis Set: CC-PVTZ
  Basis Set:
  Basis Set: CC-PVTZ
  Basis Set:
  @DF-RHF Final Energy:  -310.33295731658694
    Total Energy =                       -310.3329573165869988
  Basis Set: CC-PVTZ
  Basis Set:
  Basis Set: CC-PVTZ
  Basis Set:
  @DF-RHF Final Energy:  -310.33295598862679
    Total Energy =                       -310.3329559886266793
  Basis Set: CC-PVTZ
  Basis Set:
  Basis Set: CC-PVTZ
  Basis Set:
  @DF-RHF Final Energy:  -310.33296070494555
    Total Energy =                       -310.3329607049453216
  Basis Set: CC-PVTZ
  Basis Set:
  Charge       = 0
  Multiplicity = 1
  Basis Set: CC-PVTZ
  Basis Set:

    Orbital Energies (a.u.)
    -----------------------

    Doubly Occupied:

       1A    -20.546134     2A    -11.265738     3A    -11.210167
       4A    -11.209407     5A    -11.207222     6A    -11.204753
       7A    -11.203040     8A     -1.363912     9A     -1.082718
      10A     -1.031573    11A     -0.954644    12A     -0.876187
      13A     -0.802745    14A     -0.773970    15A     -0.708129
      16A     -0.644004    17A     -0.625234    18A     -0.603972
      19A     -0.586005    20A     -0.569901    21A     -0.533989
      22A     -0.526596    23A     -0.504707    24A     -0.488556
      25A     -0.480026    26A     -0.458180    27A     -0.453791
      28A     -0.444287    29A     -0.428562

  @DF-RHF Final Energy:  -310.33296079619066

   => Energetics <=

    Nuclear Repulsion Energy =            316.9988425743707126
    One-Electron Energy =               -1049.0873029390290867
    Two-Electron Energy =                 421.7554995684678829
    DFT Exchange-Correlation Energy =       0.0000000000000000
    Empirical Dispersion Energy =           0.0000000000000000
    PCM Polarization Energy =               0.0000000000000000
    EFP Energy =                            0.0000000000000000
    Total Energy =                       -310.3329607961905481
    Molecular point group: c1
  Basis Set: CC-PVTZ
  Basis Set:

  -Total Gradient:
     Atom            X                  Y                   Z
    ------   -----------------  -----------------  -----------------
       1       -0.000008327135    -0.000001749225     0.000008363701
       2       -0.000429139844    -0.000500721402    -0.000060239153
       3        0.000450439093     0.000511116556     0.000088190204
       4        0.000499530108     0.000688671521    -0.000128830396
       5       -0.000010372155     0.000005277574     0.000008791750
       6       -0.000003091368    -0.000002329093     0.000002828416
       7       -0.000020652908    -0.000009033518    -0.000006127418
       8       -0.000501431051    -0.000692664249     0.000075750269
       9        0.000004995553     0.000005838043    -0.000000402391
      10        0.000009312427     0.000007542712    -0.000016443243
      11       -0.000007347430    -0.000012908490     0.000006357190
      12       -0.000002648902     0.000008048066     0.000021144174
      13        0.000004399045    -0.000003748564    -0.000000044439
      14        0.000001806954    -0.000003880698     0.000001326062
      15        0.000009577739     0.000005069043    -0.000000832923
      16        0.000000069138    -0.000001714033    -0.000003204335
      17        0.000003932007     0.000000349325     0.000003555958
      18       -0.000005016592     0.000001818528     0.000000184527
      19       -0.000002667070     0.000001432777    -0.000000943537
      20        0.000005963764    -0.000002365239     0.000002239006
      21        0.000000668629    -0.000004049634    -0.000001663422

  **** Optimization is complete! (in 6 steps) ****
    Final optimized geometry and variables:
    Molecular point group: c1

    Geometry (in Angstrom), charge = 0, multiplicity = 1:

    H           -3.289425319397     0.979436153810     1.633706142744
    O           -2.608987853200     0.397773901412     1.349776536392
    C           -2.489141396619     0.439263042443    -0.048892888727
    C           -1.344200847664    -0.460541639695    -0.472246345545
    H           -3.410583791541     0.098214062822    -0.514082207317
    H           -2.307314924883     1.457796130558    -0.386043303651
    C            0.029219918950     0.038584008645    -0.031952439648
    H           -1.373767881329    -0.560758902800    -1.554183770591
    H           -1.524864749676    -1.450263747345    -0.063856883787
    C            1.158039691257    -0.903633945456    -0.445314458743
    H            0.194902230649     1.025191889925    -0.454641233752
    H            0.033892504587     0.158235019707     1.045966998176
    C            2.548706816888    -0.490033172129     0.039265828236
    H            1.171627819756    -0.998975813314    -1.529191289657
    H            0.940595132752    -1.895054501138    -0.057555292226
    C            3.080815130056     0.802238643874    -0.575603554712
    H            3.243715871532    -1.293306819931    -0.185905230048
    H            2.536115566590    -0.395231815488     1.121739335366
    H            3.096163203175     0.740419638753    -1.659244844389
    H            2.478206568950     1.659773891374    -0.301821287066
    H            4.093967508419     0.997549286617    -0.242888070928

  Mulliken Charges: (a.u.)
   Center  Symbol    Alpha    Beta     Spin     Total
       1     H     0.39573  0.39573  0.00000  0.20854
       2     O     4.19903  4.19903  0.00000 -0.39806
       3     C     2.97305  2.97305  0.00000  0.05390
       4     C     3.09133  3.09133  0.00000 -0.18266
       5     H     0.46535  0.46535  0.00000  0.06931
       6     H     0.47413  0.47413  0.00000  0.05175
       7     C     3.09231  3.09231  0.00000 -0.18463
       8     H     0.45375  0.45375  0.00000  0.09250
       9     H     0.45150  0.45150  0.00000  0.09699
      10     C     3.09455  3.09455  0.00000 -0.18910
      11     H     0.45705  0.45705  0.00000  0.08590
      12     H     0.44457  0.44457  0.00000  0.11086
      13     C     3.08967  3.08967  0.00000 -0.17935
      14     H     0.45607  0.45607  0.00000  0.08786
      15     H     0.44942  0.44942  0.00000  0.10117
      16     C     3.15258  3.15258  0.00000 -0.30516
      17     H     0.44942  0.44942  0.00000  0.10116
      18     H     0.45422  0.45422  0.00000  0.09157
      19     H     0.45577  0.45577  0.00000  0.08845
      20     H     0.45365  0.45365  0.00000  0.09271
      21     H     0.44685  0.44685  0.00000  0.10629

   Total alpha = 29.00000, Total beta = 29.00000, Total charge = -0.00000
