  ==> Input File <==

--------------------------------------------------------------------------
set {
	reference rhf
	basis 6-31G*
}

set_num_threads( 4 )
memory 2 gb

molecule MOL {
0 1

H	 -2.119668	 1.765328	 1.475691
C	 -1.721419	 0.980609	 0.860069
C	 -2.558976	 0.161145	 0.122557
C	 -0.359550	 0.777775	 0.795874
H	 -3.624043	 0.303398	 0.159147
C	 -2.032478	 -0.844997	 -0.665610
H	 0.314639	 1.393748	 1.353388
C	 0.154804	 -0.237046	 -0.000077
H	 -2.699055	 -1.470043	 -1.230490
C	 -0.662573	 -1.082720	 -0.757546
N	 1.611208	 -0.370857	 -0.000034
C	 -0.196928	 -2.211215	 -1.651193
O	 2.274126	 0.622059	 -0.008063
O	 2.068510	 -1.474748	 0.007823
H	 0.351199	 -2.958749	 -1.094526
H	 -1.059349	 -2.680853	 -2.107312
H	 0.457975	 -1.854111	 -2.433947

	symmetry c1
}
set optking {
	frozen_dihedral = ("
		4 8 11 13
	")
}

ee = optimize('scf')
oeprop('DIPOLE', 'QUADRUPOLE', 'MULLIKEN_CHARGES')
f=open( 'psi4out.xyz', 'w' )
f.write( "17  " )
f.write( str(ee) + "\n" )
f.write( MOL.save_string_xyz() )
f.close()
--------------------------------------------------------------------------

    Molecular point group: c1
  Charge       = 0
  Multiplicity = 1
  Basis Set: 6-31G*
  Basis Set:
  @DF-RHF Final Energy:  -473.20489969110793
    Total Energy =                       -473.2048996911079257
    Molecular point group: c1
  Basis Set: 6-31G*
  Basis Set:
  Basis Set: 6-31G*
  Basis Set:
  @DF-RHF Final Energy:  -473.20567754502150
    Total Energy =                       -473.2056775450216719
  Basis Set: 6-31G*
  Basis Set:
  Basis Set: 6-31G*
  Basis Set:
  @DF-RHF Final Energy:  -473.20371984087598
    Total Energy =                       -473.2037198408754648
  Basis Set: 6-31G*
  Basis Set:
  Basis Set: 6-31G*
  Basis Set:
  @DF-RHF Final Energy:  -473.20608491728774
    Total Energy =                       -473.2060849172871713
  Basis Set: 6-31G*
  Basis Set:
  Basis Set: 6-31G*
  Basis Set:
  @DF-RHF Final Energy:  -473.20613413350105
    Total Energy =                       -473.2061341335011093
  Basis Set: 6-31G*
  Basis Set:
  Basis Set: 6-31G*
  Basis Set:
  @DF-RHF Final Energy:  -473.20614035362718
    Total Energy =                       -473.2061403536275748
  Basis Set: 6-31G*
  Basis Set:
  Charge       = 0
  Multiplicity = 1
  Basis Set: 6-31G*
  Basis Set:

    Orbital Energies (a.u.)
    -----------------------

    Doubly Occupied:

       1A    -20.601435     2A    -20.600543     3A    -15.852783
       4A    -11.300811     5A    -11.280358     6A    -11.267117
       7A    -11.262323     8A    -11.254849     9A    -11.253967
      10A    -11.235727    11A     -1.633275    12A     -1.416302
      13A     -1.200950    14A     -1.092011    15A     -1.072397
      16A     -0.979632    17A     -0.932761    18A     -0.849876
      19A     -0.821216    20A     -0.769960    21A     -0.732892
      22A     -0.726915    23A     -0.694262    24A     -0.658630
      25A     -0.637010    26A     -0.599096    27A     -0.593511
      28A     -0.566139    29A     -0.540896    30A     -0.522233
      31A     -0.520265    32A     -0.487859    33A     -0.480447
      34A     -0.448125    35A     -0.367095    36A     -0.353554

  @DF-RHF Final Energy:  -473.20614108566980

   => Energetics <=

    Nuclear Repulsion Energy =            510.0147401233917321
    One-Electron Energy =               -1655.2273133957128266
    Two-Electron Energy =                 672.0064321866512955
    DFT Exchange-Correlation Energy =       0.0000000000000000
    Empirical Dispersion Energy =           0.0000000000000000
    PCM Polarization Energy =               0.0000000000000000
    EFP Energy =                            0.0000000000000000
    Total Energy =                       -473.2061410856698558
    Molecular point group: c1
  Basis Set: 6-31G*
  Basis Set:

  -Total Gradient:
     Atom            X                  Y                   Z
    ------   -----------------  -----------------  -----------------
       1       -0.000008676848    -0.000001180125     0.000001631814
       2       -0.000077216806    -0.000016206335    -0.000027003277
       3        0.000003488691     0.000054900833     0.000071776336
       4       -0.000074514879    -0.001349886669     0.001487828048
       5       -0.000003337774     0.000008160752     0.000001513605
       6        0.000067781020    -0.000044637665    -0.000000554261
       7        0.000010981157     0.000008519903     0.000004555211
       8        0.000182005475     0.001919157936    -0.003019418160
       9        0.000001143852     0.000004675223     0.000004821416
      10       -0.000013506455     0.000026484083    -0.000047707857
      11       -0.000053870490    -0.000583267386     0.003850750498
      12        0.000024395511     0.000047417837    -0.000043974807
      13       -0.000070628955    -0.000059090883    -0.002336176613
      14        0.000032324446     0.000043595007     0.000017329020
      15        0.000007466423    -0.000019623283     0.000022179060
      16       -0.000003748397    -0.000016564482    -0.000002287044
      17       -0.000024085969    -0.000022454744     0.000014737010

  **** Optimization is complete! (in 7 steps) ****
    Final optimized geometry and variables:
    Molecular point group: c1

    Geometry (in Angstrom), charge = 0, multiplicity = 1:

    H           -2.069399107761     2.150782247872     1.648016873323
    C           -1.673656103561     1.370927909427     1.024541297835
    C           -2.517937663909     0.538209309761     0.309368031092
    C           -0.308572494625     1.191704257174     0.923315485422
    H           -3.583001653199     0.670719839628     0.370568462405
    C           -2.000469075638    -0.464810080870    -0.491689710599
    H            0.376573934934     1.826982052179     1.449092131724
    C            0.184777618818     0.173396275603     0.126822522201
    H           -2.671373154790    -1.093127528685    -1.048685037215
    C           -0.631465407019    -0.690849464106    -0.597485744364
    N            1.635915398872     0.017633640466     0.111352758354
    C           -0.124758894685    -1.807744074302    -1.481618765329
    O            2.294368419388     1.013798379847     0.095536690676
    O            2.079946974684    -1.090582493615     0.117157902233
    H            0.207977314918    -2.649425143641    -0.888084274559
    H           -0.919907259837    -2.139088698784    -2.137633940150
    H            0.711657754604    -1.494279906319    -2.092502829670

  Mulliken Charges: (a.u.)
   Center  Symbol    Alpha    Beta     Spin     Total
       1     H     0.38951  0.38951  0.00000  0.22097
       2     C     3.11187  3.11187  0.00000 -0.22374
       3     C     3.08333  3.08333  0.00000 -0.16667
       4     C     3.08289  3.08289  0.00000 -0.16578
       5     H     0.39013  0.39013  0.00000  0.21975
       6     C     3.12327  3.12327  0.00000 -0.24654
       7     H     0.36960  0.36960  0.00000  0.26080
       8     C     2.92290  2.92290  0.00000  0.15419
       9     H     0.39272  0.39272  0.00000  0.21456
      10     C     2.96423  2.96423  0.00000  0.07153
      11     N     3.25992  3.25992  0.00000  0.48017
      12     C     3.24356  3.24356  0.00000 -0.48712
      13     O     4.22804  4.22804  0.00000 -0.45608
      14     O     4.22928  4.22928  0.00000 -0.45856
      15     H     0.39314  0.39314  0.00000  0.21372
      16     H     0.41290  0.41290  0.00000  0.17421
      17     H     0.40271  0.40271  0.00000  0.19459

   Total alpha = 36.00000, Total beta = 36.00000, Total charge =  0.00000
