  ==> Input File <==

--------------------------------------------------------------------------
set {
	reference rhf
	basis 6-31G*
}

set_num_threads( 1 )
memory 2 gb

molecule MOL {
0 1

O	 0.266953	 0.952112	 -0.866793
C	 0.486307	 0.169203	 0.000779
C	 1.608116	 -0.841643	 0.000302
O	 -0.242774	 0.078837	 1.104356
C	 2.990107	 -0.200498	 -0.000684
H	 1.468623	 -1.481519	 -0.865924
H	 1.469683	 -1.481289	 0.866878
H	 3.129736	 0.423364	 -0.875135
H	 3.757882	 -0.966877	 -0.001197
H	 3.130964	 0.423383	 0.873533
C	 -1.341318	 0.974159	 1.242196
C	 -2.007718	 0.674080	 2.568159
H	 -2.019651	 0.830233	 0.412296
H	 -0.975071	 1.990847	 1.199794
H	 -2.364082	 -0.349319	 2.596764
H	 -2.854468	 1.336855	 2.714415
H	 -1.313877	 0.817678	 3.388659

	symmetry c1
}
set optking {
	frozen_dihedral = ("
		2 4 11 13,
		11 4 2 3
	")
}

ee = energy('scf')
oeprop('DIPOLE', 'QUADRUPOLE', 'MULLIKEN_CHARGES')
f=open( 'psi4out.xyz', 'w' )
f.write( "17  " )
f.write( str(ee) + "\n" )
f.write( MOL.save_string_xyz() )
f.close()
--------------------------------------------------------------------------

    Molecular point group: c1

    Geometry (in Angstrom), charge = 0, multiplicity = 1:

       Center              X                  Y                   Z               Mass
    ------------   -----------------  -----------------  -----------------  -----------------
           O          0.025258966325     0.684163527174    -1.453848070403    15.994914619560
           C          0.244612966325    -0.098745472826    -0.586276070403    12.000000000000
           C          1.366421966325    -1.109591472826    -0.586753070403    12.000000000000
           O         -0.484468033675    -0.189111472826     0.517300929597    15.994914619560
           C          2.748412966325    -0.468446472826    -0.587739070403    12.000000000000
           H          1.226928966325    -1.749467472826    -1.452979070403     1.007825032070
           H          1.227988966325    -1.749237472826     0.279822929597     1.007825032070
           H          2.888041966325     0.155415527174    -1.462190070403     1.007825032070
           H          3.516187966325    -1.234825472826    -0.588252070403     1.007825032070
           H          2.889269966325     0.155434527174     0.286477929597     1.007825032070
           C         -1.583012033675     0.706210527174     0.655140929597    12.000000000000
           C         -2.249412033675     0.406131527174     1.981103929597    12.000000000000
           H         -2.261345033675     0.562284527174    -0.174759070403     1.007825032070
           H         -1.216765033675     1.722898527174     0.612738929597     1.007825032070
           H         -2.605776033675    -0.617267472826     2.009708929597     1.007825032070
           H         -3.096162033675     1.068906527174     2.127359929597     1.007825032070
           H         -1.555571033675     0.549729527174     2.801603929597     1.007825032070

  Charge       = 0
  Multiplicity = 1
  Basis Set: 6-31G*
  Basis Set:

    Orbital Energies (a.u.)
    -----------------------

    Doubly Occupied:

       1A    -20.602434     2A    -20.542147     3A    -11.370724
       4A    -11.284344     5A    -11.235680     6A    -11.224114
       7A    -11.222299     8A     -1.467456     9A     -1.360959
      10A     -1.071856    11A     -1.032173    12A     -0.911184
      13A     -0.851057    14A     -0.775806    15A     -0.693596
      16A     -0.685105    17A     -0.666605    18A     -0.617043
      19A     -0.595757    20A     -0.575393    21A     -0.555552
      22A     -0.534428    23A     -0.528407    24A     -0.509539
      25A     -0.501213    26A     -0.493498    27A     -0.451447
      28A     -0.432285

  @DF-RHF Final Energy:  -344.90946736882677

   => Energetics <=

    Nuclear Repulsion Energy =            315.1601478277201522
    One-Electron Energy =               -1094.5550642646589949
    Two-Electron Energy =                 434.4854490681121888
    DFT Exchange-Correlation Energy =       0.0000000000000000
    Empirical Dispersion Energy =           0.0000000000000000
    PCM Polarization Energy =               0.0000000000000000
    EFP Energy =                            0.0000000000000000
    Total Energy =                       -344.9094673688266539

  Mulliken Charges: (a.u.)
   Center  Symbol    Alpha    Beta     Spin     Total
       1     O     4.28618  4.28618  0.00000 -0.57237
       2     C     2.60877  2.60877  0.00000  0.78246
       3     C     3.20298  3.20298  0.00000 -0.40596
       4     O     4.30984  4.30984  0.00000 -0.61968
       5     C     3.24668  3.24668  0.00000 -0.49336
       6     H     0.40106  0.40106  0.00000  0.19787
       7     H     0.40094  0.40094  0.00000  0.19813
       8     H     0.40432  0.40432  0.00000  0.19137
       9     H     0.41321  0.41321  0.00000  0.17359
      10     H     0.41410  0.41410  0.00000  0.17179
      11     C     3.00327  3.00327  0.00000 -0.00655
      12     C     3.24847  3.24847  0.00000 -0.49693
      13     H     0.40993  0.40993  0.00000  0.18013
      14     H     0.41016  0.41016  0.00000  0.17969
      15     H     0.41184  0.41184  0.00000  0.17631
      16     H     0.41626  0.41626  0.00000  0.16747
      17     H     0.41199  0.41199  0.00000  0.17603

   Total alpha = 28.00000, Total beta = 28.00000, Total charge = -0.00000
