  ==> Input File <==

--------------------------------------------------------------------------
set {
	reference rhf
	basis 6-31G*
}

set_num_threads( 4 )
memory 2 gb

molecule MOL {
0 1

H	 1.148083	 -1.049780	 0.784252
O	 1.319262	 -0.618148	 -0.041729
C	 0.709265	 0.639550	 -0.033818
C	 1.611500	 1.765798	 -0.465230
H	 0.377536	 0.808340	 0.984351
H	 -0.184936	 0.639882	 -0.656256
C	 2.907591	 1.663453	 -0.680728
H	 1.120689	 2.718104	 -0.594463
H	 3.432317	 0.735312	 -0.544178
H	 3.492118	 2.511632	 -0.988780

	symmetry c1
}
set optking {
	frozen_dihedral = ("
		5 3 2 1
	")
}

ee = optimize('scf')
oeprop('DIPOLE', 'QUADRUPOLE', 'MULLIKEN_CHARGES')
f=open( 'psi4out.xyz', 'w' )
f.write( "10  " )
f.write( str(ee) + "\n" )
f.write( MOL.save_string_xyz() )
f.close()
--------------------------------------------------------------------------

    Molecular point group: c1
  Charge       = 0
  Multiplicity = 1
  Basis Set: 6-31G*
  Basis Set:
  @DF-RHF Final Energy:  -191.91299253962461
    Total Energy =                       -191.9129925396245540
    Molecular point group: c1
  Basis Set: 6-31G*
  Basis Set:
  Basis Set: 6-31G*
  Basis Set:
  @DF-RHF Final Energy:  -191.91412618302377
    Total Energy =                       -191.9141261830237681
  Basis Set: 6-31G*
  Basis Set:
  Basis Set: 6-31G*
  Basis Set:
  @DF-RHF Final Energy:  -191.91451023606754
    Total Energy =                       -191.9145102360675423
  Basis Set: 6-31G*
  Basis Set:
  Basis Set: 6-31G*
  Basis Set:
  @DF-RHF Final Energy:  -191.91452224601488
    Total Energy =                       -191.9145222460149398
  Basis Set: 6-31G*
  Basis Set:
  Basis Set: 6-31G*
  Basis Set:
  @DF-RHF Final Energy:  -191.91452741990923
    Total Energy =                       -191.9145274199092341
  Basis Set: 6-31G*
  Basis Set:
  Charge       = 0
  Multiplicity = 1
  Basis Set: 6-31G*
  Basis Set:

    Orbital Energies (a.u.)
    -----------------------

    Doubly Occupied:

       1A    -20.558753     2A    -11.278716     3A    -11.223454
       4A    -11.209740     5A     -1.366963     6A     -1.053032
       7A     -0.923216     8A     -0.755067     9A     -0.706302
      10A     -0.645781    11A     -0.609855    12A     -0.580014
      13A     -0.510111    14A     -0.498200    15A     -0.447315
      16A     -0.355605

  @DF-RHF Final Energy:  -191.91452753885113

   => Energetics <=

    Nuclear Repulsion Energy =            119.3003765987012486
    One-Electron Energy =                -496.9855580312146230
    Two-Electron Energy =                 185.7706538936622565
    DFT Exchange-Correlation Energy =       0.0000000000000000
    Empirical Dispersion Energy =           0.0000000000000000
    PCM Polarization Energy =               0.0000000000000000
    EFP Energy =                            0.0000000000000000
    Total Energy =                       -191.9145275388511322
    Molecular point group: c1
  Basis Set: 6-31G*
  Basis Set:

  -Total Gradient:
     Atom            X                  Y                   Z
    ------   -----------------  -----------------  -----------------
       1        0.000197123417     0.000089017860     0.000088781375
       2       -0.000277236255    -0.000178886447    -0.000122191232
       3        0.000261300061     0.000144844142     0.000118755029
       4       -0.000023682102     0.000018429887    -0.000034427357
       5       -0.000193103864    -0.000087522846    -0.000054232390
       6       -0.000005718864     0.000005809407     0.000000554380
       7        0.000019822070    -0.000015164171    -0.000078762701
       8        0.000014205004    -0.000000466756     0.000020832756
       9       -0.000001705219     0.000014094902     0.000033771387
      10        0.000008995752     0.000009844027     0.000026918754

  **** Optimization is complete! (in 6 steps) ****
    Final optimized geometry and variables:
    Molecular point group: c1

    Geometry (in Angstrom), charge = 0, multiplicity = 1:

    H           -0.429634540239    -1.834600029006     1.054169107576
    O           -0.251534209616    -1.376657261177     0.247564587196
    C           -0.915329673708    -0.141484065841     0.237286865410
    C           -0.002921418192     0.979437186356    -0.174253117853
    H           -1.333556691539     0.083696970846     1.216933481458
    H           -1.755623183785    -0.188861631730    -0.452339266121
    C            1.282775907082     0.860467139178    -0.432526572040
    H           -0.484190547940     1.941759801750    -0.257872802865
    H            1.782741682841    -0.087095993757    -0.364263694174
    H            1.871959195810     1.710851567247    -0.726168716898

  Mulliken Charges: (a.u.)
   Center  Symbol    Alpha    Beta     Spin     Total
       1     H     0.27760  0.27760  0.00000  0.44479
       2     O     4.36989  4.36989  0.00000 -0.73977
       3     C     3.00036  3.00036  0.00000 -0.00072
       4     C     3.08900  3.08900  0.00000 -0.17800
       5     H     0.42684  0.42684  0.00000  0.14632
       6     H     0.41928  0.41928  0.00000  0.16144
       7     C     3.19067  3.19067  0.00000 -0.38135
       8     H     0.41280  0.41280  0.00000  0.17440
       9     H     0.39921  0.39921  0.00000  0.20158
      10     H     0.41435  0.41435  0.00000  0.17130

   Total alpha = 16.00000, Total beta = 16.00000, Total charge =  0.00000
