  ==> Input File <==

--------------------------------------------------------------------------
set {
	reference rhf
	basis 6-31G*
}

set_num_threads( 4 )
memory 2 gb

molecule MOL {
0 1

H	 -3.787727	 -0.291914	 1.659800
C	 -2.772604	 -0.167920	 1.326730
C	 -2.320684	 1.084200	 0.938000
C	 -1.920548	 -1.260348	 1.287531
H	 -2.982523	 1.930594	 0.968881
C	 -1.015307	 1.242843	 0.509857
H	 -2.272640	 -2.230195	 1.589248
C	 -0.613443	 -1.103914	 0.859305
H	 -0.648410	 2.204263	 0.205338
C	 -0.157466	 0.149699	 0.469045
H	 0.049365	 -1.946521	 0.827368
C	 1.239129	 0.373821	 0.000060
O	 1.970282	 -0.730723	 0.000018
O	 1.664576	 1.432587	 -0.341800
C	 3.377318	 -0.566646	 -0.000065
H	 3.695437	 -0.028981	 -0.881264
H	 3.789299	 -1.563704	 0.000236
H	 3.695516	 -0.028316	 0.880770

	symmetry c1
}
set optking {
	frozen_dihedral = ("
		10 12 13 15
	")
}

ee = optimize('scf')
oeprop('DIPOLE', 'QUADRUPOLE', 'MULLIKEN_CHARGES')
f=open( 'psi4out.xyz', 'w' )
f.write( "18  " )
f.write( str(ee) + "\n" )
f.write( MOL.save_string_xyz() )
f.close()
--------------------------------------------------------------------------

    Molecular point group: c1
  Charge       = 0
  Multiplicity = 1
  Basis Set: 6-31G*
  Basis Set:
  @DF-RHF Final Energy:  -457.34828762349247
    Total Energy =                       -457.3482876234925243
    Molecular point group: c1
  Basis Set: 6-31G*
  Basis Set:
  Basis Set: 6-31G*
  Basis Set:
  @DF-RHF Final Energy:  -457.34563630681566
    Total Energy =                       -457.3456363068158907
  Basis Set: 6-31G*
  Basis Set:
  Basis Set: 6-31G*
  Basis Set:
  @DF-RHF Final Energy:  -457.34850530379668
    Total Energy =                       -457.3485053037961734
  Basis Set: 6-31G*
  Basis Set:
  Basis Set: 6-31G*
  Basis Set:
  @DF-RHF Final Energy:  -457.34852581511689
    Total Energy =                       -457.3485258151172275
  Basis Set: 6-31G*
  Basis Set:
  Charge       = 0
  Multiplicity = 1
  Basis Set: 6-31G*
  Basis Set:

    Orbital Energies (a.u.)
    -----------------------

    Doubly Occupied:

       1A    -20.605369     2A    -20.545255     3A    -11.378085
       4A    -11.283650     5A    -11.245819     6A    -11.245639
       7A    -11.244430     8A    -11.242025     9A    -11.237727
      10A    -11.236984    11A     -1.471352    12A     -1.363944
      13A     -1.165497    14A     -1.047763    15A     -1.025082
      16A     -0.977750    17A     -0.860975    18A     -0.834642
      19A     -0.777612    20A     -0.739627    21A     -0.683307
      22A     -0.676379    23A     -0.671453    24A     -0.631500
      25A     -0.624226    26A     -0.598229    27A     -0.587163
      28A     -0.559991    29A     -0.529301    30A     -0.516671
      31A     -0.503216    32A     -0.499122    33A     -0.458854
      34A     -0.444005    35A     -0.345146    36A     -0.341253

  @DF-RHF Final Energy:  -457.34852626047160

   => Energetics <=

    Nuclear Repulsion Energy =            493.1075703804100954
    One-Electron Energy =               -1600.5141168499055766
    Two-Electron Energy =                 650.0580202090237663
    DFT Exchange-Correlation Energy =       0.0000000000000000
    Empirical Dispersion Energy =           0.0000000000000000
    PCM Polarization Energy =               0.0000000000000000
    EFP Energy =                            0.0000000000000000
    Total Energy =                       -457.3485262604716581
    Molecular point group: c1
  Basis Set: 6-31G*
  Basis Set:

  -Total Gradient:
     Atom            X                  Y                   Z
    ------   -----------------  -----------------  -----------------
       1        0.000000086327     0.000000936590     0.000000664429
       2       -0.000009420092     0.000028343840    -0.000017049641
       3       -0.000019573543    -0.000016955955     0.000032542386
       4        0.000020438615    -0.000008450185     0.000002253030
       5       -0.000000234969     0.000002571665     0.000006781891
       6        0.000007766479    -0.000021300780    -0.000049480947
       7       -0.000001485132     0.000002238958     0.000003579205
       8       -0.000025609585    -0.000027087185    -0.000026027376
       9        0.000000717281     0.000000585352     0.000008682310
      10        0.001290161740     0.000815923351     0.004356526361
      11       -0.000002235668     0.000007858745     0.000009026652
      12       -0.001883310584    -0.001218321324    -0.003850466127
      13        0.000567952062     0.000572565100    -0.005436534362
      14        0.000017897047    -0.000022042202    -0.000001838607
      15        0.000003500830    -0.000108599945     0.004983543102
      16       -0.000004497156     0.000006902456    -0.000001456391
      17        0.000027366046    -0.000004555611     0.000000281240
      18        0.000010480298    -0.000010612865    -0.000021027152

  **** Optimization is complete! (in 5 steps) ****
    Final optimized geometry and variables:
    Molecular point group: c1

    Geometry (in Angstrom), charge = 0, multiplicity = 1:

    H           -3.856018182767    -0.341185852109     1.190281942473
    C           -2.842697725014    -0.216887752567     0.852003675238
    C           -2.391997996203     1.036383541695     0.464867590717
    C           -1.991810581964    -1.309740381672     0.804807667629
    H           -3.053174314996     1.883087874129     0.501966924255
    C           -1.089078572155     1.195528225740     0.030200589201
    H           -2.343070862370    -2.280268492724     1.105228752190
    C           -0.686629049485    -1.152590646133     0.370583110825
    H           -0.723049048677     2.157884288211    -0.272322734799
    C           -0.231249598777     0.102239562919    -0.016298479424
    H           -0.024342759017    -1.995274634273     0.332969359553
    C            1.168133488691     0.329148959258    -0.476005431778
    O            1.898789479669    -0.778104455218    -0.495185854772
    O            1.610576163841     1.399878953255    -0.750959371556
    C            3.306251606597    -0.615814022867    -0.487646749805
    H            3.642892342825    -0.143816070605    -1.398641329285
    H            3.716763615532    -1.610255456285    -0.407750969235
    H            3.609351301237    -0.016253337162     0.359071301639

  Mulliken Charges: (a.u.)
   Center  Symbol    Alpha    Beta     Spin     Total
       1     H     0.39531  0.39531  0.00000  0.20938
       2     C     3.08991  3.08991  0.00000 -0.17982
       3     C     3.10710  3.10710  0.00000 -0.21420
       4     C     3.10710  3.10710  0.00000 -0.21420
       5     H     0.39529  0.39529  0.00000  0.20941
       6     C     3.08632  3.08632  0.00000 -0.17264
       7     H     0.39621  0.39621  0.00000  0.20759
       8     C     3.08729  3.08729  0.00000 -0.17458
       9     H     0.37598  0.37598  0.00000  0.24803
      10     C     3.07760  3.07760  0.00000 -0.15520
      11     H     0.38064  0.38064  0.00000  0.23873
      12     C     2.58007  2.58007  0.00000  0.83986
      13     O     4.31591  4.31591  0.00000 -0.63182
      14     O     4.28917  4.28917  0.00000 -0.57834
      15     C     3.09269  3.09269  0.00000 -0.18538
      16     H     0.40533  0.40533  0.00000  0.18935
      17     H     0.40787  0.40787  0.00000  0.18426
      18     H     0.41021  0.41021  0.00000  0.17958

   Total alpha = 36.00000, Total beta = 36.00000, Total charge =  0.00000
