  ==> Input File <==

--------------------------------------------------------------------------
set {
	reference rhf
	basis 6-31G*
}

set_num_threads( 4 )
memory 2 gb

molecule MOL {
0 1

H	 1.148083	 -1.049780	 0.784252
O	 1.319262	 -0.618148	 -0.041729
C	 0.709265	 0.639550	 -0.033818
C	 1.405908	 1.668723	 -0.884742
H	 0.702578	 0.965891	 0.999942
H	 -0.332738	 0.566229	 -0.343464
C	 2.575058	 1.507142	 -1.471039
H	 0.874917	 2.601433	 -0.996912
H	 3.139940	 0.598675	 -1.366034
H	 3.014571	 2.286797	 -2.066810

	symmetry c1
}
set optking {
	frozen_dihedral = ("
		5 3 2 1
	")
}

ee = optimize('scf')
oeprop('DIPOLE', 'QUADRUPOLE', 'MULLIKEN_CHARGES')
f=open( 'psi4out.xyz', 'w' )
f.write( "10  " )
f.write( str(ee) + "\n" )
f.write( MOL.save_string_xyz() )
f.close()
--------------------------------------------------------------------------

    Molecular point group: c1
  Charge       = 0
  Multiplicity = 1
  Basis Set: 6-31G*
  Basis Set:
  @DF-RHF Final Energy:  -191.91333227653178
    Total Energy =                       -191.9133322765316905
    Molecular point group: c1
  Basis Set: 6-31G*
  Basis Set:
  Basis Set: 6-31G*
  Basis Set:
  @DF-RHF Final Energy:  -191.91455825165338
    Total Energy =                       -191.9145582516533750
  Basis Set: 6-31G*
  Basis Set:
  Basis Set: 6-31G*
  Basis Set:
  @DF-RHF Final Energy:  -191.91497222685038
    Total Energy =                       -191.9149722268503524
  Basis Set: 6-31G*
  Basis Set:
  Basis Set: 6-31G*
  Basis Set:
  @DF-RHF Final Energy:  -191.91498249632147
    Total Energy =                       -191.9149824963213860
  Basis Set: 6-31G*
  Basis Set:
  Charge       = 0
  Multiplicity = 1
  Basis Set: 6-31G*
  Basis Set:

    Orbital Energies (a.u.)
    -----------------------

    Doubly Occupied:

       1A    -20.558971     2A    -11.278483     3A    -11.223682
       4A    -11.209465     5A     -1.367487     6A     -1.053273
       7A     -0.922397     8A     -0.753404     9A     -0.709131
      10A     -0.640310    11A     -0.611040    12A     -0.585279
      13A     -0.512405    14A     -0.489938    15A     -0.450537
      16A     -0.355002

  @DF-RHF Final Energy:  -191.91498343739221

   => Energetics <=

    Nuclear Repulsion Energy =            119.4170387615847204
    One-Electron Energy =                -497.2224349452693559
    Two-Electron Energy =                 185.8904127462924123
    DFT Exchange-Correlation Energy =       0.0000000000000000
    Empirical Dispersion Energy =           0.0000000000000000
    PCM Polarization Energy =               0.0000000000000000
    EFP Energy =                            0.0000000000000000
    Total Energy =                       -191.9149834373922374
    Molecular point group: c1
  Basis Set: 6-31G*
  Basis Set:

  -Total Gradient:
     Atom            X                  Y                   Z
    ------   -----------------  -----------------  -----------------
       1        0.000873799241     0.000465095142     0.000453032597
       2       -0.001316988391    -0.000723459094    -0.000515187838
       3        0.001253343680     0.000698972746    -0.000082256799
       4       -0.000006439267     0.000027357249     0.000079054135
       5       -0.000807927912    -0.000447469626     0.000075470359
       6        0.000040547737    -0.000004650811    -0.000004084955
       7        0.000021974528    -0.000000818556     0.000075041733
       8       -0.000014847128     0.000013277415    -0.000027043620
       9       -0.000006826175    -0.000017542037    -0.000024422326
      10       -0.000036636314    -0.000010762428    -0.000029603287

  **** Optimization is complete! (in 5 steps) ****
    Final optimized geometry and variables:
    Molecular point group: c1

    Geometry (in Angstrom), charge = 0, multiplicity = 1:

    H           -0.283745095776    -1.775943493112     1.314815262665
    O           -0.119238251767    -1.307938620112     0.510184980360
    C           -0.794028749750    -0.080570317633     0.528958489555
    C           -0.078466831971     0.940436497446    -0.306765578468
    H           -0.890119209009     0.294634488626     1.547229702059
    H           -1.807784496043    -0.202931226224     0.148983354967
    C            1.069817550779     0.752815038652    -0.923201349674
    H           -0.585829039808     1.889395686186    -0.385376429634
    H            1.591585782418    -0.183566422066    -0.866140103885
    H            1.518810761709     1.534427025767    -1.509730272522

  Mulliken Charges: (a.u.)
   Center  Symbol    Alpha    Beta     Spin     Total
       1     H     0.27827  0.27827  0.00000  0.44346
       2     O     4.36922  4.36922  0.00000 -0.73843
       3     C     2.99898  2.99898  0.00000  0.00205
       4     C     3.08902  3.08902  0.00000 -0.17803
       5     H     0.42702  0.42702  0.00000  0.14596
       6     H     0.42314  0.42314  0.00000  0.15371
       7     C     3.18992  3.18992  0.00000 -0.37984
       8     H     0.41228  0.41228  0.00000  0.17545
       9     H     0.39775  0.39775  0.00000  0.20449
      10     H     0.41440  0.41440  0.00000  0.17119

   Total alpha = 16.00000, Total beta = 16.00000, Total charge = -0.00000
