  ==> Input File <==

--------------------------------------------------------------------------
set {
	reference rhf
	basis 6-31G*
}

set_num_threads( 4 )
memory 2 gb

molecule MOL {
0 1

H	 3.759285	 -0.851306	 0.306554
O	 2.844552	 -1.112517	 0.348823
C	 2.095445	 -0.020572	 0.197457
C	 0.624473	 -0.343591	 0.253101
O	 2.572772	 1.055780	 0.040483
C	 -0.265902	 0.883932	 0.072916
H	 0.436968	 -1.098491	 -0.503431
H	 0.437361	 -0.827604	 1.208336
C	 -1.728698	 0.646073	 0.462102
H	 -0.209144	 1.219470	 -0.958188
H	 0.135059	 1.692851	 0.673903
C	 -2.482460	 -0.343073	 -0.431425
H	 -2.245265	 1.602650	 0.432430
H	 -1.779332	 0.308348	 1.496285
C	 -3.960546	 -0.461025	 -0.060175
H	 -2.395034	 -0.026811	 -1.468912
H	 -2.024850	 -1.327147	 -0.371646
H	 -4.472726	 -1.168004	 -0.705284
H	 -4.465146	 0.496508	 -0.151489
H	 -4.081218	 -0.800940	 0.964585

	symmetry c1
}
set optking {
	frozen_dihedral = ("
		7 4 6 10
	")
}

ee = optimize('scf')
oeprop('DIPOLE', 'QUADRUPOLE', 'MULLIKEN_CHARGES')
f=open( 'psi4out.xyz', 'w' )
f.write( "20  " )
f.write( str(ee) + "\n" )
f.write( MOL.save_string_xyz() )
f.close()
--------------------------------------------------------------------------

    Molecular point group: c1
  Charge       = 0
  Multiplicity = 1
  Basis Set: 6-31G*
  Basis Set:
  @DF-RHF Final Energy:  -383.94844194243655
    Total Energy =                       -383.9484419424367161
    Molecular point group: c1
  Basis Set: 6-31G*
  Basis Set:
  Basis Set: 6-31G*
  Basis Set:
  @DF-RHF Final Energy:  -383.94831532752067
    Total Energy =                       -383.9483153275207883
  Basis Set: 6-31G*
  Basis Set:
  Basis Set: 6-31G*
  Basis Set:
  @DF-RHF Final Energy:  -383.94849549683624
    Total Energy =                       -383.9484954968364718
  Basis Set: 6-31G*
  Basis Set:
  Basis Set: 6-31G*
  Basis Set:
  @DF-RHF Final Energy:  -383.94848632736716
    Total Energy =                       -383.9484863273672204
  Basis Set: 6-31G*
  Basis Set:
  Basis Set: 6-31G*
  Basis Set:
  @DF-RHF Final Energy:  -383.94847410176800
    Total Energy =                       -383.9484741017680562
  Basis Set: 6-31G*
  Basis Set:
  Basis Set: 6-31G*
  Basis Set:
  @DF-RHF Final Energy:  -383.94850508525940
    Total Energy =                       -383.9485050852597965
  Basis Set: 6-31G*
  Basis Set:
  Charge       = 0
  Multiplicity = 1
  Basis Set: 6-31G*
  Basis Set:

    Orbital Energies (a.u.)
    -----------------------

    Doubly Occupied:

       1A    -20.612487     2A    -20.551642     3A    -11.381147
       4A    -11.240452     5A    -11.222776     6A    -11.220602
       7A    -11.219965     8A    -11.212394     9A     -1.474599
      10A     -1.365608    11A     -1.096236    12A     -1.040686
      13A     -0.961321    14A     -0.868656    15A     -0.816370
      16A     -0.776426    17A     -0.699626    18A     -0.689746
      19A     -0.664462    20A     -0.636007    21A     -0.602300
      22A     -0.593686    23A     -0.575470    24A     -0.554311
      25A     -0.542339    26A     -0.512647    27A     -0.496117
      28A     -0.479244    29A     -0.469458    30A     -0.467549
      31A     -0.457488    32A     -0.443757

  @DF-RHF Final Energy:  -383.94850456681371

   => Energetics <=

    Nuclear Repulsion Energy =            375.9251663529418579
    One-Electron Energy =               -1267.8561958111017702
    Two-Electron Energy =                 507.9825248913465430
    DFT Exchange-Correlation Energy =       0.0000000000000000
    Empirical Dispersion Energy =           0.0000000000000000
    PCM Polarization Energy =               0.0000000000000000
    EFP Energy =                            0.0000000000000000
    Total Energy =                       -383.9485045668133125
    Molecular point group: c1
  Basis Set: 6-31G*
  Basis Set:

  -Total Gradient:
     Atom            X                  Y                   Z
    ------   -----------------  -----------------  -----------------
       1        0.000006076444    -0.000005900789    -0.000002580691
       2       -0.000000528766     0.000023047478    -0.000105577805
       3        0.000002813896    -0.000026833851     0.000289446732
       4       -0.001695919841    -0.001099569065     0.001055363361
       5        0.000002576321    -0.000046398437    -0.000114946218
       6        0.001764134904     0.001371473151     0.000383101167
       7        0.001129695924     0.000649150779    -0.000948171092
       8        0.000064262580    -0.000024265752     0.000032933593
       9        0.000028527438     0.000031256033    -0.000143894569
      10       -0.001318051084    -0.000929127004    -0.000378698912
      11       -0.000040223788     0.000032891008    -0.000008391572
      12       -0.000031646243     0.000033390817    -0.000027910505
      13        0.000010927264     0.000012608726     0.000002103813
      14        0.000077128799     0.000001690026    -0.000024571551
      15       -0.000006256008    -0.000022869569     0.000002425037
      16       -0.000014220693     0.000005156287    -0.000013208164
      17        0.000027441412     0.000001951930    -0.000004024026
      18       -0.000005056836    -0.000011562197     0.000010190426
      19       -0.000000221104    -0.000004010286    -0.000009244728
      20       -0.000001460620     0.000007920719     0.000005655706

  **** Optimization is complete! (in 7 steps) ****
    Final optimized geometry and variables:
    Molecular point group: c1

    Geometry (in Angstrom), charge = 0, multiplicity = 1:

    H            3.735766041563    -0.902506653450     0.151809203925
    O            2.818647955427    -1.152018448368     0.209908990926
    C            2.081142212181    -0.049495854409     0.079117764384
    C            0.606868589002    -0.356082851559     0.159386434495
    O            2.570087545511     1.020939250584    -0.082398011479
    C           -0.273650472017     0.880790628276    -0.015787289689
    H            0.407943886511    -1.105949477497    -0.599397851934
    H            0.430797572062    -0.838424804793     1.117343960789
    C           -1.741212777332     0.642797392106     0.355204150632
    H           -0.215926889981     1.216616679563    -1.047180535561
    H            0.123808431693     1.684405258237     0.592915563794
    C           -2.474673538456    -0.363815808535    -0.535437900837
    H           -2.262274441040     1.596166289013     0.305528672314
    H           -1.803859590141     0.318089528331     1.392864491011
    C           -3.955559445235    -0.494345646083    -0.180132916743
    H           -2.378641252346    -0.058575883672    -1.575596096908
    H           -2.005714626033    -1.341573695248    -0.458890363106
    H           -4.451934429883    -1.215656899113    -0.821733550966
    H           -4.470072782636     0.455956338036    -0.289940219859
    H           -4.084404874154    -0.822188639152     0.847557034224

  Mulliken Charges: (a.u.)
   Center  Symbol    Alpha    Beta     Spin     Total
       1     H     0.26784  0.26784  0.00000  0.46432
       2     O     4.35139  4.35139  0.00000 -0.70277
       3     C     2.62334  2.62334  0.00000  0.75331
       4     C     3.21276  3.21276  0.00000 -0.42552
       5     O     4.27911  4.27911  0.00000 -0.55822
       6     C     3.15477  3.15477  0.00000 -0.30954
       7     H     0.39668  0.39668  0.00000  0.20664
       8     H     0.39887  0.39887  0.00000  0.20227
       9     C     3.15577  3.15577  0.00000 -0.31154
      10     H     0.41435  0.41435  0.00000  0.17130
      11     H     0.40467  0.40467  0.00000  0.19066
      12     C     3.15506  3.15506  0.00000 -0.31011
      13     H     0.41809  0.41809  0.00000  0.16382
      14     H     0.42357  0.42357  0.00000  0.15285
      15     C     3.23917  3.23917  0.00000 -0.47833
      16     H     0.42188  0.42188  0.00000  0.15624
      17     H     0.42235  0.42235  0.00000  0.15530
      18     H     0.41839  0.41839  0.00000  0.16322
      19     H     0.42065  0.42065  0.00000  0.15870
      20     H     0.42130  0.42130  0.00000  0.15741

   Total alpha = 32.00000, Total beta = 32.00000, Total charge =  0.00000
