  ==> Input File <==

--------------------------------------------------------------------------
set {
	reference rhf
	basis cc-pvtz
}

set_num_threads( 4 )
memory 2 gb

molecule MOL {
0 1

H	 2.252046	 -1.517674	 2.006470
O	 2.618130	 -0.801187	 1.519283
C	 1.680662	 -0.172945	 0.787814
C	 2.087074	 0.907463	 0.017964
C	 0.359042	 -0.564937	 0.783227
H	 3.119472	 1.195527	 0.036128
C	 1.171668	 1.588844	 -0.750868
H	 0.017960	 -1.394356	 1.367201
C	 -0.532034	 0.141680	 0.000000
H	 1.494871	 2.422575	 -1.342629
C	 -0.161373	 1.214013	 -0.772006
N	 -1.937041	 -0.281114	 0.000000
H	 -0.883000	 1.733385	 -1.363808
O	 -2.159542	 -1.446261	 0.000000
O	 -2.764978	 0.565773	 0.000000

	symmetry c1
}
set optking {
	frozen_dihedral = ("
		11 9 12 14
	")
}

ee = optimize('scf')
oeprop('DIPOLE', 'QUADRUPOLE', 'MULLIKEN_CHARGES')
f=open( 'psi4out.xyz', 'w' )
f.write( "15  " )
f.write( str(ee) + "\n" )
f.write( MOL.save_string_xyz() )
f.close()
--------------------------------------------------------------------------

    Molecular point group: c1
  Charge       = 0
  Multiplicity = 1
  Basis Set: CC-PVTZ
  Basis Set:
  @DF-RHF Final Energy:  -509.21595692798411
    Total Energy =                       -509.2159569279845073
    Molecular point group: c1
  Basis Set: CC-PVTZ
  Basis Set:
  Basis Set: CC-PVTZ
  Basis Set:
  @DF-RHF Final Energy:  -509.20938310122739
    Total Energy =                       -509.2093831012269902
  Basis Set: CC-PVTZ
  Basis Set:
  Basis Set: CC-PVTZ
  Basis Set:
  @DF-RHF Final Energy:  -509.21606591472158
    Total Energy =                       -509.2160659147214119
  Basis Set: CC-PVTZ
  Basis Set:
  Basis Set: CC-PVTZ
  Basis Set:
  @DF-RHF Final Energy:  -509.21631708543271
    Total Energy =                       -509.2163170854328200
  Basis Set: CC-PVTZ
  Basis Set:
  Basis Set: CC-PVTZ
  Basis Set:
  @DF-RHF Final Energy:  -509.21631767796072
    Total Energy =                       -509.2163176779606601
  Basis Set: CC-PVTZ
  Basis Set:
  Charge       = 0
  Multiplicity = 1
  Basis Set: CC-PVTZ
  Basis Set:

    Orbital Energies (a.u.)
    -----------------------

    Doubly Occupied:

       1A    -20.609443     2A    -20.597023     3A    -20.596594
       4A    -15.850210     5A    -11.329089     6A    -11.310830
       7A    -11.264159     8A    -11.263635     9A    -11.258869
      10A    -11.254546    11A     -1.645132    12A     -1.442189
      13A     -1.428053    14A     -1.203766    15A     -1.096435
      16A     -1.049131    17A     -0.966992    18A     -0.884074
      19A     -0.832501    20A     -0.794267    21A     -0.762534
      22A     -0.740992    23A     -0.725970    24A     -0.711807
      25A     -0.675382    26A     -0.636232    27A     -0.622668
      28A     -0.597886    29A     -0.563292    30A     -0.548427
      31A     -0.528184    32A     -0.494806    33A     -0.491942
      34A     -0.459320    35A     -0.378515    36A     -0.346600

  @DF-RHF Final Energy:  -509.21631790318077

   => Energetics <=

    Nuclear Repulsion Energy =            504.5819822411918949
    One-Electron Energy =               -1695.6736172213825284
    Two-Electron Energy =                 681.8753170770098677
    DFT Exchange-Correlation Energy =       0.0000000000000000
    Empirical Dispersion Energy =           0.0000000000000000
    PCM Polarization Energy =               0.0000000000000000
    EFP Energy =                            0.0000000000000000
    Total Energy =                       -509.2163179031806521
    Molecular point group: c1
  Basis Set: CC-PVTZ
  Basis Set:

  -Total Gradient:
     Atom            X                  Y                   Z
    ------   -----------------  -----------------  -----------------
       1       -0.000001305945     0.000006010302     0.000009176124
       2        0.000005185793    -0.000018510584    -0.000011186296
       3       -0.000007328324     0.000025025218    -0.000006101526
       4        0.000000178047     0.000006481666     0.000028384793
       5       -0.000028096187     0.000026559112     0.000005115986
       6       -0.000000537492     0.000000551857    -0.000000624499
       7       -0.000001308927    -0.000023919917    -0.000030086550
       8       -0.000002535022    -0.000008293032     0.000004212172
       9       -0.001094060439     0.003339881315     0.002454543847
      10       -0.000001479214     0.000001687662     0.000003076052
      11        0.000796401011    -0.002347790201    -0.002822381119
      12        0.000215019019    -0.000932092658     0.004726609037
      13        0.000002002513     0.000001248522     0.000000463868
      14        0.000120063760    -0.000070172106    -0.004352314901
      15       -0.000002198597    -0.000006667158    -0.000008886990

  **** Optimization is complete! (in 6 steps) ****
    Final optimized geometry and variables:
    Molecular point group: c1

    Geometry (in Angstrom), charge = 0, multiplicity = 1:

    H            2.272313872737    -1.587598239538     1.818349606361
    O            2.634967926160    -0.866075304441     1.336129199421
    C            1.696630892482    -0.237672050972     0.607441252130
    C            2.103043158145     0.837690173976    -0.170140027759
    C            0.374164130241    -0.629671235913     0.604304704911
    H            3.137389015997     1.118669063669    -0.162033633296
    C            1.186870736668     1.519061822313    -0.937771568308
    H            0.036658222818    -1.474965940514     1.169705616893
    C           -0.518131706159     0.095314870122    -0.156944533124
    H            1.513043170588     2.341626226213    -1.543473499232
    C           -0.151089451623     1.159172587386    -0.938975834591
    N           -1.913611664694    -0.345369548769    -0.182558384707
    H           -0.878177755977     1.686837018156    -1.518898994496
    O           -2.114417801002    -1.514205601623    -0.168470385855
    O           -2.748146866132     0.492718558213    -0.248641028293

  Mulliken Charges: (a.u.)
   Center  Symbol    Alpha    Beta     Spin     Total
       1     H     0.38438  0.38438  0.00000  0.23124
       2     O     4.16778  4.16778  0.00000 -0.33556
       3     C     2.84453  2.84453  0.00000  0.31093
       4     C     3.10014  3.10014  0.00000 -0.20028
       5     C     3.13906  3.13906  0.00000 -0.27812
       6     H     0.41353  0.41353  0.00000  0.17293
       7     C     3.05464  3.05464  0.00000 -0.10928
       8     H     0.41494  0.41494  0.00000  0.17012
       9     C     2.94465  2.94465  0.00000  0.11069
      10     H     0.41611  0.41611  0.00000  0.16777
      11     C     3.10469  3.10469  0.00000 -0.20938
      12     N     3.26923  3.26923  0.00000  0.46155
      13     H     0.40535  0.40535  0.00000  0.18930
      14     O     4.17132  4.17132  0.00000 -0.34264
      15     O     4.16964  4.16964  0.00000 -0.33927

   Total alpha = 36.00000, Total beta = 36.00000, Total charge =  0.00000
