  ==> Input File <==

--------------------------------------------------------------------------
set {
	reference rhf
	basis 6-31G*
}

set_num_threads( 4 )
memory 2 gb

molecule MOL {
0 1

H	 -3.182143	 -0.091704	 0.625111
C	 -2.776726	 -0.156513	 -0.382648
O	 -1.392607	 -0.295399	 -0.366433
H	 -3.186518	 -1.030837	 -0.869238
H	 -3.084051	 0.730044	 -0.935817
C	 -0.719715	 0.768384	 0.229244
C	 0.719720	 0.768376	 -0.229267
H	 -1.185038	 1.714362	 -0.050570
H	 -0.750528	 0.687237	 1.313896
O	 1.392611	 -0.295398	 0.366430
H	 0.750534	 0.687200	 -1.313918
H	 1.185043	 1.714359	 0.050526
C	 2.706965	 -0.449871	 -0.062409
H	 2.756559	 -0.644779	 -1.131878
H	 3.305899	 0.433456	 0.155466
H	 3.125548	 -1.294566	 0.467107

	symmetry c1
}
set optking {
	frozen_dihedral = ("
		2 3 6 7
	")
}

ee = optimize('scf')
oeprop('DIPOLE', 'QUADRUPOLE', 'MULLIKEN_CHARGES')
f=open( 'psi4out.xyz', 'w' )
f.write( "16  " )
f.write( str(ee) + "\n" )
f.write( MOL.save_string_xyz() )
f.close()
--------------------------------------------------------------------------

    Molecular point group: c1
  Charge       = 0
  Multiplicity = 1
  Basis Set: 6-31G*
  Basis Set:
  @DF-RHF Final Energy:  -306.97634613966750
    Total Energy =                       -306.9763461396674415
    Molecular point group: c1
  Basis Set: 6-31G*
  Basis Set:
  Basis Set: 6-31G*
  Basis Set:
  @DF-RHF Final Energy:  -306.97641050873710
    Total Energy =                       -306.9764105087373309
  Basis Set: 6-31G*
  Basis Set:
  Charge       = 0
  Multiplicity = 1
  Basis Set: 6-31G*
  Basis Set:

    Orbital Energies (a.u.)
    -----------------------

    Doubly Occupied:

       1A    -20.553188     2A    -20.553097     3A    -11.269224
       4A    -11.268540     5A    -11.264595     6A    -11.263227
       7A     -1.387531     8A     -1.370190     9A     -1.030818
      10A     -0.936140    11A     -0.893529    12A     -0.823114
      13A     -0.685423    14A     -0.678547    15A     -0.656838
      16A     -0.637536    17A     -0.627571    18A     -0.597377
      19A     -0.555839    20A     -0.532233    21A     -0.507891
      22A     -0.475680    23A     -0.466121    24A     -0.418948
      25A     -0.409509

  @DF-RHF Final Energy:  -306.97642073461537

   => Energetics <=

    Nuclear Repulsion Energy =            258.3751934768096703
    One-Electron Energy =                -930.9778145707914518
    Two-Electron Energy =                 365.6262003593665213
    DFT Exchange-Correlation Energy =       0.0000000000000000
    Empirical Dispersion Energy =           0.0000000000000000
    PCM Polarization Energy =               0.0000000000000000
    EFP Energy =                            0.0000000000000000
    Total Energy =                       -306.9764207346152034
    Molecular point group: c1
  Basis Set: 6-31G*
  Basis Set:

  -Total Gradient:
     Atom            X                  Y                   Z
    ------   -----------------  -----------------  -----------------
       1       -0.000026325135    -0.000028820546    -0.000021202983
       2        0.000097268728     0.001173114231    -0.002023033566
       3       -0.000376993266    -0.001145307851     0.002282252600
       4        0.000090946608    -0.000019509988     0.000015388216
       5        0.000007383384    -0.000007706877    -0.000006499531
       6        0.000669114230    -0.001051871538     0.001492257774
       7       -0.000618975979     0.001363506526    -0.001827714207
       8        0.000047282260    -0.000064865442    -0.000003237769
       9       -0.000017782350    -0.000019381323    -0.000015742207
      10        0.000106323935    -0.000137455806     0.000088735816
      11        0.000017375857     0.000025362609    -0.000006956390
      12       -0.000042491522    -0.000033384161     0.000000324431
      13        0.000039847272    -0.000057496550     0.000023579776
      14       -0.000007657201     0.000000376458     0.000006551577
      15       -0.000000066486     0.000002423732     0.000000670395
      16        0.000014749661     0.000001016528    -0.000005373933

  **** Optimization is complete! (in 3 steps) ****
    Final optimized geometry and variables:
    Molecular point group: c1

    Geometry (in Angstrom), charge = 0, multiplicity = 1:

    H           -3.182414858302    -0.136776347831     0.701214926350
    C           -2.767493161098    -0.212117945857    -0.302396432821
    O           -1.382787118038    -0.346045663329    -0.279647033999
    H           -3.171107731105    -1.094427523291    -0.779606112912
    H           -3.073051004199     0.666377508519    -0.868301386404
    C           -0.706421702591     0.722436790716     0.307571461093
    C            0.735173645091     0.720868387774    -0.145747713064
    H           -1.157441410903     1.667402710504     0.004115958523
    H           -0.755329293436     0.660075992071     1.392186360507
    O            1.405276720167    -0.352238536095     0.436558141335
    H            0.766687925183     0.653550476128    -1.231251416276
    H            1.202937539548     1.661742878809     0.147554529988
    C            2.720557993453    -0.503255371767     0.009327666919
    H            2.772879112041    -0.683424280010    -1.062614526886
    H            3.319991376030     0.376206974894     0.240899625566
    H            3.136426585799    -1.355811373317     0.528220843954

  Mulliken Charges: (a.u.)
   Center  Symbol    Alpha    Beta     Spin     Total
       1     H     0.42956  0.42956  0.00000  0.14088
       2     C     3.07971  3.07971  0.00000 -0.15942
       3     O     4.30065  4.30065  0.00000 -0.60130
       4     H     0.41121  0.41121  0.00000  0.17758
       5     H     0.43126  0.43126  0.00000  0.13749
       6     C     2.99315  2.99315  0.00000  0.01369
       7     C     2.99173  2.99173  0.00000  0.01654
       8     H     0.43355  0.43355  0.00000  0.13289
       9     H     0.42041  0.42041  0.00000  0.15918
      10     O     4.30058  4.30058  0.00000 -0.60116
      11     H     0.42431  0.42431  0.00000  0.15137
      12     H     0.43297  0.43297  0.00000  0.13406
      13     C     3.07942  3.07942  0.00000 -0.15885
      14     H     0.42838  0.42838  0.00000  0.14324
      15     H     0.43205  0.43205  0.00000  0.13591
      16     H     0.41105  0.41105  0.00000  0.17790

   Total alpha = 25.00000, Total beta = 25.00000, Total charge = -0.00000
