  ==> Input File <==

--------------------------------------------------------------------------
set {
	reference rhf
	basis cc-pvtz
}

set_num_threads( 4 )
memory 2 gb

molecule MOL {
0 1

O	 -2.071633	 -1.227563	 -0.223463
C	 -1.652164	 -0.152425	 0.058082
C	 -0.327811	 0.006324	 0.778296
C	 -2.402515	 1.108629	 -0.298924
C	 0.843231	 -0.001575	 -0.211665
H	 -0.319484	 0.928173	 1.350354
H	 -0.227804	 -0.823091	 1.466705
C	 2.197693	 0.138030	 0.476937
H	 0.722944	 0.805202	 -0.930230
H	 0.813976	 -0.926978	 -0.776588
C	 2.270130	 -0.613892	 1.801523
H	 2.978407	 -0.223201	 -0.186781
H	 2.403943	 1.190640	 0.647266
H	 2.102433	 -1.676239	 1.658934
H	 1.521166	 -0.252205	 2.497658
H	 3.241055	 -0.492328	 2.267277
H	 -3.240910	 0.874416	 -0.936711
H	 -1.747554	 1.818823	 -0.790984
H	 -2.760419	 1.579708	 0.610998

	symmetry c1
}
set optking {
	frozen_dihedral = ("
		11 8 5 9
	")
}

ee = optimize('scf')
oeprop('DIPOLE', 'QUADRUPOLE', 'MULLIKEN_CHARGES')
f=open( 'psi4out.xyz', 'w' )
f.write( "19  " )
f.write( str(ee) + "\n" )
f.write( MOL.save_string_xyz() )
f.close()
--------------------------------------------------------------------------

    Molecular point group: c1
  Charge       = 0
  Multiplicity = 1
  Basis Set: CC-PVTZ
  Basis Set:
  @DF-RHF Final Energy:  -309.17108432432826
    Total Energy =                       -309.1710843243286035
    Molecular point group: c1
  Basis Set: CC-PVTZ
  Basis Set:
  Basis Set: CC-PVTZ
  Basis Set:
  @DF-RHF Final Energy:  -309.17190036077949
    Total Energy =                       -309.1719003607789773
  Basis Set: CC-PVTZ
  Basis Set:
  Basis Set: CC-PVTZ
  Basis Set:
  @DF-RHF Final Energy:  -309.17305721903710
    Total Energy =                       -309.1730572190367639
  Basis Set: CC-PVTZ
  Basis Set:
  Basis Set: CC-PVTZ
  Basis Set:
  @DF-RHF Final Energy:  -309.17310773038020
    Total Energy =                       -309.1731077303805932
  Basis Set: CC-PVTZ
  Basis Set:
  @DF-RHF Final Energy:  -309.17314418192183
    Total Energy =                       -309.1731441819218844
  Basis Set: CC-PVTZ
  Basis Set:
  @DF-RHF Final Energy:  -309.17309427214082
    Total Energy =                       -309.1730942721408724
  Basis Set: CC-PVTZ
  Basis Set:
  Basis Set: CC-PVTZ
  Basis Set:
  @DF-RHF Final Energy:  -309.17315310312779
    Total Energy =                       -309.1731531031277882
  Basis Set: CC-PVTZ
  Basis Set:
  Basis Set: CC-PVTZ
  Basis Set:
  @DF-RHF Final Energy:  -309.17315594259713
    Total Energy =                       -309.1731559425978162
  Basis Set: CC-PVTZ
  Basis Set:
  Charge       = 0
  Multiplicity = 1
  Basis Set: CC-PVTZ
  Basis Set:

    Orbital Energies (a.u.)
    -----------------------

    Doubly Occupied:

       1A    -20.536599     2A    -11.319174     3A    -11.229356
       4A    -11.227208     5A    -11.226989     6A    -11.223744
       7A    -11.213267     8A     -1.396777     9A     -1.091794
      10A     -1.028147    11A     -0.981737    12A     -0.903096
      13A     -0.796478    14A     -0.735283    15A     -0.662568
      16A     -0.653665    17A     -0.624291    18A     -0.604209
      19A     -0.589182    20A     -0.577937    21A     -0.551032
      22A     -0.545309    23A     -0.515998    24A     -0.505591
      25A     -0.482454    26A     -0.468881    27A     -0.464813
      28A     -0.399603

  @DF-RHF Final Energy:  -309.17315599836985

   => Energetics <=

    Nuclear Repulsion Energy =            305.6586395052394778
    One-Electron Energy =               -1024.5532153296674096
    Two-Electron Energy =                 409.7214198260579110
    DFT Exchange-Correlation Energy =       0.0000000000000000
    Empirical Dispersion Energy =           0.0000000000000000
    PCM Polarization Energy =               0.0000000000000000
    EFP Energy =                            0.0000000000000000
    Total Energy =                       -309.1731559983699640
    Molecular point group: c1
  Basis Set: CC-PVTZ
  Basis Set:

  -Total Gradient:
     Atom            X                  Y                   Z
    ------   -----------------  -----------------  -----------------
       1       -0.000003880716    -0.000000179792     0.000005008971
       2        0.000007001053    -0.000002098620    -0.000006012845
       3        0.000005572075     0.000006907009    -0.000006757934
       4       -0.000002270527     0.000003785143     0.000004588156
       5        0.002228341452    -0.002225163991    -0.003892007077
       6       -0.000004998420     0.000001584668     0.000001054586
       7        0.000009351953     0.000001758626    -0.000000066445
       8        0.001586459391    -0.004057139202    -0.002012708398
       9       -0.002368087862     0.002996874378     0.003904201138
      10        0.000000835630    -0.000003786705     0.000002896407
      11       -0.001452167555     0.003274871284     0.001990333166
      12        0.000002769621     0.000005565900     0.000000601891
      13       -0.000002051774    -0.000004086646     0.000006204809
      14        0.000004870093     0.000003128418     0.000000879217
      15       -0.000010622233    -0.000001213141    -0.000000473044
      16        0.000000015464    -0.000000458781     0.000005387224
      17        0.000000691599    -0.000000658808    -0.000000905936
      18       -0.000001323586    -0.000000595587    -0.000000584182
      19       -0.000000505665     0.000000905846    -0.000001639707

  **** Optimization is complete! (in 9 steps) ****
    Final optimized geometry and variables:
    Molecular point group: c1

    Geometry (in Angstrom), charge = 0, multiplicity = 1:

    O           -1.947352800137    -1.084511587252    -0.656930080440
    C           -1.510897187384    -0.031954255180    -0.320785447429
    C           -0.210884352060     0.063393634490     0.452713519407
    C           -2.216342119118     1.260698767483    -0.656207930571
    C            0.986186223760     0.044424753798    -0.511359222843
    H           -0.194583835468     0.972174934686     1.045966558372
    H           -0.171741557361    -0.783549237429     1.122735371708
    C            2.351604741673     0.241280458239     0.163352260759
    H            0.843255148167     0.854206367402    -1.220417311757
    H            0.965184498179    -0.887338481528    -1.063435725854
    C            2.547075289647    -0.480822528758     1.494064424876
    H            3.124072034715    -0.065362921533    -0.533451268554
    H            2.504800936970     1.303769141097     0.332134275028
    H            2.376166669385    -1.548445854261     1.400180351066
    H            1.878789605405    -0.104162316963     2.258084726128
    H            3.560907605730    -0.341558693061     1.850644035963
    H           -3.032132104498     1.073188584915    -1.337286683441
    H           -1.526030930818     1.975295817053    -1.089952224865
    H           -2.602316561099     1.701729473873     0.257355582639

  Mulliken Charges: (a.u.)
   Center  Symbol    Alpha    Beta     Spin     Total
       1     O     4.17710  4.17710  0.00000 -0.35420
       2     C     2.85890  2.85890  0.00000  0.28219
       3     C     3.10369  3.10369  0.00000 -0.20739
       4     C     3.15530  3.15530  0.00000 -0.31061
       5     C     3.10322  3.10322  0.00000 -0.20644
       6     H     0.44869  0.44869  0.00000  0.10262
       7     H     0.43665  0.43665  0.00000  0.12670
       8     C     3.08969  3.08969  0.00000 -0.17939
       9     H     0.44891  0.44891  0.00000  0.10218
      10     H     0.43882  0.43882  0.00000  0.12235
      11     C     3.15648  3.15648  0.00000 -0.31297
      12     H     0.44658  0.44658  0.00000  0.10684
      13     H     0.45388  0.45388  0.00000  0.09224
      14     H     0.45056  0.45056  0.00000  0.09887
      15     H     0.45234  0.45234  0.00000  0.09533
      16     H     0.44397  0.44397  0.00000  0.11205
      17     H     0.43574  0.43574  0.00000  0.12852
      18     H     0.45114  0.45114  0.00000  0.09772
      19     H     0.44831  0.44831  0.00000  0.10337

   Total alpha = 28.00000, Total beta = 28.00000, Total charge = -0.00000
