  ==> Input File <==

--------------------------------------------------------------------------
set {
	reference rhf
	basis 6-31G*
}

set_num_threads( 4 )
memory 2 gb

molecule MOL {
0 1

O	 1.846825	 1.296220	 0.000415
C	 1.705091	 0.115954	 0.001797
C	 0.381791	 -0.609817	 0.001258
O	 2.721346	 -0.737485	 -0.000216
C	 -0.823008	 0.326187	 0.001381
H	 0.371250	 -1.265087	 -0.865474
H	 0.370908	 -1.265746	 0.867490
C	 -2.149452	 -0.435131	 -0.000098
H	 -0.770201	 0.977095	 -0.865636
H	 -0.771220	 0.975655	 0.869608
C	 -3.368779	 0.488503	 -0.000883
H	 -2.193746	 -1.087250	 -0.871175
H	 -2.195311	 -1.087803	 0.870418
C	 -4.691633	 -0.269777	 0.100697
H	 -3.364676	 1.088066	 -0.908434
H	 -3.289239	 1.189013	 0.827427
H	 -4.816551	 -0.954375	 -0.733530
H	 -5.536502	 0.411868	 0.097997
H	 -4.740311	 -0.853031	 1.015988
C	 4.024888	 -0.184556	 -0.001949
H	 4.179030	 0.422472	 -0.882452
H	 4.701782	 -1.024608	 -0.003642
H	 4.181981	 0.421185	 0.878906

	symmetry c1
}
set optking {
	frozen_dihedral = ("
		15 11 8 12
	")
}

ee = optimize('scf')
oeprop('DIPOLE', 'QUADRUPOLE', 'MULLIKEN_CHARGES')
f=open( 'psi4out.xyz', 'w' )
f.write( "23  " )
f.write( str(ee) + "\n" )
f.write( MOL.save_string_xyz() )
f.close()
--------------------------------------------------------------------------

    Molecular point group: c1
  Charge       = 0
  Multiplicity = 1
  Basis Set: 6-31G*
  Basis Set:
  @DF-RHF Final Energy:  -422.97624327048021
    Total Energy =                       -422.9762432704801540
    Molecular point group: c1
  Basis Set: 6-31G*
  Basis Set:
  Basis Set: 6-31G*
  Basis Set:
  @DF-RHF Final Energy:  -422.97619372784465
    Total Energy =                       -422.9761937278444748
  Basis Set: 6-31G*
  Basis Set:
  Basis Set: 6-31G*
  Basis Set:
  @DF-RHF Final Energy:  -422.97620943642028
    Total Energy =                       -422.9762094364201630
  Basis Set: 6-31G*
  Basis Set:
  Basis Set: 6-31G*
  Basis Set:
  @DF-RHF Final Energy:  -422.97625526289613
    Total Energy =                       -422.9762552628955063
  Basis Set: 6-31G*
  Basis Set:
  Charge       = 0
  Multiplicity = 1
  Basis Set: 6-31G*
  Basis Set:

    Orbital Energies (a.u.)
    -----------------------

    Doubly Occupied:

       1A    -20.603621     2A    -20.545424     3A    -11.372246
       4A    -11.280844     5A    -11.235523     6A    -11.219235
       7A    -11.217906     8A    -11.216489     9A    -11.209589
      10A     -1.469315    11A     -1.362764    12A     -1.093191
      13A     -1.043631    14A     -0.987014    15A     -0.932063
      16A     -0.843470    17A     -0.794992    18A     -0.767260
      19A     -0.696832    20A     -0.683872    21A     -0.671487
      22A     -0.651929    23A     -0.609413    24A     -0.599338
      25A     -0.572738    26A     -0.558687    27A     -0.556556
      28A     -0.523783    29A     -0.521199    30A     -0.507550
      31A     -0.484543    32A     -0.469499    33A     -0.466568
      34A     -0.461196    35A     -0.455633    36A     -0.435440

  @DF-RHF Final Energy:  -422.97625558620581

   => Energetics <=

    Nuclear Repulsion Energy =            452.1296544358255574
    One-Electron Energy =               -1471.9701405285049987
    Two-Electron Energy =                 596.8642305064732909
    DFT Exchange-Correlation Energy =       0.0000000000000000
    Empirical Dispersion Energy =           0.0000000000000000
    PCM Polarization Energy =               0.0000000000000000
    EFP Energy =                            0.0000000000000000
    Total Energy =                       -422.9762555862060935
    Molecular point group: c1
  Basis Set: 6-31G*
  Basis Set:

  -Total Gradient:
     Atom            X                  Y                   Z
    ------   -----------------  -----------------  -----------------
       1       -0.000002670811    -0.000000295163    -0.000010924155
       2        0.000003131177     0.000000130278     0.000018514975
       3        0.000005368009    -0.000000087554    -0.000023003093
       4       -0.000003658096    -0.000001031467    -0.000009287614
       5       -0.000002630350     0.000001689672     0.000060773456
       6        0.000000893660    -0.000008126177    -0.000001196263
       7        0.000000788280     0.000007665830    -0.000000046025
       8       -0.000603508422    -0.000781927419     0.000421273716
       9       -0.000007372292     0.000001079660     0.000003229518
      10        0.000013638084     0.000002376550     0.000002976339
      11        0.000617868735     0.000812886330     0.000318403993
      12        0.000404194622     0.000529951195    -0.000421502433
      13       -0.000004814904     0.000007009268     0.000000147870
      14        0.000003652716    -0.000000712336     0.000024546909
      15       -0.000417029307    -0.000559016823    -0.000380635679
      16        0.000003460579    -0.000006301268    -0.000009137111
      17       -0.000000103008     0.000007642567    -0.000002224514
      18       -0.000001663866    -0.000000460839     0.000007136985
      19       -0.000006692870    -0.000012565038    -0.000000285358
      20       -0.000001878502    -0.000000549947     0.000002547137
      21       -0.000000475256     0.000000441935    -0.000000506108
      22       -0.000000690331     0.000000180778    -0.000000313579
      23        0.000000192147     0.000000019966    -0.000000488965

  **** Optimization is complete! (in 5 steps) ****
    Final optimized geometry and variables:
    Molecular point group: c1

    Geometry (in Angstrom), charge = 0, multiplicity = 1:

    O            1.846514282911     1.295794523998    -0.007902626017
    C            1.704879521314     0.115543929745    -0.011590777527
    C            0.381593404399    -0.610276472312    -0.009026486819
    O            2.721116373456    -0.737890987363    -0.018868125651
    C           -0.823306720345     0.325583862372    -0.000907436643
    H            0.367642167387    -1.262805626390    -0.877775750474
    H            0.374285553321    -1.268983800173     0.855150080317
    C           -2.149942017150    -0.436032022983     0.002008370696
    H           -0.774612114782     0.978628581689    -0.866712374455
    H           -0.767372787729     0.972979285323     0.868565249221
    C           -3.368319263635     0.488959818954    -0.009926616276
    H           -2.191032259117    -1.090964465468    -0.867010673488
    H           -2.196358778174    -1.082558254341     0.876913865415
    C           -4.692357582111    -0.269720036936     0.077368745688
    H           -3.356830208675     1.084059854184    -0.920249916116
    H           -3.298281330845     1.190362039606     0.818237127727
    H           -4.804615836126    -0.959886697319    -0.754174026318
    H           -5.537562649571     0.411219222184     0.057626491488
    H           -4.754234589362    -0.847076529367     0.995550750851
    C            4.024663328851    -0.184921939194    -0.022088827152
    H            4.176715947278     0.424728695349    -0.901135843866
    H            4.701576025518    -1.024993835542    -0.027989588068
    H            4.183876878903     0.418123823365     0.860239464882

  Mulliken Charges: (a.u.)
   Center  Symbol    Alpha    Beta     Spin     Total
       1     O     4.28608  4.28608  0.00000 -0.57215
       2     C     2.60487  2.60487  0.00000  0.79027
       3     C     3.20821  3.20821  0.00000 -0.41643
       4     O     4.30741  4.30741  0.00000 -0.61481
       5     C     3.15249  3.15249  0.00000 -0.30499
       6     H     0.40067  0.40067  0.00000  0.19866
       7     H     0.40066  0.40066  0.00000  0.19868
       8     C     3.15329  3.15329  0.00000 -0.30658
       9     H     0.41179  0.41179  0.00000  0.17643
      10     H     0.41172  0.41172  0.00000  0.17656
      11     C     3.15156  3.15156  0.00000 -0.30312
      12     H     0.42394  0.42394  0.00000  0.15211
      13     H     0.42395  0.42395  0.00000  0.15211
      14     C     3.23960  3.23960  0.00000 -0.47920
      15     H     0.42131  0.42131  0.00000  0.15737
      16     H     0.42117  0.42117  0.00000  0.15766
      17     H     0.42190  0.42190  0.00000  0.15620
      18     H     0.41853  0.41853  0.00000  0.16293
      19     H     0.42182  0.42182  0.00000  0.15636
      20     C     3.09245  3.09245  0.00000 -0.18489
      21     H     0.40908  0.40908  0.00000  0.18185
      22     H     0.40843  0.40843  0.00000  0.18314
      23     H     0.40908  0.40908  0.00000  0.18184

   Total alpha = 36.00000, Total beta = 36.00000, Total charge = -0.00000
