  ==> Input File <==

--------------------------------------------------------------------------
set {
	reference rhf
	basis 6-31G*
}

set_num_threads( 4 )
memory 2 gb

molecule MOL {
0 1

H	 -2.798360	 -0.862255	 -0.071053
N	 -1.863561	 -0.715187	 0.256814
C	 -1.344686	 0.554728	 -0.219830
H	 -1.300452	 -1.461917	 -0.101532
C	 0.081427	 0.741154	 0.254071
H	 -1.362155	 0.656231	 -1.305829
H	 -1.952773	 1.354456	 0.191809
O	 0.429373	 2.084897	 0.079782
H	 0.168241	 0.465227	 1.304769
H	 0.745254	 0.101564	 -0.323417
C	 1.751569	 2.381664	 0.398054
H	 1.900886	 3.439020	 0.226589
H	 1.968924	 2.160893	 1.441605
H	 2.445798	 1.821602	 -0.224992

	symmetry c1
}
set optking {
	frozen_dihedral = ("
		8 5 3 6
	")
}

ee = optimize('scf')
oeprop('DIPOLE', 'QUADRUPOLE', 'MULLIKEN_CHARGES')
f=open( 'psi4out.xyz', 'w' )
f.write( "14  " )
f.write( str(ee) + "\n" )
f.write( MOL.save_string_xyz() )
f.close()
--------------------------------------------------------------------------

    Molecular point group: c1
  Charge       = 0
  Multiplicity = 1
  Basis Set: 6-31G*
  Basis Set:
  @DF-RHF Final Energy:  -248.12187072594773
    Total Energy =                       -248.1218707259475877
    Molecular point group: c1
  Basis Set: 6-31G*
  Basis Set:
  Basis Set: 6-31G*
  Basis Set:
  @DF-RHF Final Energy:  -248.12233323983051
    Total Energy =                       -248.1223332398304251
  Basis Set: 6-31G*
  Basis Set:
  Basis Set: 6-31G*
  Basis Set:
  @DF-RHF Final Energy:  -248.12243681425781
    Total Energy =                       -248.1224368142578669
  Basis Set: 6-31G*
  Basis Set:
  Basis Set: 6-31G*
  Basis Set:
  @DF-RHF Final Energy:  -248.12245195687498
    Total Energy =                       -248.1224519568751248
  Basis Set: 6-31G*
  Basis Set:
  Charge       = 0
  Multiplicity = 1
  Basis Set: 6-31G*
  Basis Set:

    Orbital Energies (a.u.)
    -----------------------

    Doubly Occupied:

       1A    -20.554191     2A    -15.538209     3A    -11.264086
       4A    -11.263122     5A    -11.241028     6A     -1.378898
       7A     -1.180325     8A     -0.998368     9A     -0.899366
      10A     -0.822490    11A     -0.682529    12A     -0.668142
      13A     -0.647088    14A     -0.622186    15A     -0.598662
      16A     -0.554181    17A     -0.516662    18A     -0.498389
      19A     -0.468739    20A     -0.413897    21A     -0.387764

  @DF-RHF Final Energy:  -248.12245285378120

   => Energetics <=

    Nuclear Repulsion Energy =            190.7894919222926831
    One-Electron Energy =                -715.4272458448815541
    Two-Electron Energy =                 276.5153010688077302
    DFT Exchange-Correlation Energy =       0.0000000000000000
    Empirical Dispersion Energy =           0.0000000000000000
    PCM Polarization Energy =               0.0000000000000000
    EFP Energy =                            0.0000000000000000
    Total Energy =                       -248.1224528537811693
    Molecular point group: c1
  Basis Set: 6-31G*
  Basis Set:

  -Total Gradient:
     Atom            X                  Y                   Z
    ------   -----------------  -----------------  -----------------
       1       -0.000006087707     0.000015852681    -0.000013787484
       2        0.000010776971    -0.000059027226     0.000055502517
       3       -0.001007536173     0.004795260193     0.001057343925
       4        0.000009769247     0.000000138120    -0.000010761668
       5        0.001443681675    -0.001619302381    -0.003520030899
       6        0.000583324302    -0.003675647553    -0.000281065671
       7       -0.000022661923     0.000014172651    -0.000000787678
       8       -0.000990426476     0.000565761532     0.002679702457
       9        0.000011156175    -0.000001010786     0.000028833920
      10       -0.000015463834    -0.000011870563     0.000002422134
      11        0.000011350933    -0.000016526392     0.000018999880
      12       -0.000018742391    -0.000007249610    -0.000008554448
      13       -0.000002961288     0.000000617818    -0.000004199920
      14       -0.000006179513    -0.000001168487    -0.000003617065

  **** Optimization is complete! (in 5 steps) ****
    Final optimized geometry and variables:
    Molecular point group: c1

    Geometry (in Angstrom), charge = 0, multiplicity = 1:

    H           -2.651156778323    -1.806680901190    -0.037193353797
    N           -1.664290855109    -1.735367697856     0.115861171970
    C           -1.163033446405    -0.455410459456    -0.369602242865
    H           -1.242007576357    -2.494974089905    -0.383697621296
    C            0.269491701474    -0.255394150415     0.094965102832
    H           -1.203744674168    -0.373535009304    -1.455549274965
    H           -1.769239602070     0.336517872416     0.051312481511
    O            0.613445185543     1.083260474651    -0.100032980313
    H            0.339575906343    -0.517497931467     1.148233170689
    H            0.948774636499    -0.909047516463    -0.454210883737
    C            1.915792880822     1.399121743086     0.274134528740
    H            2.062818994628     2.454534561489     0.089520128332
    H            2.086176937889     1.198956343651     1.330334247243
    H            2.645452837280     0.835729288416    -0.304984103550

  Mulliken Charges: (a.u.)
   Center  Symbol    Alpha    Beta     Spin     Total
       1     H     0.32925  0.32925  0.00000  0.34150
       2     N     3.92667  3.92667  0.00000 -0.85335
       3     C     3.07510  3.07510  0.00000 -0.15019
       4     H     0.33438  0.33438  0.00000  0.33124
       5     C     2.98282  2.98282  0.00000  0.03435
       6     H     0.42645  0.42645  0.00000  0.14709
       7     H     0.40950  0.40950  0.00000  0.18101
       8     O     4.30805  4.30805  0.00000 -0.61610
       9     H     0.42069  0.42069  0.00000  0.15862
      10     H     0.43608  0.43608  0.00000  0.12784
      11     C     3.07921  3.07921  0.00000 -0.15842
      12     H     0.41234  0.41234  0.00000  0.17532
      13     H     0.42896  0.42896  0.00000  0.14207
      14     H     0.43049  0.43049  0.00000  0.13903

   Total alpha = 21.00000, Total beta = 21.00000, Total charge =  0.00000
