                              Psi4 1.0.54 Driver

  ==> Input File <==

--------------------------------------------------------------------------
set {
	reference rhf
	basis cc-pvtz
}

set_num_threads( 4 )
memory 2 gb

molecule MOL {
0 1

H	 -3.470074	 -0.400431	 -0.762012
O	 -3.106200	 -0.211208	 0.084242
C	 -1.772961	 -0.078518	 0.023690
C	 -1.071126	 -0.214303	 -1.167707
C	 -1.103497	 0.202659	 1.203071
H	 -1.597544	 -0.432474	 -2.078593
C	 0.295747	 -0.068297	 -1.173579
H	 -1.663680	 0.303385	 2.110853
C	 0.265442	 0.345863	 1.180148
H	 0.848746	 -0.170649	 -2.086172
C	 0.981121	 0.213562	 0.000000
H	 0.785845	 0.564009	 2.094539
C	 2.447402	 0.371303	 0.000000
O	 3.227427	 -0.521847	 0.000000
H	 2.796538	 1.409525	 0.000000

	symmetry c1
}
set optking {
	frozen_dihedral = ("
		7 11 13 14
	")
}

ee,wfn = optimize('scf', return_wfn=True)
oeprop( wfn, 'DIPOLE', 'QUADRUPOLE', 'MULLIKEN_CHARGES')
f=open( 'psi4out.xyz', 'w' )
f.write( "15  " )
f.write( str(ee) + "\n" )
f.write( MOL.save_string_xyz() )
f.close()
--------------------------------------------------------------------------

    Molecular point group: c1
  Charge       = 0
  Multiplicity = 1
  Basis Set: CC-PVTZ
  Basis Set:
  @DF-RHF Final Energy:  -418.42695345027079
    Total Energy =                       -418.4269534502707302
    Molecular point group: c1
  Basis Set: CC-PVTZ
  Basis Set:
  Basis Set: CC-PVTZ
  Basis Set:
  @DF-RHF Final Energy:  -418.42744461753591
    Total Energy =                       -418.4274446175361390
  Basis Set: CC-PVTZ
  Basis Set:
  Basis Set: CC-PVTZ
  Basis Set:
  @DF-RHF Final Energy:  -418.42766851496015
    Total Energy =                       -418.4276685149602599
  Basis Set: CC-PVTZ
  Basis Set:
  Basis Set: CC-PVTZ
  Basis Set:
  @DF-RHF Final Energy:  -418.42775293746269
    Total Energy =                       -418.4277529374626283
  Basis Set: CC-PVTZ
  Basis Set:
  Basis Set: CC-PVTZ
  Basis Set:
  @DF-RHF Final Energy:  -418.42775599594694
    Total Energy =                       -418.4277559959466544
  Basis Set: CC-PVTZ
  Basis Set:
  Charge       = 0
  Multiplicity = 1
  Basis Set: CC-PVTZ
  Basis Set:

    Orbital Energies (a.u.)
    -----------------------

    Doubly Occupied:

       1A    -20.596667     2A    -20.561231     3A    -11.330513
       4A    -11.311670     5A    -11.252551     6A    -11.251568
       7A    -11.242362     8A    -11.240308     9A    -11.235544
      10A     -1.428389    11A     -1.415175    12A     -1.172771
      13A     -1.041352    14A     -1.039097    15A     -0.889856
      16A     -0.864517    17A     -0.802741    18A     -0.756799
      19A     -0.712568    20A     -0.678083    21A     -0.659993
      22A     -0.631163    23A     -0.607933    24A     -0.607529
      25A     -0.594615    26A     -0.565467    27A     -0.534689
      28A     -0.505435    29A     -0.498625    30A     -0.425398
      31A     -0.358717    32A     -0.328380

  @DF-RHF Final Energy:  -418.42775663919548

   => Energetics <=

    Nuclear Repulsion Energy =            401.0157100513526416
    One-Electron Energy =               -1364.6035211177115798
    Two-Electron Energy =                 545.1600544271636863
    DFT Exchange-Correlation Energy =       0.0000000000000000
    Empirical Dispersion Energy =           0.0000000000000000
    PCM Polarization Energy =               0.0000000000000000
    EFP Energy =                            0.0000000000000000
    Total Energy =                       -418.4277566391951950
    Molecular point group: c1
  Basis Set: CC-PVTZ
  Basis Set:

  -Total Gradient:
     Atom            X                  Y                   Z
    ------   -----------------  -----------------  -----------------
       1        0.000007188507     0.000008480464     0.000000881617
       2       -0.000018157934    -0.000040522814    -0.000005044428
       3        0.000024148540     0.000093370121     0.000089459541
       4        0.000064303796    -0.000026959174    -0.000030365088
       5       -0.000121304530    -0.000031809192    -0.000064306115
       6       -0.000006100802     0.000001181167     0.000002208735
       7       -0.000474835190     0.003023490620    -0.000497796240
       8        0.000014451278     0.000005019541     0.000003882251
       9        0.000120947498    -0.000031326122    -0.000082930137
      10        0.000000683643     0.000000168710     0.000005251733
      11        0.000606532800    -0.004466536690     0.002477681667
      12       -0.000008483141     0.000001837340     0.000004979473
      13       -0.000227425397     0.001545713252    -0.005675630481
      14        0.000028771742    -0.000080521052     0.003772390782
      15       -0.000010720810    -0.000001586169    -0.000000663304

  **** Optimization is complete! (in 6 steps) ****
    Final optimized geometry and variables:
    Molecular point group: c1

    Geometry (in Angstrom), charge = 0, multiplicity = 1:

    H           -3.487057668372    -0.391085760387    -0.765809608592
    O           -3.122542106039    -0.195446128065     0.078489378967
    C           -1.783676577831    -0.070341109021     0.012646699798
    C           -1.081666047792    -0.203188705909    -1.170229743671
    C           -1.107851914311     0.206674668401     1.189923500875
    H           -1.602301760667    -0.412629019895    -2.086657058292
    C            0.294097376306    -0.068639621273    -1.172654046462
    H           -1.664805230435     0.309117606463     2.099981485229
    C            0.261023488974     0.349651039218     1.172872919369
    H            0.831068096763    -0.181771429563    -2.095351846965
    C            0.978759918309     0.194418513254    -0.003386691137
    H            0.774466005971     0.573038546439     2.089660153596
    C            2.463638062994     0.391111189744    -0.012634330073
    O            3.251996835546    -0.488134059171    -0.045969161738
    H            2.804464704363     1.430519792194     0.045138619859

  Mulliken Charges: (a.u.)
   Center  Symbol    Alpha    Beta     Spin     Total
       1     H     0.38654  0.38654  0.00000  0.22691
       2     O     4.17046  4.17046  0.00000 -0.34092
       3     C     2.85715  2.85715  0.00000  0.28570
       4     C     3.12348  3.12348  0.00000 -0.24696
       5     C     3.09882  3.09882  0.00000 -0.19765
       6     H     0.43223  0.43223  0.00000  0.13555
       7     C     3.08913  3.08913  0.00000 -0.17826
       8     H     0.41697  0.41697  0.00000  0.16606
       9     C     3.07844  3.07844  0.00000 -0.15688
      10     H     0.41928  0.41928  0.00000  0.16144
      11     C     2.95477  2.95477  0.00000  0.09046
      12     H     0.42243  0.42243  0.00000  0.15515
      13     C     2.93390  2.93390  0.00000  0.13219
      14     O     4.15680  4.15680  0.00000 -0.31359
      15     H     0.45960  0.45960  0.00000  0.08079

   Total alpha = 32.00000, Total beta = 32.00000, Total charge =  0.00000

*** Psi4 exiting successfully. Buy a developer a beer!
