                              Psi4 1.0.54 Driver

  ==> Input File <==

--------------------------------------------------------------------------
set {
	reference rhf
	basis cc-pvtz
}

set_num_threads( 4 )
memory 2 gb

molecule MOL {
0 1

H	 -0.366580	 2.045936	 -0.305741
C	 0.351829	 1.335402	 0.083179
N	 -0.000018	 0.000080	 -0.334836
H	 1.327156	 1.599860	 -0.305475
H	 0.380566	 1.445403	 1.171445
C	 -0.467192	 -0.805150	 0.767767
C	 -0.936248	 0.007054	 -1.432864
H	 -0.655043	 -1.817359	 0.432750
H	 0.287749	 -0.844548	 1.542814
H	 -1.389230	 -0.420003	 1.213388
H	 -0.524251	 0.561267	 -2.266704
H	 -1.123806	 -1.006045	 -1.765395
H	 -1.896778	 0.459326	 -1.168398

	symmetry c1
}
set optking {
	frozen_dihedral = ("
		6 3 2 1
	")
}

ee,wfn = optimize('scf', return_wfn=True)
oeprop( wfn, 'DIPOLE', 'QUADRUPOLE', 'MULLIKEN_CHARGES')
f=open( 'psi4out.xyz', 'w' )
f.write( "13  " )
f.write( str(ee) + "\n" )
f.write( MOL.save_string_xyz() )
f.close()
--------------------------------------------------------------------------

    Molecular point group: c1
  Charge       = 0
  Multiplicity = 1
  Basis Set: CC-PVTZ
  Basis Set:
  @DF-RHF Final Energy:  -173.32755278668969
    Total Energy =                       -173.3275527866896937
    Molecular point group: c1
  Basis Set: CC-PVTZ
  Basis Set:
  Basis Set: CC-PVTZ
  Basis Set:
  @DF-RHF Final Energy:  -173.32840295332747
    Total Energy =                       -173.3284029533275543
  Basis Set: CC-PVTZ
  Basis Set:
  Basis Set: CC-PVTZ
  Basis Set:
  @DF-RHF Final Energy:  -173.32856870974518
    Total Energy =                       -173.3285687097451557
  Basis Set: CC-PVTZ
  Basis Set:
  Basis Set: CC-PVTZ
  Basis Set:
  @DF-RHF Final Energy:  -173.32858403706749
    Total Energy =                       -173.3285840370675146
  Basis Set: CC-PVTZ
  Basis Set:
  Charge       = 0
  Multiplicity = 1
  Basis Set: CC-PVTZ
  Basis Set:

    Orbital Energies (a.u.)
    -----------------------

    Doubly Occupied:

       1A    -15.534572     2A    -11.234174     3A    -11.234067
       4A    -11.233853     5A     -1.221632     6A     -0.952821
       7A     -0.951990     8A     -0.805850     9A     -0.638249
      10A     -0.630643    11A     -0.629021    12A     -0.548593
      13A     -0.545048    14A     -0.515703    15A     -0.503286
      16A     -0.502172    17A     -0.339487

  @DF-RHF Final Energy:  -173.32858537655946

   => Energetics <=

    Nuclear Repulsion Energy =            138.9335811433054175
    One-Electron Energy =                -508.4820097699422377
    Two-Electron Energy =                 196.2198432500771901
    DFT Exchange-Correlation Energy =       0.0000000000000000
    Empirical Dispersion Energy =           0.0000000000000000
    PCM Polarization Energy =               0.0000000000000000
    EFP Energy =                            0.0000000000000000
    Total Energy =                       -173.3285853765596016
    Molecular point group: c1
  Basis Set: CC-PVTZ
  Basis Set:

  -Total Gradient:
     Atom            X                  Y                   Z
    ------   -----------------  -----------------  -----------------
       1        0.002008993156     0.000401742010    -0.003184474770
       2       -0.001446398269    -0.000818416589     0.004299980962
       3       -0.003255423013     0.001343615056    -0.001500355014
       4       -0.000036350732    -0.000007818467    -0.000017344023
       5       -0.000000684366    -0.000026686503    -0.000012438167
       6        0.002719321522    -0.000901371908     0.000448831657
       7        0.000015414570     0.000036013071    -0.000031004741
       8       -0.000005192041     0.000001511368     0.000004479813
       9       -0.000004874317    -0.000018719761     0.000021868281
      10        0.000011657472    -0.000004601583    -0.000017256913
      11       -0.000019068665    -0.000001325310    -0.000015959852
      12       -0.000001766304     0.000003025793    -0.000005286513
      13        0.000014370986    -0.000006967175     0.000008959280

  **** Optimization is complete! (in 5 steps) ****
    Final optimized geometry and variables:
    Molecular point group: c1

    Geometry (in Angstrom), charge = 0, multiplicity = 1:

    H           -0.051628819184     1.965775324404    -0.011471456206
    C            0.645334944066     1.201749282654     0.328395123344
    N            0.247968067532    -0.128554872202    -0.092330834499
    H            1.616459756743     1.460602524691    -0.082383065170
    H            0.716365774650     1.264889299651     1.406004879795
    C           -0.206486884954    -0.978179340135     0.978845792040
    C           -0.624158221523    -0.127693865343    -1.237175703761
    H           -0.377075511395    -1.979949583782     0.604070363532
    H            0.550316161544    -1.039904260366     1.750103805719
    H           -1.135925941544    -0.633790604660     1.443927781434
    H           -0.175222851707     0.438605971418    -2.044093206827
    H           -0.776217909089    -1.140189017640    -1.590121747547
    H           -1.605969488487     0.308566743568    -1.027414871120

  Mulliken Charges: (a.u.)
   Center  Symbol    Alpha    Beta     Spin     Total
       1     H     0.46688  0.46688  0.00000  0.06623
       2     C     3.08601  3.08601  0.00000 -0.17203
       3     N     3.59826  3.59826  0.00000 -0.19651
       4     H     0.45168  0.45168  0.00000  0.09663
       5     H     0.45785  0.45785  0.00000  0.08429
       6     C     3.08925  3.08925  0.00000 -0.17850
       7     C     3.09008  3.09008  0.00000 -0.18016
       8     H     0.45372  0.45372  0.00000  0.09257
       9     H     0.45263  0.45263  0.00000  0.09473
      10     H     0.47392  0.47392  0.00000  0.05216
      11     H     0.45245  0.45245  0.00000  0.09510
      12     H     0.45379  0.45379  0.00000  0.09242
      13     H     0.47346  0.47346  0.00000  0.05307

   Total alpha = 17.00000, Total beta = 17.00000, Total charge =  0.00000

*** Psi4 exiting successfully. Buy a developer a beer!
