  ==> Input File <==

--------------------------------------------------------------------------
set {
	reference rhf
	basis cc-pvtz
}

set_num_threads( 4 )
memory 2 gb

molecule MOL {
0 1

H	 2.867672	 -0.456275	 0.875795
C	 2.403497	 -0.020426	 0.000000
N	 0.989899	 -0.304564	 0.000000
H	 2.867672	 -0.456275	 -0.875795
H	 2.620366	 1.051270	 0.000000
C	 0.616906	 -1.257057	 -1.025281
C	 0.184359	 0.894881	 -0.100014
H	 0.849891	 -0.879261	 -2.025647
H	 1.177878	 -2.173285	 -0.881873
C	 -0.867261	 -1.557717	 -0.941064
H	 0.427957	 1.557603	 0.722293
H	 0.384810	 1.434536	 -1.030786
C	 -1.288695	 0.538930	 -0.039571
H	 -1.171992	 -2.195894	 -1.758680
H	 -1.081993	 -2.069736	 -0.005208
O	 -1.625014	 -0.387601	 -1.029305
H	 -1.898053	 1.416289	 -0.205553
H	 -1.525234	 0.135406	 0.942935

	symmetry c1
}
set optking {
	frozen_dihedral = ("
		6 3 2 5
	")
}

ee = optimize('scf')
oeprop('DIPOLE', 'QUADRUPOLE', 'MULLIKEN_CHARGES')
f=open( 'psi4out.xyz', 'w' )
f.write( "18  " )
f.write( str(ee) + "\n" )
f.write( MOL.save_string_xyz() )
f.close()
--------------------------------------------------------------------------

    Molecular point group: c1
  Charge       = 0
  Multiplicity = 1
  Basis Set: CC-PVTZ
  Basis Set:
  @DF-RHF Final Energy:  -325.13921475116359
    Total Energy =                       -325.1392147511637631
    Molecular point group: c1
  Basis Set: CC-PVTZ
  Basis Set:
  Basis Set: CC-PVTZ
  Basis Set:
  @DF-RHF Final Energy:  -325.13981219168153
    Total Energy =                       -325.1398121916817558
  Basis Set: CC-PVTZ
  Basis Set:
  Basis Set: CC-PVTZ
  Basis Set:
  @DF-RHF Final Energy:  -325.13991817145535
    Total Energy =                       -325.1399181714554629
  Basis Set: CC-PVTZ
  Basis Set:
  Charge       = 0
  Multiplicity = 1
  Basis Set: CC-PVTZ
  Basis Set:

    Orbital Energies (a.u.)
    -----------------------

    Doubly Occupied:

       1A    -20.546923     2A    -15.541547     3A    -11.263518
       4A    -11.263495     5A    -11.242390     6A    -11.242323
       7A    -11.238847     8A     -1.385857     9A     -1.229206
      10A     -1.038558    11A     -0.980892    12A     -0.883257
      13A     -0.870475    14A     -0.774126    15A     -0.684340
      16A     -0.645473    17A     -0.644036    18A     -0.631437
      19A     -0.628346    20A     -0.572512    21A     -0.557863
      22A     -0.548105    23A     -0.526735    24A     -0.499944
      25A     -0.483792    26A     -0.453264    27A     -0.409797
      28A     -0.350328

  @DF-RHF Final Energy:  -325.13991989067944

   => Energetics <=

    Nuclear Repulsion Energy =            341.3958934108086964
    One-Electron Energy =               -1118.7968546986699039
    Two-Electron Energy =                 452.2610413971819412
    DFT Exchange-Correlation Energy =       0.0000000000000000
    Empirical Dispersion Energy =           0.0000000000000000
    PCM Polarization Energy =               0.0000000000000000
    EFP Energy =                            0.0000000000000000
    Total Energy =                       -325.1399198906793231
    Molecular point group: c1
  Basis Set: CC-PVTZ
  Basis Set:

  -Total Gradient:
     Atom            X                  Y                   Z
    ------   -----------------  -----------------  -----------------
       1       -0.000004122736    -0.000010169893     0.000011135768
       2       -0.000055244402     0.000414340304     0.001711764276
       3        0.000360457677    -0.001340470934     0.000763412696
       4        0.000007452675     0.000000962299    -0.000006152293
       5        0.000069357690    -0.000050991384    -0.001619695649
       6       -0.000186383489     0.000908526976    -0.000920532111
       7       -0.000137038117    -0.000004666659    -0.000015402922
       8        0.000016096133     0.000011100055     0.000030681632
       9        0.000004814124     0.000034377048     0.000027955289
      10        0.000010655898    -0.000002218179     0.000053240830
      11       -0.000000012005    -0.000039420518    -0.000010525300
      12       -0.000008896769    -0.000029196623     0.000030161679
      13       -0.000028300376     0.000127490449    -0.000028576521
      14       -0.000015916022    -0.000002507535    -0.000009091201
      15       -0.000012387528    -0.000002468546    -0.000003688774
      16        0.000029340981    -0.000016256251     0.000026136752
      17       -0.000075331240     0.000010806517     0.000001232037
      18        0.000025457509    -0.000009237124    -0.000042056189

  **** Optimization is complete! (in 4 steps) ****
    Final optimized geometry and variables:
    Molecular point group: c1

    Geometry (in Angstrom), charge = 0, multiplicity = 1:

    H            2.817459545816    -0.161239162864     1.360942737479
    C            2.362306431306     0.263595677142     0.473346038587
    N            0.933195335266     0.000475018644     0.435078057276
    H            2.868381337661    -0.154026159674    -0.392432015385
    H            2.564333485167     1.328287849909     0.465213000425
    C            0.551901937435    -0.957043142739    -0.581980408047
    C            0.121500662341     1.196951958801     0.344129330928
    H            0.773911034367    -0.584883836724    -1.586765509100
    H            1.113787696985    -1.873110251639    -0.440204967049
    C           -0.930222178089    -1.262471214342    -0.481161681808
    H            0.365811196502     1.858570439575     1.166745492783
    H            0.307049219917     1.741933419522    -0.586556300645
    C           -1.349220778022     0.833883879371     0.420555058856
    H           -1.241146993467    -1.903652880419    -1.294325681955
    H           -1.132716996974    -1.773527608687     0.458040362212
    O           -1.693133681292    -0.095510265799    -0.563649955791
    H           -1.964625508111     1.708477694620     0.260997015676
    H           -1.571857269852     0.430361880748     1.406387287326

  Mulliken Charges: (a.u.)
   Center  Symbol    Alpha    Beta     Spin     Total
       1     H     0.44907  0.44907  0.00000  0.10186
       2     C     3.08973  3.08973  0.00000 -0.17945
       3     N     3.61990  3.61990  0.00000 -0.23980
       4     H     0.46181  0.46181  0.00000  0.07638
       5     H     0.45888  0.45888  0.00000  0.08224
       6     C     3.04221  3.04221  0.00000 -0.08442
       7     C     3.04174  3.04174  0.00000 -0.08349
       8     H     0.46858  0.46858  0.00000  0.06283
       9     H     0.45342  0.45342  0.00000  0.09317
      10     C     2.98455  2.98455  0.00000  0.03090
      11     H     0.45352  0.45352  0.00000  0.09296
      12     H     0.46870  0.46870  0.00000  0.06259
      13     C     2.98459  2.98459  0.00000  0.03082
      14     H     0.45014  0.45014  0.00000  0.09972
      15     H     0.46831  0.46831  0.00000  0.06338
      16     O     4.18640  4.18640  0.00000 -0.37280
      17     H     0.45007  0.45007  0.00000  0.09985
      18     H     0.46837  0.46837  0.00000  0.06326

   Total alpha = 28.00000, Total beta = 28.00000, Total charge = -0.00000
