                              Psi4 1.0.54 Driver

  ==> Input File <==

--------------------------------------------------------------------------
set {
	reference rhf
	basis cc-pvtz
}

set_num_threads( 4 )
memory 2 gb

molecule MOL {
0 1

H	 2.614283	 2.028610	 0.296620
O	 3.358864	 1.662087	 -0.142800
C	 3.565468	 0.338079	 0.273842
C	 2.533667	 -0.637565	 -0.272227
H	 4.548038	 0.064914	 -0.086598
H	 3.593945	 0.282242	 1.360360
C	 1.114816	 -0.402372	 0.240993
H	 2.544552	 -0.580764	 -1.356576
H	 2.850574	 -1.642962	 -0.005497
C	 0.479662	 -1.664710	 0.822302
H	 0.497988	 -0.027676	 -0.569025
H	 1.132193	 0.372577	 1.005479
C	 -0.915453	 -1.470275	 1.419047
H	 0.436605	 -2.430130	 0.051260
H	 1.133413	 -2.054102	 1.597835
C	 -2.008451	 -1.125511	 0.408979
H	 -1.196705	 -2.385099	 1.933363
H	 -0.874194	 -0.696433	 2.182343
C	 -3.397018	 -1.039762	 1.037421
H	 -2.018188	 -1.876518	 -0.378016
H	 -1.784680	 -0.179931	 -0.075590
C	 -4.490129	 -0.692017	 0.032395
H	 -3.634334	 -1.987109	 1.513649
H	 -3.386784	 -0.295854	 1.829607
H	 -4.547485	 -1.435054	 -0.756175
H	 -5.461889	 -0.641882	 0.510176
H	 -4.301701	 0.269149	 -0.434517

	symmetry c1
}
set optking {
	frozen_dihedral = ("
		10 7 4 8
	")
}

ee,wfn = optimize('scf', return_wfn=True)
oeprop( wfn, 'DIPOLE', 'QUADRUPOLE', 'MULLIKEN_CHARGES')
f=open( 'psi4out.xyz', 'w' )
f.write( "27  " )
f.write( str(ee) + "\n" )
f.write( MOL.save_string_xyz() )
f.close()
--------------------------------------------------------------------------

    Molecular point group: c1
  Charge       = 0
  Multiplicity = 1
  Basis Set: CC-PVTZ
  Basis Set:
  @DF-RHF Final Energy:  -388.42262644926865
    Total Energy =                       -388.4226264492689324
    Molecular point group: c1
  Basis Set: CC-PVTZ
  Basis Set:
  Basis Set: CC-PVTZ
  Basis Set:
  @DF-RHF Final Energy:  -388.42296005042522
    Total Energy =                       -388.4229600504248765
  Basis Set: CC-PVTZ
  Basis Set:
  Basis Set: CC-PVTZ
  Basis Set:
  @DF-RHF Final Energy:  -388.42303183939771
    Total Energy =                       -388.4230318393980497
  Basis Set: CC-PVTZ
  Basis Set:
  Basis Set: CC-PVTZ
  Basis Set:
  @DF-RHF Final Energy:  -388.42302788170474
    Total Energy =                       -388.4230278817046838
  Basis Set: CC-PVTZ
  Basis Set:
  Basis Set: CC-PVTZ
  Basis Set:
  @DF-RHF Final Energy:  -388.42304184366071
    Total Energy =                       -388.4230418436611671
  Basis Set: CC-PVTZ
  Basis Set:
  Charge       = 0
  Multiplicity = 1
  Basis Set: CC-PVTZ
  Basis Set:

    Orbital Energies (a.u.)
    -----------------------

    Doubly Occupied:

       1A    -20.544717     2A    -11.264702     3A    -11.218329
       4A    -11.216488     5A    -11.214329     6A    -11.214076
       7A    -11.213560     8A    -11.212395     9A    -11.207535
      10A     -1.362866    11A     -1.096368    12A     -1.061793
      13A     -1.012373    14A     -0.949548    15A     -0.889311
      16A     -0.822856    17A     -0.802060    18A     -0.779429
      19A     -0.698001    20A     -0.648772    21A     -0.628636
      22A     -0.623663    23A     -0.607485    24A     -0.585487
      25A     -0.576761    26A     -0.556697    27A     -0.542845
      28A     -0.526764    29A     -0.511105    30A     -0.498177
      31A     -0.485367    32A     -0.475564    33A     -0.469261
      34A     -0.461877    35A     -0.447961    36A     -0.441348
      37A     -0.427596

  @DF-RHF Final Energy:  -388.42304209457876

   => Energetics <=

    Nuclear Repulsion Energy =            459.0424212635292065
    One-Electron Energy =               -1436.3387197045944959
    Two-Electron Energy =                 588.8732563464864143
    DFT Exchange-Correlation Energy =       0.0000000000000000
    Empirical Dispersion Energy =           0.0000000000000000
    PCM Polarization Energy =               0.0000000000000000
    EFP Energy =                            0.0000000000000000
    Total Energy =                       -388.4230420945789319
    Molecular point group: c1
  Basis Set: CC-PVTZ
  Basis Set:

  -Total Gradient:
     Atom            X                  Y                   Z
    ------   -----------------  -----------------  -----------------
       1        0.000023011483    -0.000016406357     0.000002324331
       2        0.000016518868     0.000012663056    -0.000058321167
       3       -0.000050066858     0.000012435943     0.000096415907
       4       -0.000294271447    -0.002638160185     0.000316914021
       5       -0.000008771577     0.000020989303    -0.000004186115
       6        0.000015381945    -0.000009061315     0.000000485636
       7       -0.000727929782     0.000038705270    -0.001987263678
       8        0.000412455984     0.002219759745     0.000153092350
       9       -0.000016320566     0.000011077024     0.000002276349
      10        0.000615829185     0.000360830490     0.001471145979
      11        0.000006582568    -0.000000878801    -0.000011862171
      12        0.000001902932    -0.000009048111     0.000020034143
      13        0.000000292764     0.000003887094    -0.000002817826
      14       -0.000001853746    -0.000003373959     0.000006100172
      15       -0.000003742153     0.000006049482     0.000001678529
      16        0.000003348339    -0.000008649605    -0.000003207367
      17       -0.000004637485     0.000000793314    -0.000002655568
      18        0.000005554893    -0.000000815529     0.000004265304
      19       -0.000000053943    -0.000004403995    -0.000000050112
      20       -0.000000872305    -0.000000162142    -0.000002297933
      21        0.000004044203     0.000001453256    -0.000002197188
      22        0.000002993422     0.000003151634     0.000000273910
      23       -0.000000034335    -0.000001332094    -0.000001038063
      24        0.000000297088    -0.000000780540     0.000000516993
      25        0.000000028325    -0.000000817730     0.000000899855
      26        0.000000724164     0.000001508207     0.000000983474
      27       -0.000000411964     0.000000586545    -0.000001509764

  **** Optimization is complete! (in 6 steps) ****
    Final optimized geometry and variables:
    Molecular point group: c1

    Geometry (in Angstrom), charge = 0, multiplicity = 1:

    H            2.490297989452     2.508326675730    -0.190328011598
    O            3.286594384339     2.179035975887    -0.564606593754
    C            3.513030759221     0.861230973403    -0.139740799950
    C            2.484540064793    -0.123728678630    -0.674873811723
    H            4.496716248759     0.599136093873    -0.505438558039
    H            3.547443556613     0.813074492833     0.947201466897
    C            1.056708212365     0.111873136258    -0.142354582710
    H            2.497093413809    -0.048793657111    -1.756433842654
    H            2.815951133151    -1.125191833679    -0.418345864086
    C            0.409163334113    -1.152730341863     0.422790531468
    H            0.438072048234     0.530280850000    -0.926004676531
    H            1.078325710538     0.855307901655     0.653017810348
    C           -0.990251747774    -0.957197126307     1.007846670038
    H            0.370987843979    -1.913683429183    -0.353423180248
    H            1.056626510704    -1.548340857014     1.200389090563
    C           -2.075039327781    -0.614797163151    -0.011884780348
    H           -1.275848334600    -1.870842209084     1.521776625128
    H           -0.955168369619    -0.181858202423     1.770086563825
    C           -3.467804942574    -0.521791647103     0.606006132337
    H           -2.081245261889    -1.370687156075    -0.794160784042
    H           -1.845191991671     0.326993305011    -0.500626902211
    C           -4.552646008588    -0.177183084048    -0.408913807991
    H           -3.711097837573    -1.465576730708     1.086261138077
    H           -3.461306393280     0.226893531846     1.393649068490
    H           -4.607108796626    -0.925411543017    -1.192737522906
    H           -5.527473503159    -0.120526555132     0.061727193620
    H           -4.357610421385     0.780051125714    -0.881011557907

  Mulliken Charges: (a.u.)
   Center  Symbol    Alpha    Beta     Spin     Total
       1     H     0.39182  0.39182  0.00000  0.21636
       2     O     4.20713  4.20713  0.00000 -0.41427
       3     C     2.97441  2.97441  0.00000  0.05118
       4     C     3.09308  3.09308  0.00000 -0.18616
       5     H     0.44953  0.44953  0.00000  0.10095
       6     H     0.47220  0.47220  0.00000  0.05560
       7     C     3.10592  3.10592  0.00000 -0.21183
       8     H     0.44832  0.44832  0.00000  0.10336
       9     H     0.45469  0.45469  0.00000  0.09063
      10     C     3.10078  3.10078  0.00000 -0.20157
      11     H     0.44189  0.44189  0.00000  0.11623
      12     H     0.46346  0.46346  0.00000  0.07308
      13     C     3.09865  3.09865  0.00000 -0.19731
      14     H     0.45099  0.45099  0.00000  0.09801
      15     H     0.44769  0.44769  0.00000  0.10463
      16     C     3.08810  3.08810  0.00000 -0.17619
      17     H     0.44780  0.44780  0.00000  0.10440
      18     H     0.45399  0.45399  0.00000  0.09202
      19     C     3.08415  3.08415  0.00000 -0.16830
      20     H     0.45453  0.45453  0.00000  0.09093
      21     H     0.45393  0.45393  0.00000  0.09215
      22     C     3.14963  3.14963  0.00000 -0.29926
      23     H     0.45391  0.45391  0.00000  0.09218
      24     H     0.45469  0.45469  0.00000  0.09062
      25     H     0.45503  0.45503  0.00000  0.08995
      26     H     0.44828  0.44828  0.00000  0.10343
      27     H     0.45541  0.45541  0.00000  0.08918

   Total alpha = 37.00000, Total beta = 37.00000, Total charge = -0.00000

*** Psi4 exiting successfully. Buy a developer a beer!
