  ==> Input File <==

--------------------------------------------------------------------------
set {
	reference rhf
	basis cc-pvtz
}

set_num_threads( 4 )
memory 2 gb

molecule MOL {
0 1

H	 -3.034039	 -0.667848	 0.004703
O	 -2.240597	 -1.171748	 0.000934
C	 -1.159675	 -0.364500	 0.000370
C	 -0.220452	 -0.385822	 -1.010482
C	 -1.016844	 0.505814	 1.070046
H	 -0.328166	 -1.061083	 -1.839626
C	 0.863545	 0.472078	 -0.938482
H	 -1.763450	 0.495767	 1.840379
C	 0.063475	 1.362276	 1.139043
H	 1.597949	 0.456291	 -1.721536
C	 1.011551	 1.338430	 0.120922
C	 0.206416	 2.325466	 2.290337
H	 1.859604	 1.995334	 0.162668
H	 1.228108	 2.354544	 2.648276
H	 -0.433993	 2.049431	 3.117033
H	 -0.061362	 3.330659	 1.982885

	symmetry c1
}
set optking {
	frozen_dihedral = ("
		5 3 2 1
	")
}

ee = optimize('scf')
oeprop('DIPOLE', 'QUADRUPOLE', 'MULLIKEN_CHARGES')
f=open( 'psi4out.xyz', 'w' )
f.write( "16  " )
f.write( str(ee) + "\n" )
f.write( MOL.save_string_xyz() )
f.close()
--------------------------------------------------------------------------

    Molecular point group: c1
  Charge       = 0
  Multiplicity = 1
  Basis Set: CC-PVTZ
  Basis Set:
  @DF-RHF Final Energy:  -344.71590724542364
    Total Energy =                       -344.7159072454234092
    Molecular point group: c1
  Basis Set: CC-PVTZ
  Basis Set:
  Basis Set: CC-PVTZ
  Basis Set:
  @DF-RHF Final Energy:  -344.71721241517633
    Total Energy =                       -344.7172124151761636
  Basis Set: CC-PVTZ
  Basis Set:
  Basis Set: CC-PVTZ
  Basis Set:
  @DF-RHF Final Energy:  -344.71729505106140
    Total Energy =                       -344.7172950510615124
  Basis Set: CC-PVTZ
  Basis Set:
  Basis Set: CC-PVTZ
  Basis Set:
  @DF-RHF Final Energy:  -344.71730411353451
    Total Energy =                       -344.7173041135343965
  Basis Set: CC-PVTZ
  Basis Set:
  Basis Set: CC-PVTZ
  Basis Set:
  @DF-RHF Final Energy:  -344.71730636865010
    Total Energy =                       -344.7173063686499290
  Basis Set: CC-PVTZ
  Basis Set:
  Charge       = 0
  Multiplicity = 1
  Basis Set: CC-PVTZ
  Basis Set:

    Orbital Energies (a.u.)
    -----------------------

    Doubly Occupied:

       1A    -20.572607     2A    -11.288608     3A    -11.241271
       4A    -11.230754     5A    -11.221560     6A    -11.219743
       7A    -11.217418     8A    -11.217097     9A     -1.400234
      10A     -1.154925    11A     -1.047268    12A     -1.007027
      13A     -0.940049    14A     -0.836995    15A     -0.805318
      16A     -0.726567    17A     -0.681008    18A     -0.655530
      19A     -0.619473    20A     -0.594525    21A     -0.578921
      22A     -0.569919    23A     -0.555260    24A     -0.522708
      25A     -0.505263    26A     -0.485175    27A     -0.468880
      28A     -0.334043    29A     -0.319006

  @DF-RHF Final Energy:  -344.71730719931014

   => Energetics <=

    Nuclear Repulsion Energy =            345.9717346978246155
    One-Electron Energy =               -1153.3437748087544605
    Two-Electron Energy =                 462.6547329116193623
    DFT Exchange-Correlation Energy =       0.0000000000000000
    Empirical Dispersion Energy =           0.0000000000000000
    PCM Polarization Energy =               0.0000000000000000
    EFP Energy =                            0.0000000000000000
    Total Energy =                       -344.7173071993105395
    Molecular point group: c1
  Basis Set: CC-PVTZ
  Basis Set:

  -Total Gradient:
     Atom            X                  Y                   Z
    ------   -----------------  -----------------  -----------------
       1        0.000035060933     0.000106721346    -0.002270540649
       2        0.000352039394    -0.000782468426     0.003239575054
       3       -0.001273483304     0.001810754704    -0.001805783980
       4        0.000038779762     0.000011501570    -0.000009263263
       5        0.000844678887    -0.001186414954     0.000841499344
       6       -0.000021780640    -0.000012407325     0.000007288497
       7       -0.000033445139    -0.000011376013    -0.000006622500
       8        0.000030084479     0.000005161426    -0.000023657596
       9        0.000046576468     0.000007169607     0.000004960152
      10       -0.000003827556     0.000003810380     0.000004240241
      11       -0.000021398111     0.000018776463     0.000008171434
      12       -0.000000730032     0.000017409804    -0.000012983516
      13       -0.000008254785     0.000009395977     0.000014362342
      14        0.000002550974    -0.000014892665     0.000010258655
      15       -0.000008121893     0.000010170110    -0.000000633617
      16        0.000021270561     0.000006687998    -0.000000870599

  **** Optimization is complete! (in 6 steps) ****
    Final optimized geometry and variables:
    Molecular point group: c1

    Geometry (in Angstrom), charge = 0, multiplicity = 1:

    H           -2.673644867034    -1.239448555228    -0.384550058972
    O           -1.855642831668    -1.703557610193    -0.400170204694
    C           -0.807674350702    -0.832895213325    -0.351879231399
    C            0.134169552494    -0.871315051431    -1.357234868643
    C           -0.653042146202     0.027475139304     0.721670791565
    H            0.006413148880    -1.554656137820    -2.173285118952
    C            1.228645026926    -0.029598756479    -1.282418315814
    H           -1.386059905224     0.015942564293     1.506919493108
    C            0.433921934558     0.880878376913     0.792690506265
    H            1.968607109013    -0.055014636415    -2.059841219824
    C            1.378754821028     0.841768575266    -0.223658099768
    C            0.587738020970     1.840227399926     1.946217880898
    H            2.234674987623     1.488963102561    -0.181612867159
    H            1.611730623070     1.865730175510     2.297534189709
    H           -0.046378934749     1.561905980976     2.777352759086
    H            0.319430028851     2.847763698457     1.646673595360

  Mulliken Charges: (a.u.)
   Center  Symbol    Alpha    Beta     Spin     Total
       1     H     0.38659  0.38659  0.00000  0.22681
       2     O     4.18840  4.18840  0.00000 -0.37680
       3     C     2.85450  2.85450  0.00000  0.29100
       4     C     3.12243  3.12243  0.00000 -0.24487
       5     C     3.15133  3.15133  0.00000 -0.30266
       6     H     0.41690  0.41690  0.00000  0.16621
       7     C     3.05623  3.05623  0.00000 -0.11245
       8     H     0.42446  0.42446  0.00000  0.15108
       9     C     2.94567  2.94567  0.00000  0.10865
      10     H     0.42249  0.42249  0.00000  0.15501
      11     C     3.11117  3.11117  0.00000 -0.22235
      12     C     3.14634  3.14634  0.00000 -0.29269
      13     H     0.42721  0.42721  0.00000  0.14557
      14     H     0.44776  0.44776  0.00000  0.10448
      15     H     0.45127  0.45127  0.00000  0.09745
      16     H     0.44723  0.44723  0.00000  0.10554

   Total alpha = 29.00000, Total beta = 29.00000, Total charge =  0.00000
