                              Psi4 1.0.54 Driver

  ==> Input File <==

--------------------------------------------------------------------------
set {
	reference rhf
	basis cc-pvtz
}

set_num_threads( 4 )
memory 2 gb

molecule MOL {
0 1

H	 -2.498963	 -0.741158	 -0.729149
O	 -2.346257	 -0.289210	 0.080372
C	 -1.183935	 0.486039	 -0.009831
C	 0.062853	 -0.375310	 0.027457
H	 -1.178881	 1.094526	 -0.908634
H	 -1.184406	 1.155156	 0.838676
O	 1.172093	 0.457955	 -0.054438
H	 0.052476	 -1.081302	 -0.804627
H	 0.076323	 -0.955658	 0.947560
C	 2.395283	 -0.200723	 -0.020240
H	 2.497264	 -0.893069	 -0.853026
H	 3.174448	 0.544109	 -0.089633
H	 2.521835	 -0.755778	 0.906268

	symmetry c1
}
set optking {
	frozen_dihedral = ("
		10 7 4 8
	")
}

ee,wfn = optimize('scf', return_wfn=True)
oeprop( wfn, 'DIPOLE', 'QUADRUPOLE', 'MULLIKEN_CHARGES')
f=open( 'psi4out.xyz', 'w' )
f.write( "13  " )
f.write( str(ee) + "\n" )
f.write( MOL.save_string_xyz() )
f.close()
--------------------------------------------------------------------------

    Molecular point group: c1
  Charge       = 0
  Multiplicity = 1
  Basis Set: CC-PVTZ
  Basis Set:
  @DF-RHF Final Energy:  -268.06230979791587
    Total Energy =                       -268.0623097979157592
    Molecular point group: c1
  Basis Set: CC-PVTZ
  Basis Set:
  Charge       = 0
  Multiplicity = 1
  Basis Set: CC-PVTZ
  Basis Set:

    Orbital Energies (a.u.)
    -----------------------

    Doubly Occupied:

       1A    -20.556103     2A    -20.552947     3A    -11.269329
       4A    -11.267852     5A    -11.267560     6A     -1.392108
       7A     -1.369319     8A     -1.019779     9A     -0.914056
      10A     -0.842904    11A     -0.712124    12A     -0.676484
      13A     -0.663237    14A     -0.639516    15A     -0.597670
      16A     -0.571044    17A     -0.547246    18A     -0.491419
      19A     -0.483378    20A     -0.441844    21A     -0.424807

  @DF-RHF Final Energy:  -268.06230992459518

   => Energetics <=

    Nuclear Repulsion Energy =            190.4980099281376340
    One-Electron Energy =                -743.7191859232542583
    Two-Electron Energy =                 285.1588660705214124
    DFT Exchange-Correlation Energy =       0.0000000000000000
    Empirical Dispersion Energy =           0.0000000000000000
    PCM Polarization Energy =               0.0000000000000000
    EFP Energy =                            0.0000000000000000
    Total Energy =                       -268.0623099245951835
    Molecular point group: c1
  Basis Set: CC-PVTZ
  Basis Set:

  -Total Gradient:
     Atom            X                  Y                   Z
    ------   -----------------  -----------------  -----------------
       1        0.000006742983     0.000007085474     0.000000749039
       2       -0.000004094961    -0.000010971395     0.000024008940
       3       -0.000016747124     0.000021114173    -0.000014744470
       4       -0.000093346914     0.000076834884    -0.000180456539
       5        0.000018267401    -0.000004617469     0.000004033554
       6       -0.000021787884     0.000008381362     0.000003336739
       7        0.000015226717    -0.000020542921     0.000178973129
       8        0.000063145801    -0.000080951375     0.000078290013
       9        0.000029368657     0.000016273915    -0.000008549162
      10        0.000002293769    -0.000016006644    -0.000078380478
      11       -0.000005564866     0.000003091892    -0.000001889645
      12       -0.000000390455     0.000001831943    -0.000002732451
      13        0.000006886877    -0.000001523839    -0.000002638668

  **** Optimization is complete! (in 2 steps) ****
    Final optimized geometry and variables:
    Molecular point group: c1

    Geometry (in Angstrom), charge = 0, multiplicity = 1:

    H           -2.499529939487    -0.741864708854    -0.722496346650
    O           -2.346166454640    -0.288635787953     0.086196332497
    C           -1.183930550787     0.486442270107    -0.006404867210
    C            0.062873685465    -0.374910375170     0.030084004349
    H           -1.179916418899     1.094011939054    -0.905832421960
    H           -1.183223076969     1.156394977867     0.841453404210
    O            1.172189345303     0.458290626949    -0.050516370784
    H            0.052982316015    -1.080534571598    -0.802284868798
    H            0.076573067403    -0.956140626181     0.949659462922
    C            2.395252639349    -0.200556732551    -0.015667397853
    H            2.497893574713    -0.892063052523    -0.849051717950
    H            3.174549384743     0.544261053415    -0.083497016801
    H            2.520908961035    -0.756606931476     0.910388213196

  Mulliken Charges: (a.u.)
   Center  Symbol    Alpha    Beta     Spin     Total
       1     H     0.39410  0.39410  0.00000  0.21180
       2     O     4.20208  4.20208  0.00000 -0.40416
       3     C     2.97334  2.97334  0.00000  0.05332
       4     C     2.96510  2.96510  0.00000  0.06980
       5     H     0.46686  0.46686  0.00000  0.06628
       6     H     0.45264  0.45264  0.00000  0.09472
       7     O     4.17539  4.17539  0.00000 -0.35078
       8     H     0.48227  0.48227  0.00000  0.03547
       9     H     0.46944  0.46944  0.00000  0.06112
      10     C     3.03181  3.03181  0.00000 -0.06361
      11     H     0.47121  0.47121  0.00000  0.05758
      12     H     0.44590  0.44590  0.00000  0.10820
      13     H     0.46987  0.46987  0.00000  0.06026

   Total alpha = 21.00000, Total beta = 21.00000, Total charge = -0.00000

*** Psi4 exiting successfully. Buy a developer a beer!
