  ==> Input File <==

--------------------------------------------------------------------------
set {
	reference rhf
	basis 6-31G*
}

set_num_threads( 1 )
memory 2 gb

molecule MOL {
0 1

H	 1.136379	 0.211822	 1.465562
C	 1.135357	 0.094285	 0.374742
C	 0.065331	 0.871482	 -0.349150
O	 1.941633	 -0.601957	 -0.151457
C	 0.351010	 1.001133	 -1.852167
H	 -0.029226	 1.843225	 0.121687
H	 -0.872935	 0.337050	 -0.207023
C	 1.578895	 1.858173	 -2.162336
H	 -0.521749	 1.431929	 -2.332496
H	 0.475951	 0.010006	 -2.283094
H	 1.459759	 2.863570	 -1.770532
H	 1.736285	 1.933887	 -3.233229
H	 2.481607	 1.441688	 -1.725254

	symmetry c1
}
set optking {
	frozen_dihedral = ("
		6 3 5 9
	")
}

ee = energy('scf')
oeprop('DIPOLE', 'QUADRUPOLE', 'MULLIKEN_CHARGES')
f=open( 'psi4out.xyz', 'w' )
f.write( "13  " )
f.write( str(ee) + "\n" )
f.write( MOL.save_string_xyz() )
f.close()
--------------------------------------------------------------------------

    Molecular point group: c1

    Geometry (in Angstrom), charge = 0, multiplicity = 1:

       Center              X                  Y                   Z               Mass
    ------------   -----------------  -----------------  -----------------  -----------------
           H          0.101992185809    -0.432449804173     2.302835176469     1.007825032070
           C          0.100970185809    -0.549986804173     1.212015176469    12.000000000000
           C         -0.969055814191     0.227210195827     0.488123176469    12.000000000000
           O          0.907246185809    -1.246228804173     0.685816176469    15.994914619560
           C         -0.683376814191     0.356861195827    -1.014893823531    12.000000000000
           H         -1.063612814191     1.198953195827     0.958960176469     1.007825032070
           H         -1.907321814191    -0.307221804173     0.630250176469     1.007825032070
           C          0.544508185809     1.213901195827    -1.325062823531    12.000000000000
           H         -1.556135814191     0.787657195827    -1.495222823531     1.007825032070
           H         -0.558435814191    -0.634265804173    -1.445820823531     1.007825032070
           H          0.425372185809     2.219298195827    -0.933258823531     1.007825032070
           H          0.701898185809     1.289615195827    -2.395955823531     1.007825032070
           H          1.447220185809     0.797416195827    -0.887980823531     1.007825032070

  Charge       = 0
  Multiplicity = 1
  Basis Set: 6-31G*
  Basis Set:

    Orbital Energies (a.u.)
    -----------------------

    Doubly Occupied:

       1A    -20.565191     2A    -11.329360     3A    -11.237571
       4A    -11.224952     5A    -11.209404     6A     -1.406059
       7A     -1.076774     8A     -0.971133     9A     -0.849344
      10A     -0.765126    11A     -0.686578    12A     -0.636752
      13A     -0.629705    14A     -0.580859    15A     -0.563529
      16A     -0.520951    17A     -0.494001    18A     -0.483572
      19A     -0.480463    20A     -0.412069

  @DF-RHF Final Energy:  -230.98512782380880

   => Energetics <=

    Nuclear Repulsion Energy =            177.1366166245870772
    One-Electron Energy =                -663.9966747449884679
    Two-Electron Energy =                 255.8749302965924244
    DFT Exchange-Correlation Energy =       0.0000000000000000
    Empirical Dispersion Energy =           0.0000000000000000
    PCM Polarization Energy =               0.0000000000000000
    EFP Energy =                            0.0000000000000000
    Total Energy =                       -230.9851278238089662

  Mulliken Charges: (a.u.)
   Center  Symbol    Alpha    Beta     Spin     Total
       1     H     0.42744  0.42744  0.00000  0.14511
       2     C     2.83705  2.83705  0.00000  0.32590
       3     C     3.21207  3.21207  0.00000 -0.42415
       4     O     4.23743  4.23743  0.00000 -0.47486
       5     C     3.15215  3.15215  0.00000 -0.30431
       6     H     0.41005  0.41005  0.00000  0.17990
       7     H     0.40203  0.40203  0.00000  0.19593
       8     C     3.24649  3.24649  0.00000 -0.49299
       9     H     0.41892  0.41892  0.00000  0.16217
      10     H     0.40724  0.40724  0.00000  0.18551
      11     H     0.42543  0.42543  0.00000  0.14914
      12     H     0.41703  0.41703  0.00000  0.16593
      13     H     0.40665  0.40665  0.00000  0.18670

   Total alpha = 20.00000, Total beta = 20.00000, Total charge = -0.00000
