  ==> Input File <==

--------------------------------------------------------------------------
set {
	reference rhf
	basis cc-pvtz
}

set_num_threads( 4 )
memory 2 gb

molecule MOL {
0 1

H	 -3.162190	 0.493205	 -0.000107
C	 -2.363908	 -0.234727	 0.000005
O	 -1.158738	 0.454634	 -0.000087
H	 -2.464314	 -0.863616	 -0.882153
H	 -2.464327	 -0.863359	 0.882345
C	 -0.028611	 -0.359694	 0.000037
C	 1.212847	 0.509314	 -0.000053
H	 -0.034155	 -1.007047	 -0.877198
H	 -0.034195	 -1.006836	 0.877430
C	 0.916605	 1.947998	 0.408332
H	 1.940720	 0.071896	 0.674330
H	 1.651227	 0.485244	 -0.991615
H	 0.499148	 1.997109	 1.408534
H	 1.819764	 2.545705	 0.399845
H	 0.207961	 2.413310	 -0.268704

	symmetry c1
}
set optking {
	frozen_dihedral = ("
		11 7 6 8
	")
}

ee = optimize('scf')
oeprop('DIPOLE', 'QUADRUPOLE', 'MULLIKEN_CHARGES')
f=open( 'psi4out.xyz', 'w' )
f.write( "15  " )
f.write( str(ee) + "\n" )
f.write( MOL.save_string_xyz() )
f.close()
--------------------------------------------------------------------------

    Molecular point group: c1
  Charge       = 0
  Multiplicity = 1
  Basis Set: CC-PVTZ
  Basis Set:
  @DF-RHF Final Energy:  -232.21963472320218
    Total Energy =                       -232.2196347232022617
    Molecular point group: c1
  Basis Set: CC-PVTZ
  Basis Set:
  Basis Set: CC-PVTZ
  Basis Set:
  @DF-RHF Final Energy:  -232.22028213954178
    Total Energy =                       -232.2202821395415526
  Basis Set: CC-PVTZ
  Basis Set:
  Basis Set: CC-PVTZ
  Basis Set:
  @DF-RHF Final Energy:  -232.22131605312362
    Total Energy =                       -232.2213160531234166
  Basis Set: CC-PVTZ
  Basis Set:
  Basis Set: CC-PVTZ
  Basis Set:
  @DF-RHF Final Energy:  -232.22135865345334
    Total Energy =                       -232.2213586534534215
  Basis Set: CC-PVTZ
  Basis Set:
  Basis Set: CC-PVTZ
  Basis Set:
  @DF-RHF Final Energy:  -232.22136224949307
    Total Energy =                       -232.2213622494929837
  Basis Set: CC-PVTZ
  Basis Set:
  Charge       = 0
  Multiplicity = 1
  Basis Set: CC-PVTZ
  Basis Set:

    Orbital Energies (a.u.)
    -----------------------

    Doubly Occupied:

       1A    -20.547015     2A    -11.265635     3A    -11.262008
       4A    -11.214277     5A    -11.199161     6A     -1.381536
       7A     -1.050036     8A     -0.949158     9A     -0.889604
      10A     -0.793704    11A     -0.676268    12A     -0.657041
      13A     -0.635003    14A     -0.603438    15A     -0.553156
      16A     -0.542856    17A     -0.504038    18A     -0.482219
      19A     -0.475024    20A     -0.460915    21A     -0.412752

  @DF-RHF Final Energy:  -232.22136264465951

   => Energetics <=

    Nuclear Repulsion Energy =            193.6135667975067349
    One-Electron Energy =                -698.5601761127675218
    Two-Electron Energy =                 272.7252466706015070
    DFT Exchange-Correlation Energy =       0.0000000000000000
    Empirical Dispersion Energy =           0.0000000000000000
    PCM Polarization Energy =               0.0000000000000000
    EFP Energy =                            0.0000000000000000
    Total Energy =                       -232.2213626446592798
    Molecular point group: c1
  Basis Set: CC-PVTZ
  Basis Set:

  -Total Gradient:
     Atom            X                  Y                   Z
    ------   -----------------  -----------------  -----------------
       1        0.000021121076     0.000010768762    -0.000000450050
       2        0.000000906192    -0.000015622371     0.000001896345
       3       -0.000002811157     0.000028246852    -0.000008850068
       4        0.000007845648     0.000003727153    -0.000002665829
       5        0.000006229413     0.000002730532     0.000002309521
       6        0.002804584408    -0.003934023570     0.004312808257
       7        0.001711019054    -0.002690843060    -0.005525157486
       8       -0.002635965472     0.003692438007    -0.002774249206
       9        0.000039209203    -0.000020815189     0.000005174294
      10       -0.000004791360    -0.000008367174     0.000021852945
      11       -0.001942931397     0.002920534813     0.003977992650
      12        0.000005632281    -0.000013491013    -0.000008465221
      13        0.000004059593     0.000012225492    -0.000001441287
      14       -0.000006726351     0.000010514540    -0.000004326271
      15       -0.000007381129     0.000001976224     0.000003571407

  **** Optimization is complete! (in 6 steps) ****
    Final optimized geometry and variables:
    Molecular point group: c1

    Geometry (in Angstrom), charge = 0, multiplicity = 1:

    H           -2.882998555691    -0.041568957819    -0.120143403904
    C           -2.061687911681    -0.743210695711    -0.093802064948
    O           -0.879826378164    -0.016749245622    -0.098249116273
    H           -2.132742005796    -1.397159382591    -0.960746907269
    H           -2.152189501494    -1.353517976841     0.802666228826
    C            0.273889561006    -0.803642368647    -0.060397366905
    C            1.533113348612     0.074697797599    -0.100159765987
    H            0.258906141391    -1.463173394467    -0.925787766211
    H            0.263769462865    -1.417949757964     0.837468433639
    C            1.312550329281     1.520359471257     0.344437519339
    H            2.265109429416    -0.359839056528     0.572243829154
    H            1.957762446127     0.067664809452    -1.096716186177
    H            0.904930771524     1.566630169310     1.347231965871
    H            2.257432117533     2.052287756013     0.341753062896
    H            0.627681568257     2.038489269295    -0.311231626160

  Mulliken Charges: (a.u.)
   Center  Symbol    Alpha    Beta     Spin     Total
       1     H     0.44777  0.44777  0.00000  0.10446
       2     C     3.03156  3.03156  0.00000 -0.06312
       3     O     4.17086  4.17086  0.00000 -0.34173
       4     H     0.47227  0.47227  0.00000  0.05545
       5     H     0.47230  0.47230  0.00000  0.05540
       6     C     2.96750  2.96750  0.00000  0.06500
       7     C     3.09347  3.09347  0.00000 -0.18694
       8     H     0.46950  0.46950  0.00000  0.06099
       9     H     0.47196  0.47196  0.00000  0.05608
      10     C     3.13955  3.13955  0.00000 -0.27909
      11     H     0.45496  0.45496  0.00000  0.09008
      12     H     0.45192  0.45192  0.00000  0.09616
      13     H     0.45500  0.45500  0.00000  0.09000
      14     H     0.45366  0.45366  0.00000  0.09267
      15     H     0.44770  0.44770  0.00000  0.10460

   Total alpha = 21.00000, Total beta = 21.00000, Total charge = -0.00000
