  ==> Input File <==

--------------------------------------------------------------------------
set {
	reference rhf
	basis 6-31G*
}

set_num_threads( 1 )
memory 2 gb

molecule MOL {
0 1

H	 1.136379	 0.211822	 1.465562
C	 1.135357	 0.094285	 0.374742
C	 0.065331	 0.871482	 -0.349150
O	 1.941633	 -0.601957	 -0.151457
C	 -0.271109	 0.267589	 -1.720136
H	 0.392039	 1.901106	 -0.438866
H	 -0.824766	 0.855356	 0.278248
C	 0.877852	 0.369797	 -2.724060
H	 -1.143908	 0.777133	 -2.115860
H	 -0.558878	 -0.774171	 -1.595375
H	 1.157852	 1.405505	 -2.889698
H	 0.593628	 -0.056079	 -3.680702
H	 1.762539	 -0.156929	 -2.378692

	symmetry c1
}
set optking {
	frozen_dihedral = ("
		6 3 5 9
	")
}

ee = energy('scf')
oeprop('DIPOLE', 'QUADRUPOLE', 'MULLIKEN_CHARGES')
f=open( 'psi4out.xyz', 'w' )
f.write( "13  " )
f.write( str(ee) + "\n" )
f.write( MOL.save_string_xyz() )
f.close()
--------------------------------------------------------------------------

    Molecular point group: c1

    Geometry (in Angstrom), charge = 0, multiplicity = 1:

       Center              X                  Y                   Z               Mass
    ------------   -----------------  -----------------  -----------------  -----------------
           H          0.369214184389     0.020226305552     2.393848649001     1.007825032070
           C          0.368192184389    -0.097310694448     1.303028649001    12.000000000000
           C         -0.701833815611     0.679886305552     0.579136649001    12.000000000000
           O          1.174468184389    -0.793552694448     0.776829649001    15.994914619560
           C         -1.038273815611     0.075993305552    -0.791849350999    12.000000000000
           H         -0.375125815611     1.709510305552     0.489420649001     1.007825032070
           H         -1.591930815611     0.663760305552     1.206534649001     1.007825032070
           C          0.110687184389     0.178201305552    -1.795773350999    12.000000000000
           H         -1.911072815611     0.585537305552    -1.187573350999     1.007825032070
           H         -1.326042815611    -0.965766694448    -0.667088350999     1.007825032070
           H          0.390687184389     1.213909305552    -1.961411350999     1.007825032070
           H         -0.173536815611    -0.247674694448    -2.752415350999     1.007825032070
           H          0.995374184389    -0.348524694448    -1.450405350999     1.007825032070

  Charge       = 0
  Multiplicity = 1
  Basis Set: 6-31G*
  Basis Set:

    Orbital Energies (a.u.)
    -----------------------

    Doubly Occupied:

       1A    -20.565531     2A    -11.330359     3A    -11.237624
       4A    -11.225875     5A    -11.200927     6A     -1.407480
       7A     -1.075802     8A     -0.969418     9A     -0.843706
      10A     -0.771250    11A     -0.685741    12A     -0.648843
      13A     -0.611219    14A     -0.575886    15A     -0.565622
      16A     -0.522371    17A     -0.493813    18A     -0.482332
      19A     -0.480832    20A     -0.406456

  @DF-RHF Final Energy:  -230.98215114197330

   => Energetics <=

    Nuclear Repulsion Energy =            177.9779517057231146
    One-Electron Energy =                -665.7180964264601926
    Two-Electron Energy =                 256.7579935787636032
    DFT Exchange-Correlation Energy =       0.0000000000000000
    Empirical Dispersion Energy =           0.0000000000000000
    PCM Polarization Energy =               0.0000000000000000
    EFP Energy =                            0.0000000000000000
    Total Energy =                       -230.9821511419734748

  Mulliken Charges: (a.u.)
   Center  Symbol    Alpha    Beta     Spin     Total
       1     H     0.42720  0.42720  0.00000  0.14560
       2     C     2.83813  2.83813  0.00000  0.32375
       3     C     3.21109  3.21109  0.00000 -0.42218
       4     O     4.23584  4.23584  0.00000 -0.47168
       5     C     3.15265  3.15265  0.00000 -0.30529
       6     H     0.40169  0.40169  0.00000  0.19662
       7     H     0.41050  0.41050  0.00000  0.17899
       8     C     3.24798  3.24798  0.00000 -0.49595
       9     H     0.41810  0.41810  0.00000  0.16379
      10     H     0.41541  0.41541  0.00000  0.16919
      11     H     0.42719  0.42719  0.00000  0.14562
      12     H     0.42161  0.42161  0.00000  0.15677
      13     H     0.39261  0.39261  0.00000  0.21478

   Total alpha = 20.00000, Total beta = 20.00000, Total charge =  0.00000
