                              Psi4 1.0.54 Driver

  ==> Input File <==

--------------------------------------------------------------------------
set {
	reference rhf
	basis cc-pvtz
}

set_num_threads( 4 )
memory 2 gb

molecule MOL {
0 1

O	 1.847903	 1.294424	 -0.000190
C	 1.704427	 0.119497	 -0.000093
C	 0.380555	 -0.600922	 -0.000234
O	 2.715645	 -0.733647	 0.000025
C	 -0.824072	 0.329238	 -0.000115
H	 0.371673	 -1.255451	 -0.865660
H	 0.371628	 -1.255762	 0.864952
C	 -2.145933	 -0.432800	 -0.000068
H	 -0.773718	 0.979183	 -0.866319
H	 -0.773620	 0.979059	 0.866186
C	 -3.366065	 0.483577	 0.000557
H	 -2.189068	 -1.084425	 -0.869996
H	 -2.188649	 -1.085058	 0.869399
C	 -4.687218	 -0.277978	 0.000108
H	 -3.324932	 1.134844	 -0.867957
H	 -3.324869	 1.133755	 0.869885
H	 -4.773565	 -0.912073	 -0.876078
H	 -5.531704	 0.401417	 0.000363
H	 -4.773683	 -0.912873	 0.875703
C	 4.021217	 -0.192531	 0.000019
H	 4.183027	 0.412916	 -0.879449
H	 4.692808	 -1.035628	 0.000152
H	 4.182944	 0.413112	 0.879368

	symmetry c1
}
ee,wfn = energy('scf', return_wfn=True)
oeprop( wfn, 'DIPOLE', 'QUADRUPOLE', 'MULLIKEN_CHARGES')
oeprop( wfn, 'GRID_ESP')
f=open( 'psi4out.xyz', 'w' )
f.write( "23  " )
f.write( str(ee) + "\n" )
f.write( MOL.save_string_xyz() )
f.close()
--------------------------------------------------------------------------

    Molecular point group: c1

    Geometry (in Angstrom), charge = 0, multiplicity = 1:

       Center              X                  Y                   Z               Mass
    ------------   -----------------  -----------------  -----------------  -----------------
           O          1.847684902062     1.294399115032    -0.000190016411    15.994914619560
           C          1.704208902062     0.119472115032    -0.000093016411    12.000000000000
           C          0.380336902062    -0.600946884968    -0.000234016411    12.000000000000
           O          2.715426902062    -0.733671884968     0.000024983589    15.994914619560
           C         -0.824290097938     0.329213115032    -0.000115016411    12.000000000000
           H          0.371454902062    -1.255475884968    -0.865660016411     1.007825032070
           H          0.371409902062    -1.255786884968     0.864951983589     1.007825032070
           C         -2.146151097938    -0.432824884968    -0.000068016411    12.000000000000
           H         -0.773936097938     0.979158115032    -0.866319016411     1.007825032070
           H         -0.773838097938     0.979034115032     0.866185983589     1.007825032070
           C         -3.366283097938     0.483552115032     0.000556983589    12.000000000000
           H         -2.189286097938    -1.084449884968    -0.869996016411     1.007825032070
           H         -2.188867097938    -1.085082884968     0.869398983589     1.007825032070
           C         -4.687436097938    -0.278002884968     0.000107983589    12.000000000000
           H         -3.325150097938     1.134819115032    -0.867957016411     1.007825032070
           H         -3.325087097938     1.133730115032     0.869884983589     1.007825032070
           H         -4.773783097938    -0.912097884968    -0.876078016411     1.007825032070
           H         -5.531922097938     0.401392115032     0.000362983589     1.007825032070
           H         -4.773901097938    -0.912897884968     0.875702983589     1.007825032070
           C          4.020998902062    -0.192555884968     0.000018983589    12.000000000000
           H          4.182808902062     0.412891115032    -0.879449016411     1.007825032070
           H          4.692589902062    -1.035652884968     0.000151983589     1.007825032070
           H          4.182725902062     0.413087115032     0.879367983589     1.007825032070

  Charge       = 0
  Multiplicity = 1
  Basis Set: CC-PVTZ
  Basis Set:

    Orbital Energies (a.u.)
    -----------------------

    Doubly Occupied:

       1A    -20.596294     2A    -20.534065     3A    -11.364518
       4A    -11.278456     5A    -11.233749     6A    -11.217174
       7A    -11.215840     8A    -11.214524     9A    -11.207744
      10A     -1.472174    11A     -1.365740    12A     -1.094512
      13A     -1.044788    14A     -0.988053    15A     -0.932717
      16A     -0.844091    17A     -0.795579    18A     -0.769278
      19A     -0.699094    20A     -0.686901    21A     -0.675341
      22A     -0.652877    23A     -0.609735    24A     -0.601001
      25A     -0.573654    26A     -0.559480    27A     -0.558160
      28A     -0.525263    29A     -0.522184    30A     -0.508285
      31A     -0.484854    32A     -0.470178    33A     -0.467234
      34A     -0.463327    35A     -0.459061    36A     -0.438379

  @DF-RHF Final Energy:  -423.13110018678805

   => Energetics <=

    Nuclear Repulsion Energy =            452.8915189222259983
    One-Electron Energy =               -1473.7963892168190796
    Two-Electron Energy =                 597.7737701078053760
    DFT Exchange-Correlation Energy =       0.0000000000000000
    Empirical Dispersion Energy =           0.0000000000000000
    PCM Polarization Energy =               0.0000000000000000
    EFP Energy =                            0.0000000000000000
    Total Energy =                       -423.1311001867877621

  Mulliken Charges: (a.u.)
   Center  Symbol    Alpha    Beta     Spin     Total
       1     O     4.19704  4.19704  0.00000 -0.39408
       2     C     2.80691  2.80691  0.00000  0.38619
       3     C     3.10117  3.10117  0.00000 -0.20234
       4     O     4.14648  4.14648  0.00000 -0.29296
       5     C     3.08327  3.08327  0.00000 -0.16654
       6     H     0.44015  0.44015  0.00000  0.11971
       7     H     0.44015  0.44015  0.00000  0.11971
       8     C     3.08934  3.08934  0.00000 -0.17868
       9     H     0.44638  0.44638  0.00000  0.10725
      10     H     0.44639  0.44639  0.00000  0.10723
      11     C     3.08401  3.08401  0.00000 -0.16801
      12     H     0.45581  0.45581  0.00000  0.08839
      13     H     0.45580  0.45580  0.00000  0.08839
      14     C     3.15039  3.15039  0.00000 -0.30078
      15     H     0.45328  0.45328  0.00000  0.09345
      16     H     0.45327  0.45327  0.00000  0.09345
      17     H     0.45532  0.45532  0.00000  0.08935
      18     H     0.44773  0.44773  0.00000  0.10455
      19     H     0.45532  0.45532  0.00000  0.08936
      20     C     3.03780  3.03780  0.00000 -0.07561
      21     H     0.45434  0.45434  0.00000  0.09132
      22     H     0.44533  0.44533  0.00000  0.10934
      23     H     0.45434  0.45434  0.00000  0.09132

   Total alpha = 36.00000, Total beta = 36.00000, Total charge = -0.00000

*** Psi4 exiting successfully. Buy a developer a beer!
