                              Psi4 1.0.54 Driver

  ==> Input File <==

--------------------------------------------------------------------------
set {
	reference rhf
	basis cc-pvtz
}

set_num_threads( 4 )
memory 2 gb

molecule MOL {
0 1

H	 5.269878	 0.195679	 1.068175
C	 4.673900	 -0.208485	 0.258034
C	 3.190199	 -0.204714	 0.610086
H	 4.865136	 0.391893	 -0.624684
H	 5.027838	 -1.214511	 0.056939
C	 2.319208	 -0.778154	 -0.505491
H	 2.876954	 0.809861	 0.827925
H	 3.035335	 -0.782733	 1.518235
C	 2.829129	 -2.101446	 -1.067422
H	 1.308497	 -0.915705	 -0.141662
H	 2.267473	 -0.060062	 -1.318788
C	 2.661931	 -3.291850	 -0.138193
H	 2.286732	 -2.349422	 -1.976311
H	 3.872224	 -2.023652	 -1.359689
C	 3.478499	 -4.533693	 -0.438880
O	 1.906439	 -3.266120	 0.779327
C	 3.134606	 -5.188452	 -1.781039
H	 3.306108	 -5.229982	 0.370628
H	 4.530991	 -4.262832	 -0.429293
C	 3.904267	 -6.486556	 -2.009553
H	 2.068009	 -5.392898	 -1.815224
H	 3.345729	 -4.503012	 -2.595655
C	 3.565771	 -7.152598	 -3.338813
H	 3.693564	 -7.174709	 -1.196459
H	 4.970697	 -6.282545	 -1.968570
H	 2.510515	 -7.397160	 -3.396304
H	 3.799769	 -6.501648	 -4.174618
H	 4.125365	 -8.071390	 -3.469146

	symmetry c1
}
set optking {
	frozen_dihedral = ("
		10 6 3 2
	")
}

ee,wfn = optimize('scf', return_wfn=True)
oeprop( wfn, 'DIPOLE', 'QUADRUPOLE', 'MULLIKEN_CHARGES')
f=open( 'psi4out.xyz', 'w' )
f.write( "28  " )
f.write( str(ee) + "\n" )
f.write( MOL.save_string_xyz() )
f.close()
--------------------------------------------------------------------------

    Molecular point group: c1
  Charge       = 0
  Multiplicity = 1
  Basis Set: CC-PVTZ
  Basis Set:
  @DF-RHF Final Energy:  -426.31502811448127
    Total Energy =                       -426.3150281144811515
    Molecular point group: c1
  Basis Set: CC-PVTZ
  Basis Set:
  Basis Set: CC-PVTZ
  Basis Set:
  @DF-RHF Final Energy:  -426.30839109897795
    Total Energy =                       -426.3083910989778360
  Basis Set: CC-PVTZ
  Basis Set:
  Basis Set: CC-PVTZ
  Basis Set:
  @DF-RHF Final Energy:  -426.31658028555898
    Total Energy =                       -426.3165802855594393
  Basis Set: CC-PVTZ
  Basis Set:
  Basis Set: CC-PVTZ
  Basis Set:
  @DF-RHF Final Energy:  -426.31654267234705
    Total Energy =                       -426.3165426723463725
  Basis Set: CC-PVTZ
  Basis Set:
  @DF-RHF Final Energy:  -426.31502248206061
    Total Energy =                       -426.3150224820610674
  @DF-RHF Final Energy:  -426.31700568510848
    Total Energy =                       -426.3170056851083700
  Basis Set: CC-PVTZ
  Basis Set:
  @DF-RHF Final Energy:  -426.31705795447897
    Total Energy =                       -426.3170579544795373
  Basis Set: CC-PVTZ
  Basis Set:
  Basis Set: CC-PVTZ
  Basis Set:
  @DF-RHF Final Energy:  -426.31704599740544
    Total Energy =                       -426.3170459974053301
  Basis Set: CC-PVTZ
  Basis Set:
  Basis Set: CC-PVTZ
  Basis Set:
  @DF-RHF Final Energy:  -426.31707301146810
    Total Energy =                       -426.3170730114684375
  Basis Set: CC-PVTZ
  Basis Set:
  Charge       = 0
  Multiplicity = 1
  Basis Set: CC-PVTZ
  Basis Set:

    Orbital Energies (a.u.)
    -----------------------

    Doubly Occupied:

       1A    -20.536628     2A    -11.316340     3A    -11.229700
       4A    -11.227216     5A    -11.226824     6A    -11.223691
       7A    -11.215691     8A    -11.214122     9A    -11.210253
      10A    -11.208256    11A     -1.396375    12A     -1.096053
      13A     -1.078269    14A     -1.022338    15A     -0.989711
      16A     -0.912771    17A     -0.881568    18A     -0.808991
      19A     -0.793965    20A     -0.719754    21A     -0.668291
      22A     -0.653926    23A     -0.639072    24A     -0.622221
      25A     -0.610542    26A     -0.597634    27A     -0.577852
      28A     -0.558252    29A     -0.544361    30A     -0.539592
      31A     -0.529830    32A     -0.509218    33A     -0.502836
      34A     -0.485565    35A     -0.478949    36A     -0.476341
      37A     -0.466815    38A     -0.464727    39A     -0.458844
      40A     -0.393148

  @DF-RHF Final Energy:  -426.31707395063950

   => Energetics <=

    Nuclear Repulsion Energy =            540.1396216340353931
    One-Electron Energy =               -1648.7403221487736573
    Two-Electron Energy =                 682.2836265640986539
    DFT Exchange-Correlation Energy =       0.0000000000000000
    Empirical Dispersion Energy =           0.0000000000000000
    PCM Polarization Energy =               0.0000000000000000
    EFP Energy =                            0.0000000000000000
    Total Energy =                       -426.3170739506396103
    Molecular point group: c1
  Basis Set: CC-PVTZ
  Basis Set:

  -Total Gradient:
     Atom            X                  Y                   Z
    ------   -----------------  -----------------  -----------------
       1        0.000005802654     0.000003559947    -0.000002073378
       2        0.000536522390    -0.001904425641     0.001118559657
       3       -0.000505020368     0.002182036250    -0.001377686648
       4        0.000002367390    -0.000002821086    -0.000001803245
       5        0.000001627833     0.000002127274    -0.000006915481
       6       -0.001140103554     0.002399929152    -0.000904739138
       7       -0.000006568573    -0.000005795774     0.000013376513
       8       -0.000005745896    -0.000005601043     0.000014564048
       9        0.000020871714    -0.000025437942     0.000015241078
      10        0.001115915433    -0.002604607042     0.001134007092
      11        0.000005733005    -0.000007365923     0.000006697266
      12        0.000013657973     0.000006921868    -0.000056737577
      13       -0.000006922292    -0.000008837698    -0.000003636357
      14       -0.000004649779     0.000005885097    -0.000004928252
      15       -0.000012106470    -0.000032082196    -0.000007457575
      16       -0.000018187505    -0.000033810708     0.000045886803
      17        0.000001950031     0.000015344251     0.000016550836
      18       -0.000004383296     0.000005223715     0.000000534366
      19        0.000005349058     0.000007459824     0.000006203902
      20        0.000009895688    -0.000014215526    -0.000007854882
      21        0.000037653131    -0.000014046298    -0.000020619553
      22        0.000000620208    -0.000037506774     0.000024393632
      23       -0.000018927403     0.000009701382    -0.000010824671
      24       -0.000007911948     0.000041248763    -0.000017995234
      25       -0.000034321132     0.000011792198     0.000018582493
      26        0.000033152830     0.000003538043    -0.000015286706
      27       -0.000001431961    -0.000028418662     0.000023360854
      28       -0.000024839163     0.000030204556     0.000000600159

  **** Optimization is complete! (in 10 steps) ****
    Final optimized geometry and variables:
    Molecular point group: c1

    Geometry (in Angstrom), charge = 0, multiplicity = 1:

    H            1.802455467818     4.089785483535     1.214367589998
    C            1.274529812605     3.423581815581     0.542108287093
    C           -0.182416721468     3.273197851393     0.974056070020
    H            1.355494847926     3.836137015494    -0.459273165865
    H            1.800870526022     2.476153476904     0.552738039679
    C           -1.071883463421     2.471943904687     0.016223754197
    H           -0.621870258029     4.258682921012     1.089486481542
    H           -0.211915420676     2.810493048118     1.953045670618
    C           -0.516071247598     1.123509398229    -0.441626167641
    H           -2.018484598115     2.283910170905     0.506477261793
    H           -1.273544574797     3.065442544941    -0.870283760034
    C           -0.379028840797     0.084314520446     0.657164150190
    H           -1.192575223515     0.694853575972    -1.177031716300
    H            0.434088835634     1.231198101167    -0.951763462145
    C            0.512588265500    -1.111191930990     0.383033528775
    O           -0.964959589860     0.184318686602     1.687013508680
    C            0.006216153416    -2.005656844464    -0.753658507917
    H            0.576331568509    -1.677295950337     1.302439617062
    H            1.508899504958    -0.750924955377     0.141027657654
    C            0.872907657823    -3.246712883255    -0.948198028629
    H           -1.014294997560    -2.310593070478    -0.539436152470
    H           -0.025339079617    -1.445947147097    -1.682985306069
    C            0.377362910679    -4.147386354449    -2.074315147988
    H            0.902663125616    -3.810523269594    -0.020728930917
    H            1.895167829806    -2.940928975265    -1.152929724416
    H           -0.631728804515    -4.495439278851    -1.881604104864
    H            0.369495679215    -3.621174268994    -3.022985215395
    H            1.011754408251    -5.018816734955    -2.185431228760

  Mulliken Charges: (a.u.)
   Center  Symbol    Alpha    Beta     Spin     Total
       1     H     0.44362  0.44362  0.00000  0.11276
       2     C     3.15654  3.15654  0.00000 -0.31309
       3     C     3.09689  3.09689  0.00000 -0.19378
       4     H     0.45465  0.45465  0.00000  0.09070
       5     H     0.45749  0.45749  0.00000  0.08502
       6     C     3.09296  3.09296  0.00000 -0.18592
       7     H     0.44741  0.44741  0.00000  0.10519
       8     H     0.44080  0.44080  0.00000  0.11840
       9     C     3.14044  3.14044  0.00000 -0.28089
      10     H     0.44177  0.44177  0.00000  0.11646
      11     H     0.44608  0.44608  0.00000  0.10784
      12     C     2.86169  2.86169  0.00000  0.27662
      13     H     0.43079  0.43079  0.00000  0.13841
      14     H     0.43840  0.43840  0.00000  0.12321
      15     C     3.09376  3.09376  0.00000 -0.18752
      16     O     4.17867  4.17867  0.00000 -0.35733
      17     C     3.10029  3.10029  0.00000 -0.20059
      18     H     0.43796  0.43796  0.00000  0.12408
      19     H     0.44855  0.44855  0.00000  0.10289
      20     C     3.08712  3.08712  0.00000 -0.17424
      21     H     0.44556  0.44556  0.00000  0.10887
      22     H     0.45042  0.45042  0.00000  0.09917
      23     C     3.14930  3.14930  0.00000 -0.29861
      24     H     0.44983  0.44983  0.00000  0.10033
      25     H     0.45360  0.45360  0.00000  0.09281
      26     H     0.45341  0.45341  0.00000  0.09317
      27     H     0.45518  0.45518  0.00000  0.08965
      28     H     0.44681  0.44681  0.00000  0.10639

   Total alpha = 40.00000, Total beta = 40.00000, Total charge = -0.00000

*** Psi4 exiting successfully. Buy a developer a beer!
