                              Psi4 1.0.54 Driver

  ==> Input File <==

--------------------------------------------------------------------------
set {
	reference rhf
	basis cc-pvtz
}

set_num_threads( 4 )
memory 2 gb

molecule MOL {
0 1

H	 5.269878	 0.195679	 1.068175
C	 4.673900	 -0.208485	 0.258034
C	 3.190199	 -0.204714	 0.610086
H	 4.865136	 0.391893	 -0.624684
H	 5.027838	 -1.214511	 0.056939
C	 2.319208	 -0.778154	 -0.505491
H	 2.876954	 0.809861	 0.827925
H	 3.035335	 -0.782733	 1.518235
C	 3.113303	 -1.400560	 -1.649568
H	 1.649019	 -1.523350	 -0.095177
H	 1.698831	 0.014716	 -0.913257
C	 3.786708	 -2.719664	 -1.310487
H	 2.452555	 -1.605690	 -2.488079
H	 3.860079	 -0.707926	 -2.026530
C	 4.893406	 -3.196641	 -2.230858
O	 3.450583	 -3.369220	 -0.373273
C	 4.423644	 -3.492606	 -3.659176
H	 5.314604	 -4.087420	 -1.784824
H	 5.669397	 -2.436150	 -2.257077
C	 5.538894	 -4.060742	 -4.532735
H	 3.599580	 -4.199920	 -3.624231
H	 4.037883	 -2.588823	 -4.120008
C	 5.082782	 -4.366818	 -5.955199
H	 5.925631	 -4.966014	 -4.074489
H	 6.365305	 -3.355919	 -4.561788
H	 4.277198	 -5.093244	 -5.959931
H	 4.723573	 -3.472298	 -6.453058
H	 5.895285	 -4.770735	 -6.547654

	symmetry c1
}
set optking {
	frozen_dihedral = ("
		10 6 3 2
	")
}

ee,wfn = optimize('scf', return_wfn=True)
oeprop( wfn, 'DIPOLE', 'QUADRUPOLE', 'MULLIKEN_CHARGES')
f=open( 'psi4out.xyz', 'w' )
f.write( "28  " )
f.write( str(ee) + "\n" )
f.write( MOL.save_string_xyz() )
f.close()
--------------------------------------------------------------------------

    Molecular point group: c1
  Charge       = 0
  Multiplicity = 1
  Basis Set: CC-PVTZ
  Basis Set:
  @DF-RHF Final Energy:  -426.30561610349196
    Total Energy =                       -426.3056161034919569
    Molecular point group: c1
  Basis Set: CC-PVTZ
  Basis Set:
  Basis Set: CC-PVTZ
  Basis Set:
  @DF-RHF Final Energy:  -426.13092556995468
    Total Energy =                       -426.1309255699545702
  Basis Set: CC-PVTZ
  Basis Set:
  Basis Set: CC-PVTZ
  Basis Set:
  @DF-RHF Final Energy:  -426.25038540013531
    Total Energy =                       -426.2503854001354284
  Basis Set: CC-PVTZ
  Basis Set:
  Basis Set: CC-PVTZ
  Basis Set:
  @DF-RHF Final Energy:  -426.30563069290122
    Total Energy =                       -426.3056306929012180
  Basis Set: CC-PVTZ
  Basis Set:
  @DF-RHF Final Energy:  -426.30949648987075
    Total Energy =                       -426.3094964898706394
  @DF-RHF Final Energy:  -426.30562721857723
    Total Energy =                       -426.3056272185765465
  @DF-RHF Final Energy:  -426.30995490850557
    Total Energy =                       -426.3099549085052331
  @DF-RHF Final Energy:  -426.31040128870757
    Total Energy =                       -426.3104012887083627
  @DF-RHF Final Energy:  -426.31047577910510
    Total Energy =                       -426.3104757791049906
  @DF-RHF Final Energy:  -426.31053454204937
    Total Energy =                       -426.3105345420492540
  @DF-RHF Final Energy:  -426.31055099947673
    Total Energy =                       -426.3105509994773001
  Basis Set: CC-PVTZ
  Basis Set:
  @DF-RHF Final Energy:  -426.31059236205499
    Total Energy =                       -426.3105923620552176
  Basis Set: CC-PVTZ
  Basis Set:
  Basis Set: CC-PVTZ
  Basis Set:
  @DF-RHF Final Energy:  -426.31059605213568
    Total Energy =                       -426.3105960521351108
  Basis Set: CC-PVTZ
  Basis Set:
  Basis Set: CC-PVTZ
  Basis Set:
  @DF-RHF Final Energy:  -426.31059795024771
    Total Energy =                       -426.3105979502479386
  Basis Set: CC-PVTZ
  Basis Set:
  Charge       = 0
  Multiplicity = 1
  Basis Set: CC-PVTZ
  Basis Set:

    Orbital Energies (a.u.)
    -----------------------

    Doubly Occupied:

       1A    -20.536287     2A    -11.315952     3A    -11.229611
       4A    -11.227209     5A    -11.226615     6A    -11.223553
       7A    -11.214876     8A    -11.214015     9A    -11.211836
      10A    -11.206777    11A     -1.396162    12A     -1.095447
      13A     -1.075359    14A     -1.021431    15A     -0.989630
      16A     -0.913789    17A     -0.881534    18A     -0.808755
      19A     -0.790890    20A     -0.720182    21A     -0.670424
      22A     -0.652574    23A     -0.637786    24A     -0.623759
      25A     -0.609666    26A     -0.595882    27A     -0.578156
      28A     -0.553673    29A     -0.546743    30A     -0.534080
      31A     -0.532569    32A     -0.509654    33A     -0.506263
      34A     -0.484739    35A     -0.477751    36A     -0.474847
      37A     -0.469534    38A     -0.457842    39A     -0.455493
      40A     -0.393805

  @DF-RHF Final Energy:  -426.31059852645103

   => Energetics <=

    Nuclear Repulsion Energy =            542.2213728917010940
    One-Electron Energy =               -1652.9336427890896175
    Two-Electron Energy =                 684.4016713709370379
    DFT Exchange-Correlation Energy =       0.0000000000000000
    Empirical Dispersion Energy =           0.0000000000000000
    PCM Polarization Energy =               0.0000000000000000
    EFP Energy =                            0.0000000000000000
    Total Energy =                       -426.3105985264514857
    Molecular point group: c1
  Basis Set: CC-PVTZ
  Basis Set:

  -Total Gradient:
     Atom            X                  Y                   Z
    ------   -----------------  -----------------  -----------------
       1       -0.000011361356    -0.000012097824    -0.000011829898
       2        0.000970415175    -0.001913643979     0.001915891928
       3       -0.000649518504     0.002334356772    -0.002749926890
       4       -0.000011990645    -0.000008272002     0.000014560705
       5       -0.000016300324     0.000017242418     0.000001662916
       6       -0.003506760976     0.001541017737     0.000720021271
       7        0.000005824854    -0.000005236014    -0.000009455035
       8        0.000006676924    -0.000004881592    -0.000008112518
       9        0.000035694895    -0.000045854584     0.000077411872
      10        0.003219695708    -0.001961600696     0.000126917243
      11       -0.000001236117    -0.000003316307    -0.000010043545
      12       -0.000016409505     0.000079046090    -0.000150459672
      13       -0.000014968189    -0.000001267530    -0.000002550473
      14       -0.000001326547     0.000018698782    -0.000011829814
      15       -0.000025178499    -0.000086046023    -0.000007983441
      16        0.000008671058    -0.000000086541     0.000087172834
      17        0.000032584112     0.000010547270    -0.000007763763
      18       -0.000010547641     0.000018018249     0.000008019569
      19        0.000003923361     0.000026357310     0.000019823282
      20       -0.000012133534     0.000005003652    -0.000006645100
      21       -0.000003721995    -0.000014137515    -0.000006811782
      22        0.000007552998    -0.000007587417    -0.000001733927
      23        0.000007961391     0.000009252373     0.000005556851
      24       -0.000002954878     0.000006016683     0.000004382758
      25        0.000000903613     0.000005586538     0.000002738164
      26       -0.000007705856    -0.000008448317    -0.000000879764
      27       -0.000002232674    -0.000001015100    -0.000003976773
      28       -0.000005556848     0.000002347568     0.000005843005

  **** Optimization is complete! (in 15 steps) ****
    Final optimized geometry and variables:
    Molecular point group: c1

    Geometry (in Angstrom), charge = 0, multiplicity = 1:

    H            0.495704912356     4.003556673974     1.980866818862
    C            0.164009579544     3.188485037820     1.348088504888
    C           -1.282553831993     2.830547268327     1.685200019938
    H            0.277973168676     3.514384752911     0.319559424857
    H            0.836532893860     2.357516217167     1.518268384430
    C           -1.947023657209     1.689159925630     0.871819406322
    H           -1.889610387282     3.723364963502     1.583796941878
    H           -1.315851284341     2.565140577627     2.734779874503
    C           -1.044256473668     0.866040062951    -0.047279712368
    H           -2.398730973335     0.990354430623     1.561969917668
    H           -2.741842604536     2.100901439958     0.261124892070
    C           -0.101617205423    -0.080836798311     0.672791777370
    H           -1.669389360730     0.242496205681    -0.681605806742
    H           -0.472406175863     1.486872931704    -0.727208703086
    C            1.014524905129    -0.710017090561    -0.138667240013
    O           -0.238977601330    -0.341511745284     1.824933560127
    C            0.516201871312    -1.682151068161    -1.213802774032
    H            1.660061623958    -1.227086070111     0.558323242710
    H            1.592160136326     0.081501234024    -0.608046301466
    C            1.661118258407    -2.375916510562    -1.946755123224
    H           -0.119375421978    -2.431193114010    -0.749809548989
    H           -0.099628758165    -1.155777537210    -1.936064245606
    C            1.178752585047    -3.347923832407    -3.017969775177
    H            2.276119435889    -2.907426605953    -1.226803287809
    H            2.302118768435    -1.625655997454    -2.401475021747
    H            0.560779281143    -4.128845509088    -2.587913469498
    H            0.589186947316    -2.838673233115    -3.773043529262
    H            2.013902156320    -3.824874427249    -3.517298044722

  Mulliken Charges: (a.u.)
   Center  Symbol    Alpha    Beta     Spin     Total
       1     H     0.44186  0.44186  0.00000  0.11627
       2     C     3.16348  3.16348  0.00000 -0.32695
       3     C     3.08363  3.08363  0.00000 -0.16725
       4     H     0.45616  0.45616  0.00000  0.08768
       5     H     0.45011  0.45011  0.00000  0.09978
       6     C     3.09872  3.09872  0.00000 -0.19744
       7     H     0.45083  0.45083  0.00000  0.09834
       8     H     0.44707  0.44707  0.00000  0.10587
       9     C     3.12954  3.12954  0.00000 -0.25908
      10     H     0.44309  0.44309  0.00000  0.11382
      11     H     0.44448  0.44448  0.00000  0.11103
      12     C     2.87019  2.87019  0.00000  0.25962
      13     H     0.43049  0.43049  0.00000  0.13902
      14     H     0.44142  0.44142  0.00000  0.11717
      15     C     3.09005  3.09005  0.00000 -0.18010
      16     O     4.17959  4.17959  0.00000 -0.35919
      17     C     3.10020  3.10020  0.00000 -0.20040
      18     H     0.43795  0.43795  0.00000  0.12411
      19     H     0.44940  0.44940  0.00000  0.10120
      20     C     3.08720  3.08720  0.00000 -0.17441
      21     H     0.44540  0.44540  0.00000  0.10920
      22     H     0.45079  0.45079  0.00000  0.09843
      23     C     3.14942  3.14942  0.00000 -0.29885
      24     H     0.44990  0.44990  0.00000  0.10019
      25     H     0.45360  0.45360  0.00000  0.09280
      26     H     0.45339  0.45339  0.00000  0.09322
      27     H     0.45522  0.45522  0.00000  0.08955
      28     H     0.44682  0.44682  0.00000  0.10636

   Total alpha = 40.00000, Total beta = 40.00000, Total charge = -0.00000

*** Psi4 exiting successfully. Buy a developer a beer!
