  ==> Input File <==

--------------------------------------------------------------------------
set {
	reference rhf
	basis 6-31G*
}

set_num_threads( 4 )
memory 2 gb

molecule MOL {
0 1

O	 3.225979	 0.970355	 -0.599647
C	 2.701189	 0.057885	 -0.047330
C	 1.245376	 -0.013843	 0.345420
O	 3.347903	 -1.046386	 0.304773
C	 0.669116	 -1.425322	 0.257284
H	 1.165249	 0.396495	 1.346615
H	 0.702379	 0.671405	 -0.300557
C	 -0.833130	 -1.498083	 0.551322
H	 1.209158	 -2.076321	 0.938219
H	 0.855355	 -1.813216	 -0.738345
C	 -1.226267	 -1.155313	 1.991136
H	 -1.171115	 -2.507783	 0.329976
H	 -1.368968	 -0.843767	 -0.134796
C	 -2.719594	 -1.348880	 2.262253
H	 -0.652862	 -1.777837	 2.676329
H	 -0.958982	 -0.125606	 2.217485
C	 -3.124877	 -1.004330	 3.696534
H	 -2.992772	 -2.381284	 2.050709
H	 -3.293781	 -0.734776	 1.570238
C	 -4.616985	 -1.203978	 3.960078
H	 -2.551320	 -1.616385	 4.389400
H	 -2.856571	 0.028572	 3.908440
H	 -4.873138	 -0.951665	 4.984446
H	 -4.910339	 -2.236159	 3.790545
H	 -5.217852	 -0.578953	 3.305420
C	 4.728119	 -1.109107	 -0.004993
H	 4.882018	 -1.033965	 -1.071845
H	 5.068212	 -2.067527	 0.355250
H	 5.265056	 -0.311663	 0.488280

	symmetry c1
}
set optking {
	frozen_dihedral = ("
		6 3 2 1
	")
}

ee = optimize('scf')
oeprop('DIPOLE', 'QUADRUPOLE', 'MULLIKEN_CHARGES')
f=open( 'psi4out.xyz', 'w' )
f.write( "29  " )
f.write( str(ee) + "\n" )
f.write( MOL.save_string_xyz() )
f.close()
--------------------------------------------------------------------------

    Molecular point group: c1
  Charge       = 0
  Multiplicity = 1
  Basis Set: 6-31G*
  Basis Set:
  @DF-RHF Final Energy:  -501.04141611808120
    Total Energy =                       -501.0414161180812016
    Molecular point group: c1
  Basis Set: 6-31G*
  Basis Set:
  Basis Set: 6-31G*
  Basis Set:
  @DF-RHF Final Energy:  -501.04029989964124
    Total Energy =                       -501.0402998996410133
  Basis Set: 6-31G*
  Basis Set:
  Basis Set: 6-31G*
  Basis Set:
  @DF-RHF Final Energy:  -501.04168373925302
    Total Energy =                       -501.0416837392527896
  Basis Set: 6-31G*
  Basis Set:
  Basis Set: 6-31G*
  Basis Set:
  @DF-RHF Final Energy:  -501.04214934875915
    Total Energy =                       -501.0421493487590396
  Basis Set: 6-31G*
  Basis Set:
  Basis Set: 6-31G*
  Basis Set:
  @DF-RHF Final Energy:  -501.04214846585967
    Total Energy =                       -501.0421484658593272
  Basis Set: 6-31G*
  Basis Set:
  Basis Set: 6-31G*
  Basis Set:
  @DF-RHF Final Energy:  -501.04213952405451
    Total Energy =                       -501.0421395240540505
  Basis Set: 6-31G*
  Basis Set:
  Basis Set: 6-31G*
  Basis Set:
  @DF-RHF Final Energy:  -501.04215928398219
    Total Energy =                       -501.0421592839827554
  Basis Set: 6-31G*
  Basis Set:
  Charge       = 0
  Multiplicity = 1
  Basis Set: 6-31G*
  Basis Set:

    Orbital Energies (a.u.)
    -----------------------

    Doubly Occupied:

       1A    -20.604985     2A    -20.541750     3A    -11.371399
       4A    -11.281048     5A    -11.234398     6A    -11.224980
       7A    -11.220309     8A    -11.217715     9A    -11.216768
      10A    -11.215703    11A    -11.209726    12A     -1.469221
      13A     -1.360720    14A     -1.100473    15A     -1.068336
      16A     -1.019122    17A     -0.973812    18A     -0.932141
      19A     -0.865391    20A     -0.799880    21A     -0.791275
      22A     -0.773061    23A     -0.696947    24A     -0.681337
      25A     -0.670475    26A     -0.652364    27A     -0.629516
      28A     -0.605985    29A     -0.589858    30A     -0.576142
      31A     -0.570521    32A     -0.543635    33A     -0.541656
      34A     -0.532490    35A     -0.519549    36A     -0.514142
      37A     -0.500978    38A     -0.479676    39A     -0.472647
      40A     -0.463747    41A     -0.462781    42A     -0.454692
      43A     -0.445152    44A     -0.426027

  @DF-RHF Final Energy:  -501.04215945395413

   => Energetics <=

    Nuclear Repulsion Energy =            612.8223245920294175
    One-Electron Energy =               -1896.6839123934673808
    Two-Electron Energy =                 782.8194283474836084
    DFT Exchange-Correlation Energy =       0.0000000000000000
    Empirical Dispersion Energy =           0.0000000000000000
    PCM Polarization Energy =               0.0000000000000000
    EFP Energy =                            0.0000000000000000
    Total Energy =                       -501.0421594539543548
    Molecular point group: c1
  Basis Set: 6-31G*
  Basis Set:

  -Total Gradient:
     Atom            X                  Y                   Z
    ------   -----------------  -----------------  -----------------
       1        0.000206539217     0.000332000453     0.000889930649
       2       -0.000366745646    -0.000264788903    -0.001350019665
       3        0.000285281712    -0.000869120905     0.000755864632
       4        0.000041936405    -0.000050462515     0.000013333302
       5        0.000000204236    -0.000004973050     0.000003431812
       6       -0.000149860928     0.000854953799    -0.000305889463
       7        0.000000851487    -0.000003789943     0.000001271009
       8       -0.000000143604    -0.000005227468     0.000000563128
       9       -0.000001112066     0.000000985131    -0.000002206133
      10       -0.000002261300     0.000000314241    -0.000003369857
      11        0.000003451256     0.000010844872    -0.000002858205
      12       -0.000002239982    -0.000000878434     0.000001206137
      13        0.000002116090     0.000000535559     0.000000530943
      14        0.000000757752    -0.000003476117    -0.000002320470
      15        0.000001447508     0.000003573152    -0.000004696811
      16        0.000001110407     0.000003262254     0.000000954554
      17        0.000000774970    -0.000003768402     0.000000965822
      18       -0.000001864785    -0.000000901650    -0.000001985056
      19       -0.000000259732     0.000000451313     0.000002378579
      20       -0.000000188335     0.000000244085    -0.000000013168
      21       -0.000000312965    -0.000000151648     0.000000820355
      22        0.000000421010    -0.000000625644    -0.000000720670
      23       -0.000000108843     0.000000315568    -0.000000077980
      24        0.000000277531     0.000000287686     0.000000189692
      25       -0.000000154595    -0.000000052001    -0.000000172662
      26       -0.000029270367     0.000001791977     0.000002080304
      27        0.000004313079    -0.000000436314    -0.000000972861
      28        0.000001269898    -0.000001765688     0.000001115945
      29        0.000003770577     0.000000858595     0.000000666145

  **** Optimization is complete! (in 8 steps) ****
    Final optimized geometry and variables:
    Molecular point group: c1

    Geometry (in Angstrom), charge = 0, multiplicity = 1:

    O            2.833681920588     1.782027908271    -1.705056106190
    C            2.358893420001     0.820453272061    -1.190679129347
    C            0.911183534804     0.711726255584    -0.772434799674
    O            3.067344883131    -0.256673190863    -0.881212384116
    C            0.298808324630    -0.687702621795    -0.886287856608
    H            0.866036676341     1.073275776325     0.251386830194
    H            0.365228715974     1.427092925113    -1.375933588541
    C           -1.206380021541    -0.720289938792    -0.598679173437
    H            0.815472984721    -1.366114743416    -0.216309831336
    H            0.467888356365    -1.063254179690    -1.891989307488
    C           -1.592612227657    -0.380850789637     0.843692678603
    H           -1.572064196893    -1.717807475040    -0.831385358974
    H           -1.719960676965    -0.043627853554    -1.279478578932
    C           -3.091161881753    -0.537813705516     1.109918767185
    H           -1.037029487977    -1.024332139742     1.524218990035
    H           -1.299252854119     0.639444620119     1.079469912513
    C           -3.490301479477    -0.195030628473     2.546337050796
    H           -3.390797838414    -1.560885270191     0.888939108936
    H           -3.647348005182     0.097104941439     0.422129082193
    C           -4.987790582022    -0.357252618113     2.804954621914
    H           -2.934766906002    -0.828065852156     3.235056623820
    H           -3.195191021637     0.828486745818     2.767625990183
    H           -5.239442318527    -0.106859419560     3.830880565256
    H           -5.308076946613    -1.379814277468     2.626050468920
    H           -5.570266955518     0.289074056333     2.154430975772
    C            4.447704675929    -0.229298831417    -1.196946633551
    H            4.591293439351    -0.099724759720    -2.259824469261
    H            4.841804573963    -1.181935333392    -0.878928039357
    H            4.940977489175     0.575327675982    -0.671063830603

  Mulliken Charges: (a.u.)
   Center  Symbol    Alpha    Beta     Spin     Total
       1     O     4.28846  4.28846  0.00000 -0.57692
       2     C     2.60787  2.60787  0.00000  0.78426
       3     C     3.20751  3.20751  0.00000 -0.41502
       4     O     4.30284  4.30284  0.00000 -0.60568
       5     C     3.15742  3.15742  0.00000 -0.31485
       6     H     0.39953  0.39953  0.00000  0.20094
       7     H     0.39853  0.39853  0.00000  0.20294
       8     C     3.15620  3.15620  0.00000 -0.31240
       9     H     0.40959  0.40959  0.00000  0.18082
      10     H     0.41604  0.41604  0.00000  0.16793
      11     C     3.15550  3.15550  0.00000 -0.31100
      12     H     0.41863  0.41863  0.00000  0.16274
      13     H     0.42182  0.42182  0.00000  0.15635
      14     C     3.15045  3.15045  0.00000 -0.30090
      15     H     0.42279  0.42279  0.00000  0.15442
      16     H     0.42244  0.42244  0.00000  0.15512
      17     C     3.15159  3.15159  0.00000 -0.30318
      18     H     0.42357  0.42357  0.00000  0.15287
      19     H     0.42335  0.42335  0.00000  0.15330
      20     C     3.23942  3.23942  0.00000 -0.47884
      21     H     0.42297  0.42297  0.00000  0.15406
      22     H     0.42293  0.42293  0.00000  0.15415
      23     H     0.41903  0.41903  0.00000  0.16194
      24     H     0.42169  0.42169  0.00000  0.15661
      25     H     0.42153  0.42153  0.00000  0.15695
      26     C     3.09235  3.09235  0.00000 -0.18471
      27     H     0.40841  0.40841  0.00000  0.18317
      28     H     0.40882  0.40882  0.00000  0.18236
      29     H     0.40872  0.40872  0.00000  0.18256

   Total alpha = 44.00000, Total beta = 44.00000, Total charge =  0.00000
