  ==> Input File <==

--------------------------------------------------------------------------
set {
	reference rhf
	basis 6-31G*
}

set_num_threads( 4 )
memory 2 gb

molecule MOL {
0 1

H	 -3.587954	 1.351598	 1.684784
C	 -3.610004	 0.627290	 0.861064
C	 -2.660244	 0.921717	 -0.272021
O	 -4.346270	 -0.304256	 0.904467
C	 -1.220012	 1.144545	 0.209990
H	 -2.719881	 0.110230	 -0.988011
H	 -3.017831	 1.826437	 -0.762194
C	 -0.252658	 0.041456	 -0.226725
H	 -0.873521	 2.100229	 -0.171974
H	 -1.211708	 1.231594	 1.295398
C	 1.180775	 0.282413	 0.250794
H	 -0.266029	 -0.034465	 -1.312038
H	 -0.597733	 -0.921000	 0.146291
C	 2.148627	 -0.814315	 -0.201312
H	 1.516199	 1.249228	 -0.115937
H	 1.192670	 0.346017	 1.338083
C	 3.580890	 -0.659131	 0.322722
H	 2.166869	 -0.852443	 -1.289387
H	 1.762857	 -1.776509	 0.128956
C	 4.324889	 0.564933	 -0.213704
H	 4.142010	 -1.551473	 0.056605
H	 3.564836	 -0.624694	 1.410140
H	 4.342616	 0.565491	 -1.300421
H	 3.866655	 1.493402	 0.110242
H	 5.353900	 0.572371	 0.132816

	symmetry c1
}
set optking {
	frozen_dihedral = ("
		6 3 5 8
	")
}

ee = optimize('scf')
oeprop('DIPOLE', 'QUADRUPOLE', 'MULLIKEN_CHARGES')
f=open( 'psi4out.xyz', 'w' )
f.write( "25  " )
f.write( str(ee) + "\n" )
f.write( MOL.save_string_xyz() )
f.close()
--------------------------------------------------------------------------

    Molecular point group: c1
  Charge       = 0
  Multiplicity = 1
  Basis Set: 6-31G*
  Basis Set:
  @DF-RHF Final Energy:  -387.11755850722744
    Total Energy =                       -387.1175585072278409
    Molecular point group: c1
  Basis Set: 6-31G*
  Basis Set:
  Basis Set: 6-31G*
  Basis Set:
  @DF-RHF Final Energy:  -387.11783253040221
    Total Energy =                       -387.1178325304017562
  Basis Set: 6-31G*
  Basis Set:
  Basis Set: 6-31G*
  Basis Set:
  @DF-RHF Final Energy:  -387.11786959319767
    Total Energy =                       -387.1178695931978382
  Basis Set: 6-31G*
  Basis Set:
  Basis Set: 6-31G*
  Basis Set:
  @DF-RHF Final Energy:  -387.11789719067434
    Total Energy =                       -387.1178971906733750
  Basis Set: 6-31G*
  Basis Set:
  Basis Set: 6-31G*
  Basis Set:
  @DF-RHF Final Energy:  -387.11790385430032
    Total Energy =                       -387.1179038543002662
  Basis Set: 6-31G*
  Basis Set:
  Basis Set: 6-31G*
  Basis Set:
  @DF-RHF Final Energy:  -387.11790505794380
    Total Energy =                       -387.1179050579435170
  Basis Set: 6-31G*
  Basis Set:
  Charge       = 0
  Multiplicity = 1
  Basis Set: 6-31G*
  Basis Set:

    Orbital Energies (a.u.)
    -----------------------

    Doubly Occupied:

       1A    -20.561939     2A    -11.326240     3A    -11.235457
       4A    -11.234429     5A    -11.224325     6A    -11.219599
       7A    -11.218282     8A    -11.217347     9A    -11.210978
      10A     -1.402098    11A     -1.102634    12A     -1.068569
      13A     -1.013521    14A     -0.943885    15A     -0.874891
      16A     -0.813940    17A     -0.794939    18A     -0.780667
      19A     -0.670516    20A     -0.657517    21A     -0.632633
      22A     -0.623997    23A     -0.608289    24A     -0.587207
      25A     -0.571458    26A     -0.556484    27A     -0.528100
      28A     -0.524186    29A     -0.514440    30A     -0.493832
      31A     -0.488134    32A     -0.480069    33A     -0.464903
      34A     -0.459049    35A     -0.442785    36A     -0.409069

  @DF-RHF Final Energy:  -387.11790531083216

   => Energetics <=

    Nuclear Repulsion Energy =            434.7249348183836446
    One-Electron Energy =               -1385.7728546267244383
    Two-Electron Energy =                 563.9300144975082958
    DFT Exchange-Correlation Energy =       0.0000000000000000
    Empirical Dispersion Energy =           0.0000000000000000
    PCM Polarization Energy =               0.0000000000000000
    EFP Energy =                            0.0000000000000000
    Total Energy =                       -387.1179053108324979
    Molecular point group: c1
  Basis Set: 6-31G*
  Basis Set:

  -Total Gradient:
     Atom            X                  Y                   Z
    ------   -----------------  -----------------  -----------------
       1        0.000006319312     0.000018902974    -0.000037494881
       2        0.000019749656    -0.000072239326    -0.000097525779
       3        0.000413363708     0.002165369236    -0.002662103105
       4       -0.000022413686     0.000017941787     0.000008665339
       5       -0.000416340349    -0.001535030008     0.002335226038
       6       -0.000335280882    -0.001452567157     0.001762581148
       7       -0.000063986516     0.000000711588     0.000012233662
       8        0.000307621917     0.000855871827    -0.001298230855
       9        0.000037506971    -0.000020393579    -0.000003870267
      10        0.000061816718    -0.000003543251     0.000006511806
      11        0.000008574308     0.000003479985     0.000001151792
      12       -0.000000405038     0.000022818930    -0.000000022674
      13       -0.000019471810    -0.000008069149    -0.000006107755
      14        0.000005256794     0.000005755602    -0.000008604889
      15        0.000010228983    -0.000004742232    -0.000002241914
      16       -0.000016650954     0.000006752064    -0.000006722939
      17       -0.000002814990     0.000000178075     0.000000759991
      18        0.000005304252    -0.000006543937    -0.000003328091
      19       -0.000004550026     0.000004072805     0.000002719401
      20        0.000002820372     0.000005573700     0.000000742732
      21        0.000000424508    -0.000000046651    -0.000000913490
      22       -0.000002204663    -0.000002567819    -0.000001099550
      23        0.000000180141     0.000000500236    -0.000000810290
      24        0.000003681638    -0.000003598753    -0.000000670646
      25        0.000001269649     0.000001413058    -0.000000844787

  **** Optimization is complete! (in 7 steps) ****
    Final optimized geometry and variables:
    Molecular point group: c1

    Geometry (in Angstrom), charge = 0, multiplicity = 1:

    H           -3.487996073400     1.126761560265     1.517925060896
    C           -3.503063637421     0.403502585455     0.693530163560
    C           -2.584464351203     0.725546048812    -0.459294699687
    O           -4.209978441951    -0.549776333845     0.748583193909
    C           -1.129176160938     0.979415243912     0.001059961519
    H           -2.645469924257    -0.103916495305    -1.153392551933
    H           -2.987024281320     1.607183760171    -0.952523585668
    C           -0.166356389987    -0.130518349842    -0.427472377740
    H           -0.777743304926     1.924535483423    -0.401089088770
    H           -1.093272861523     1.088366762173     1.083428677401
    C            1.267136135240     0.100790108126     0.053129061229
    H           -0.176642922701    -0.207791925749    -1.512694480389
    H           -0.526880666223    -1.085572571560    -0.050098614775
    C            2.227954906679    -1.004175863309    -0.394358164333
    H            1.611650736044     1.064725904168    -0.313058298326
    H            1.275946571728     0.164835470237     1.140256743257
    C            3.657647959109    -0.864528984266     0.140836234024
    H            2.254794468349    -1.038990227142    -1.482363254082
    H            1.830245364832    -1.963517327650    -0.070147750954
    C            4.416371270688     0.356232249843    -0.382965272920
    H            4.212870222545    -1.760448141740    -0.125495705468
    H            3.633082222389    -0.835803736029     1.228287989888
    H            4.445857698620     0.360762742350    -1.469330078056
    H            3.961853613811     1.287084598116    -0.060287209706
    H            5.441565093546     0.354736533160    -0.025812867492

  Mulliken Charges: (a.u.)
   Center  Symbol    Alpha    Beta     Spin     Total
       1     H     0.43191  0.43191  0.00000  0.13618
       2     C     2.83331  2.83331  0.00000  0.33338
       3     C     3.21053  3.21053  0.00000 -0.42105
       4     O     4.23698  4.23698  0.00000 -0.47397
       5     C     3.16771  3.16771  0.00000 -0.33541
       6     H     0.39705  0.39705  0.00000  0.20591
       7     H     0.40532  0.40532  0.00000  0.18937
       8     C     3.15310  3.15310  0.00000 -0.30620
       9     H     0.41438  0.41438  0.00000  0.17124
      10     H     0.41734  0.41734  0.00000  0.16532
      11     C     3.15522  3.15522  0.00000 -0.31045
      12     H     0.41976  0.41976  0.00000  0.16049
      13     H     0.41736  0.41736  0.00000  0.16527
      14     C     3.15303  3.15303  0.00000 -0.30607
      15     H     0.42120  0.42120  0.00000  0.15761
      16     H     0.42312  0.42312  0.00000  0.15375
      17     C     3.15269  3.15269  0.00000 -0.30538
      18     H     0.42364  0.42364  0.00000  0.15271
      19     H     0.42071  0.42071  0.00000  0.15859
      20     C     3.24136  3.24136  0.00000 -0.48273
      21     H     0.42007  0.42007  0.00000  0.15986
      22     H     0.42293  0.42293  0.00000  0.15413
      23     H     0.42210  0.42210  0.00000  0.15580
      24     H     0.42059  0.42059  0.00000  0.15881
      25     H     0.41858  0.41858  0.00000  0.16284

   Total alpha = 36.00000, Total beta = 36.00000, Total charge =  0.00000
