  ==> Input File <==

--------------------------------------------------------------------------
set {
	reference rhf
	basis 6-31G*
}

set_num_threads( 4 )
memory 2 gb

molecule MOL {
0 1

H	 -2.025153	 0.170565	 0.102115
N	 -1.172117	 -0.314371	 -0.100254
C	 -0.024542	 0.565565	 0.069209
H	 -1.119189	 -1.086435	 0.537079
C	 1.271298	 -0.229563	 -0.014192
H	 -0.049409	 1.297310	 -0.731596
H	 -0.046881	 1.125219	 1.006750
H	 1.332152	 -0.753033	 -0.961461
H	 2.134169	 0.422483	 0.080702
H	 1.326077	 -0.968298	 0.781395

	symmetry c1
}
set optking {
	frozen_dihedral = ("
		1 2 3 6
	")
}

ee = optimize('scf')
oeprop('DIPOLE', 'QUADRUPOLE', 'MULLIKEN_CHARGES')
f=open( 'psi4out.xyz', 'w' )
f.write( "10  " )
f.write( str(ee) + "\n" )
f.write( MOL.save_string_xyz() )
f.close()
--------------------------------------------------------------------------

    Molecular point group: c1
  Charge       = 0
  Multiplicity = 1
  Basis Set: 6-31G*
  Basis Set:
  @DF-RHF Final Energy:  -134.24724929286018
    Total Energy =                       -134.2472492928602321
    Molecular point group: c1
  Basis Set: 6-31G*
  Basis Set:
  Basis Set: 6-31G*
  Basis Set:
  @DF-RHF Final Energy:  -134.24729559586868
    Total Energy =                       -134.2472955958687066
  Basis Set: 6-31G*
  Basis Set:
  Basis Set: 6-31G*
  Basis Set:
  @DF-RHF Final Energy:  -134.24730004159568
    Total Energy =                       -134.2473000415957358
  Basis Set: 6-31G*
  Basis Set:
  Charge       = 0
  Multiplicity = 1
  Basis Set: 6-31G*
  Basis Set:

    Orbital Energies (a.u.)
    -----------------------

    Doubly Occupied:

       1A    -15.533360     2A    -11.242579     3A    -11.208822
       4A     -1.176943     5A     -0.988111     6A     -0.825199
       7A     -0.658135     8A     -0.632622     9A     -0.584324
      10A     -0.517759    11A     -0.504515    12A     -0.490511
      13A     -0.383497

  @DF-RHF Final Energy:  -134.24730049076794

   => Energetics <=

    Nuclear Repulsion Energy =             83.3964221237725383
    One-Electron Energy =                -345.7946930560483452
    Two-Electron Energy =                 128.1509704415079227
    DFT Exchange-Correlation Energy =       0.0000000000000000
    Empirical Dispersion Energy =           0.0000000000000000
    PCM Polarization Energy =               0.0000000000000000
    EFP Energy =                            0.0000000000000000
    Total Energy =                       -134.2473004907678842
    Molecular point group: c1
  Basis Set: 6-31G*
  Basis Set:

  -Total Gradient:
     Atom            X                  Y                   Z
    ------   -----------------  -----------------  -----------------
       1        0.000094402503    -0.000538593782     0.001905567044
       2        0.000122880428     0.000484693379    -0.002630707788
       3       -0.001266149541     0.001196579359     0.001743271134
       4        0.000009229792    -0.000021603053     0.000017848180
       5        0.000011705341    -0.000012143443    -0.000005840876
       6        0.000998165961    -0.001107658318    -0.001021932036
       7        0.000000343061     0.000011787130    -0.000001395991
       8        0.000011792388    -0.000008579588    -0.000001647061
       9        0.000007872162     0.000001413797    -0.000002186692
      10        0.000009757904    -0.000005895480    -0.000002975912

  **** Optimization is complete! (in 4 steps) ****
    Final optimized geometry and variables:
    Molecular point group: c1

    Geometry (in Angstrom), charge = 0, multiplicity = 1:

    H           -2.028380562372     0.172766413461     0.086531665192
    N           -1.173514042101    -0.312995048030    -0.107998772351
    C           -0.028322675953     0.569210301263     0.073599912698
    H           -1.129603391123    -1.071366682940     0.547110685226
    C            1.268852744055    -0.224344780522    -0.015818540155
    H           -0.043759829905     1.302632530209    -0.726098696390
    H           -0.052658089976     1.118604013517     1.016494293320
    H            1.323962558899    -0.752162873345    -0.961406108592
    H            2.130545983005     0.430536805216     0.066378461253
    H            1.334329479383    -0.958402050907     0.783569567605

  Mulliken Charges: (a.u.)
   Center  Symbol    Alpha    Beta     Spin     Total
       1     H     0.33330  0.33330  0.00000  0.33340
       2     N     3.91800  3.91800  0.00000 -0.83600
       3     C     3.06094  3.06094  0.00000 -0.12187
       4     H     0.33630  0.33630  0.00000  0.32740
       5     C     3.24251  3.24251  0.00000 -0.48503
       6     H     0.41885  0.41885  0.00000  0.16229
       7     H     0.43382  0.43382  0.00000  0.13235
       8     H     0.41100  0.41100  0.00000  0.17800
       9     H     0.42001  0.42001  0.00000  0.15997
      10     H     0.42526  0.42526  0.00000  0.14948

   Total alpha = 13.00000, Total beta = 13.00000, Total charge =  0.00000
