  ==> Input File <==

--------------------------------------------------------------------------
set {
	reference rhf
	basis cc-pvtz
}

set_num_threads( 4 )
memory 2 gb

molecule MOL {
0 1

O	 -0.694481	 1.313155	 -0.204815
C	 -0.862519	 0.151932	 -0.046791
C	 -2.171428	 -0.477048	 0.339095
O	 0.085519	 -0.757083	 -0.192238
H	 -2.467997	 -1.191667	 -0.417688
H	 -2.923379	 0.287970	 0.444097
H	 -2.053854	 -1.015120	 1.270901
C	 1.392036	 -0.330828	 -0.560749
C	 2.270420	 -0.105291	 0.652294
H	 1.318442	 0.563681	 -1.159291
H	 1.778983	 -1.132235	 -1.172116
H	 3.273427	 0.152598	 0.331479
H	 1.889606	 0.703924	 1.260188
H	 2.326401	 -1.002813	 1.256375

	symmetry c1
}
set optking {
	frozen_dihedral = ("
		10 8 4 2
	")
}

ee = optimize('scf')
oeprop('DIPOLE', 'QUADRUPOLE', 'MULLIKEN_CHARGES')
f=open( 'psi4out.xyz', 'w' )
f.write( "14  " )
f.write( str(ee) + "\n" )
f.write( MOL.save_string_xyz() )
f.close()
--------------------------------------------------------------------------

    Molecular point group: c1
  Charge       = 0
  Multiplicity = 1
  Basis Set: CC-PVTZ
  Basis Set:
  @DF-RHF Final Energy:  -305.99097189694282
    Total Energy =                       -305.9909718969429377
    Molecular point group: c1
  Basis Set: CC-PVTZ
  Basis Set:
  Basis Set: CC-PVTZ
  Basis Set:
  @DF-RHF Final Energy:  -305.99099311996599
    Total Energy =                       -305.9909931199658217
  Basis Set: CC-PVTZ
  Basis Set:
  Basis Set: CC-PVTZ
  Basis Set:
  @DF-RHF Final Energy:  -305.99084826399195
    Total Energy =                       -305.9908482639918930
  Basis Set: CC-PVTZ
  Basis Set:
  Basis Set: CC-PVTZ
  Basis Set:
  @DF-RHF Final Energy:  -305.99102358891628
    Total Energy =                       -305.9910235889161640
  Basis Set: CC-PVTZ
  Basis Set:
  Basis Set: CC-PVTZ
  Basis Set:
  @DF-RHF Final Energy:  -305.99102682386820
    Total Energy =                       -305.9910268238680828
  Basis Set: CC-PVTZ
  Basis Set:
  Charge       = 0
  Multiplicity = 1
  Basis Set: CC-PVTZ
  Basis Set:

    Orbital Energies (a.u.)
    -----------------------

    Doubly Occupied:

       1A    -20.594198     2A    -20.533011     3A    -11.368202
       4A    -11.282631     5A    -11.231556     6A    -11.217900
       7A     -1.470244     8A     -1.365899     9A     -1.056465
      10A     -0.999648    11A     -0.882503    12A     -0.769325
      13A     -0.701198    14A     -0.685739    15A     -0.660241
      16A     -0.612489    17A     -0.586285    18A     -0.570887
      19A     -0.561157    20A     -0.529286    21A     -0.519892
      22A     -0.495130    23A     -0.453595    24A     -0.442880

  @DF-RHF Final Energy:  -305.99102690184168

   => Energetics <=

    Nuclear Repulsion Energy =            248.6001208752569482
    One-Electron Energy =                -910.0015775214815221
    Two-Electron Energy =                 355.4104297443829523
    DFT Exchange-Correlation Energy =       0.0000000000000000
    Empirical Dispersion Energy =           0.0000000000000000
    PCM Polarization Energy =               0.0000000000000000
    EFP Energy =                            0.0000000000000000
    Total Energy =                       -305.9910269018416216
    Molecular point group: c1
  Basis Set: CC-PVTZ
  Basis Set:

  -Total Gradient:
     Atom            X                  Y                   Z
    ------   -----------------  -----------------  -----------------
       1        0.000000615934    -0.000011784217     0.000002277051
       2       -0.000202776315    -0.000073342327    -0.000796753086
       3       -0.000010709570    -0.000005303524    -0.000022005823
       4        0.000328055137     0.000260087760     0.001348408262
       5        0.000001852862    -0.000003438531     0.000008671721
       6       -0.000001510059    -0.000000023307     0.000002326491
       7        0.000002331674     0.000006134543     0.000006591091
       8       -0.000195119636    -0.000701652430    -0.001327740482
       9        0.000016801345    -0.000008076378    -0.000005304851
      10        0.000061800529     0.000531525537     0.000777825172
      11        0.000000635256     0.000001155462    -0.000000194782
      12        0.000001789784     0.000002221821     0.000004002468
      13       -0.000000836008     0.000001944050     0.000002253976
      14       -0.000002930936     0.000000551540    -0.000000357209

  **** Optimization is complete! (in 6 steps) ****
    Final optimized geometry and variables:
    Molecular point group: c1

    Geometry (in Angstrom), charge = 0, multiplicity = 1:

    O           -0.700229492175     1.349226814853    -0.183885031444
    C           -0.871026816536     0.186412325982    -0.042359405960
    C           -2.182445933310    -0.444248174170     0.331957546004
    O            0.074913311405    -0.724274258364    -0.193806000183
    H           -2.479706278504    -1.146794481593    -0.435755854173
    H           -2.932334129805     0.321317650248     0.446950341130
    H           -2.067952094094    -0.996296100361     1.255902117250
    C            1.380906672734    -0.306754566327    -0.573997808377
    C            2.252116769661    -0.069046714950     0.641849274538
    H            1.309017739329     0.585510377189    -1.174517908967
    H            1.769306572842    -1.113649594308    -1.177327176830
    H            3.256893575767     0.189258679044     0.327135198039
    H            1.863571369415     0.745769797321     1.238725742029
    H            2.304814004946    -0.958958167752     1.257027072951

  Mulliken Charges: (a.u.)
   Center  Symbol    Alpha    Beta     Spin     Total
       1     O     4.19919  4.19919  0.00000 -0.39838
       2     C     2.80136  2.80136  0.00000  0.39728
       3     C     3.13895  3.13895  0.00000 -0.27791
       4     O     4.15785  4.15785  0.00000 -0.31570
       5     H     0.44575  0.44575  0.00000  0.10849
       6     H     0.43828  0.43828  0.00000  0.12344
       7     H     0.44592  0.44592  0.00000  0.10815
       8     C     2.98566  2.98566  0.00000  0.02868
       9     C     3.14552  3.14552  0.00000 -0.29104
      10     H     0.44727  0.44727  0.00000  0.10547
      11     H     0.44541  0.44541  0.00000  0.10919
      12     H     0.45193  0.45193  0.00000  0.09615
      13     H     0.44476  0.44476  0.00000  0.11048
      14     H     0.45215  0.45215  0.00000  0.09570

   Total alpha = 24.00000, Total beta = 24.00000, Total charge = -0.00000
