  ==> Input File <==

--------------------------------------------------------------------------
set {
	reference rhf
	basis 6-31G*
}

set_num_threads( 4 )
memory 2 gb

molecule MOL {
0 1

O	 -0.444208	 -1.384404	 -0.679987
C	 0.581260	 -1.299399	 -0.084798
C	 1.245376	 -0.013843	 0.345420
O	 1.293736	 -2.355376	 0.287922
C	 0.455112	 1.231400	 -0.050772
H	 1.395026	 -0.076448	 1.418209
H	 2.240101	 -0.001727	 -0.092839
C	 -0.998893	 1.219485	 0.433193
H	 0.482531	 1.345121	 -1.130325
H	 0.957290	 2.103070	 0.354729
C	 -1.883438	 0.145884	 -0.207175
H	 -1.431207	 2.195402	 0.224832
H	 -1.019646	 1.105716	 1.516076
C	 -3.347647	 0.245583	 0.225435
H	 -1.822183	 0.231698	 -1.291012
H	 -1.510341	 -0.844814	 0.042401
C	 -4.239992	 -0.825570	 -0.404234
H	 -3.732888	 1.230466	 -0.033079
H	 -3.408585	 0.170602	 1.310038
C	 -5.701275	 -0.716658	 0.029921
H	 -4.179496	 -0.752714	 -1.488058
H	 -3.859041	 -1.810759	 -0.143352
H	 -6.308102	 -1.488908	 -0.432678
H	 -6.122175	 0.245478	 -0.248167
H	 -5.799072	 -0.820114	 1.106957
C	 0.781720	 -3.629871	 -0.056148
H	 -0.187703	 -3.784553	 0.395291
H	 1.491355	 -4.346390	 0.327294
H	 0.693612	 -3.727275	 -1.128662

	symmetry c1
}
set optking {
	frozen_dihedral = ("
		6 3 5 9
	")
}

ee = optimize('scf')
oeprop('DIPOLE', 'QUADRUPOLE', 'MULLIKEN_CHARGES')
f=open( 'psi4out.xyz', 'w' )
f.write( "29  " )
f.write( str(ee) + "\n" )
f.write( MOL.save_string_xyz() )
f.close()
--------------------------------------------------------------------------

    Molecular point group: c1
  Charge       = 0
  Multiplicity = 1
  Basis Set: 6-31G*
  Basis Set:
  @DF-RHF Final Energy:  -500.95355704942824
    Total Energy =                       -500.9535570494275589
    Molecular point group: c1
  Basis Set: 6-31G*
  Basis Set:
  Basis Set: 6-31G*
  Basis Set:
  @DF-RHF Final Energy:  -500.99498096793684
    Total Energy =                       -500.9949809679375221
  Basis Set: 6-31G*
  Basis Set:
  Basis Set: 6-31G*
  Basis Set:
  @DF-RHF Final Energy:  -501.01340742255502
    Total Energy =                       -501.0134074225557015
  Basis Set: 6-31G*
  Basis Set:
  Basis Set: 6-31G*
  Basis Set:
  @DF-RHF Final Energy:  -501.02483217192741
    Total Energy =                       -501.0248321719275282
  Basis Set: 6-31G*
  Basis Set:
  @DF-RHF Final Energy:  -501.03122498823438
    Total Energy =                       -501.0312249882339302
  @DF-RHF Final Energy:  -501.03354614422551
    Total Energy =                       -501.0335461442255109
  @DF-RHF Final Energy:  -501.03711703540000
    Total Energy =                       -501.0371170354000014
  @DF-RHF Final Energy:  -501.03791759882893
    Total Energy =                       -501.0379175988283578
  @DF-RHF Final Energy:  -501.03862578883729
    Total Energy =                       -501.0386257888374075
  @DF-RHF Final Energy:  -501.03896680515038
    Total Energy =                       -501.0389668051499257
  @DF-RHF Final Energy:  -501.03912586676972
    Total Energy =                       -501.0391258667694956
  @DF-RHF Final Energy:  -501.03922778484207
    Total Energy =                       -501.0392277848412732
  @DF-RHF Final Energy:  -501.03930969757459
    Total Energy =                       -501.0393096975745948
  @DF-RHF Final Energy:  -501.03944657427792
    Total Energy =                       -501.0394465742779175
  @DF-RHF Final Energy:  -501.03940966651544
    Total Energy =                       -501.0394096665157804
  @DF-RHF Final Energy:  -501.03956528058916
    Total Energy =                       -501.0395652805898408
  @DF-RHF Final Energy:  -501.03967741265910
    Total Energy =                       -501.0396774126595574
  @DF-RHF Final Energy:  -501.03972686691270
    Total Energy =                       -501.0397268669133837
  Basis Set: 6-31G*
  Basis Set:
  @DF-RHF Final Energy:  -501.03976381402674
    Total Energy =                       -501.0397638140269692
  Basis Set: 6-31G*
  Basis Set:
  Basis Set: 6-31G*
  Basis Set:
  @DF-RHF Final Energy:  -501.03976787109877
    Total Energy =                       -501.0397678710983200
  Basis Set: 6-31G*
  Basis Set:
  Basis Set: 6-31G*
  Basis Set:
  @DF-RHF Final Energy:  -501.03976977114826
    Total Energy =                       -501.0397697711488263
  Basis Set: 6-31G*
  Basis Set:
  Charge       = 0
  Multiplicity = 1
  Basis Set: 6-31G*
  Basis Set:

    Orbital Energies (a.u.)
    -----------------------

    Doubly Occupied:

       1A    -20.606432     2A    -20.541188     3A    -11.371712
       4A    -11.281064     5A    -11.234079     6A    -11.226386
       7A    -11.218007     8A    -11.213235     9A    -11.211958
      10A    -11.211122    11A    -11.207165    12A     -1.469692
      13A     -1.361198    14A     -1.095908    15A     -1.065133
      16A     -1.016684    17A     -0.978126    18A     -0.929621
      19A     -0.862981    20A     -0.800776    21A     -0.787727
      22A     -0.765277    23A     -0.698309    24A     -0.681291
      25A     -0.671557    26A     -0.648774    27A     -0.620152
      28A     -0.609572    29A     -0.590709    30A     -0.578482
      31A     -0.567354    32A     -0.544311    33A     -0.540530
      34A     -0.531255    35A     -0.519122    36A     -0.507576
      37A     -0.497193    38A     -0.476981    39A     -0.468019
      40A     -0.461632    41A     -0.459249    42A     -0.449523
      43A     -0.441432    44A     -0.429132

  @DF-RHF Final Energy:  -501.03976951670836

   => Energetics <=

    Nuclear Repulsion Energy =            644.3093227723967402
    One-Electron Energy =               -1959.8029374496554738
    Two-Electron Energy =                 814.4538451605499176
    DFT Exchange-Correlation Energy =       0.0000000000000000
    Empirical Dispersion Energy =           0.0000000000000000
    PCM Polarization Energy =               0.0000000000000000
    EFP Energy =                            0.0000000000000000
    Total Energy =                       -501.0397695167089296
    Molecular point group: c1
  Basis Set: 6-31G*
  Basis Set:

  -Total Gradient:
     Atom            X                  Y                   Z
    ------   -----------------  -----------------  -----------------
       1        0.000135956184    -0.000052092549    -0.000093950279
       2       -0.000275305589    -0.000000617481     0.000157511070
       3       -0.004449449594    -0.003483161421     0.000421773409
       4        0.000042787155     0.000066942234    -0.000033145783
       5       -0.003771969755    -0.003102114587    -0.000785873164
       6        0.004315318882     0.003312479129    -0.000274309158
       7       -0.000032476838     0.000127859059    -0.000010751614
       8        0.000053411865    -0.000127984600    -0.000005850508
       9        0.003992611571     0.003227688636     0.000619671343
      10        0.000026469220    -0.000006422502     0.000063507169
      11       -0.000097063345     0.000073244116    -0.000062161502
      12        0.000004074634    -0.000012825719     0.000001268681
      13        0.000024365910     0.000016150643     0.000001473576
      14        0.000004132280     0.000003127012    -0.000019369176
      15       -0.000008436211     0.000000572256     0.000007951700
      16        0.000014049775    -0.000019436173     0.000009066706
      17       -0.000000165727    -0.000005645760     0.000003919180
      18       -0.000000755491     0.000000831362    -0.000000478179
      19        0.000002020909    -0.000000850211    -0.000003137728
      20        0.000004280169     0.000001451858     0.000004297381
      21        0.000004281917    -0.000000077144    -0.000000381417
      22       -0.000002533269    -0.000002317940     0.000001865320
      23        0.000003663327     0.000001538016    -0.000001593035
      24        0.000000960467     0.000002389707    -0.000000203578
      25       -0.000002479475    -0.000002188118     0.000001966581
      26        0.000022669975    -0.000011423668     0.000000449399
      27       -0.000000942268     0.000004538889     0.000000014958
      28       -0.000004006839    -0.000005071576    -0.000003248645
      29       -0.000005469838    -0.000006583476    -0.000000282702

  **** Optimization is complete! (in 22 steps) ****
    Final optimized geometry and variables:
    Molecular point group: c1

    Geometry (in Angstrom), charge = 0, multiplicity = 1:

    O            1.815371954637    -0.713396727249    -1.473494648261
    C            2.001594951363    -0.568496958477    -0.307161076910
    C            2.383851230065     0.745878747820     0.326796393111
    O            1.929827822669    -1.560750471117     0.567986946919
    C            1.450169767224     1.921714329985     0.002888314050
    H            2.530677794157     0.643415206903     1.394629888653
    H            3.360030130686     0.983419229433    -0.089175870565
    C            0.015926150661     1.847842376400     0.539887301062
    H            1.468056357246     2.102787844765    -1.067036929582
    H            1.914717410665     2.798910863243     0.447287746925
    C           -0.894706529486     0.776093917987    -0.067380468793
    H           -0.439489486358     2.821126045621     0.370392192346
    H            0.049796564486     1.717999926732     1.620528824406
    C           -2.352856807177     0.937797784042     0.368106126429
    H           -0.831653306586     0.813141752262    -1.151844575077
    H           -0.554035604405    -0.212861493517     0.226022261331
    C           -3.275127632742    -0.144631213212    -0.195536276803
    H           -2.715698489128     1.915654172240     0.055641600137
    H           -2.409318732959     0.926017632390     1.455684050598
    C           -4.731537632129     0.027862524061     0.234406503255
    H           -3.215824658637    -0.137837965078    -1.281648524423
    H           -2.918930752159    -1.122251077430     0.122622777487
    H           -5.359905696143    -0.754439453502    -0.180171229833
    H           -5.128489658008     0.982347644912    -0.099758703628
    H           -4.828308259828    -0.008590038916     1.315952168666
    C            1.623008682888    -2.845527976565     0.055938042675
    H            0.656401819882    -2.840503548894    -0.426606988467
    H            1.613476339733    -3.507642386276     0.907620920089
    H            2.373436211355    -3.159304472079    -0.655160591572

  Mulliken Charges: (a.u.)
   Center  Symbol    Alpha    Beta     Spin     Total
       1     O     4.28938  4.28938  0.00000 -0.57875
       2     C     2.60323  2.60323  0.00000  0.79354
       3     C     3.20709  3.20709  0.00000 -0.41419
       4     O     4.30546  4.30546  0.00000 -0.61092
       5     C     3.15904  3.15904  0.00000 -0.31808
       6     H     0.40111  0.40111  0.00000  0.19779
       7     H     0.39973  0.39973  0.00000  0.20054
       8     C     3.15413  3.15413  0.00000 -0.30826
       9     H     0.40712  0.40712  0.00000  0.18576
      10     H     0.41704  0.41704  0.00000  0.16592
      11     C     3.15973  3.15973  0.00000 -0.31947
      12     H     0.41981  0.41981  0.00000  0.16039
      13     H     0.42255  0.42255  0.00000  0.15490
      14     C     3.15093  3.15093  0.00000 -0.30186
      15     H     0.41327  0.41327  0.00000  0.17346
      16     H     0.42265  0.42265  0.00000  0.15471
      17     C     3.15115  3.15115  0.00000 -0.30230
      18     H     0.42405  0.42405  0.00000  0.15190
      19     H     0.42482  0.42482  0.00000  0.15035
      20     C     3.23930  3.23930  0.00000 -0.47859
      21     H     0.42133  0.42133  0.00000  0.15734
      22     H     0.42423  0.42423  0.00000  0.15155
      23     H     0.41953  0.41953  0.00000  0.16094
      24     H     0.42182  0.42182  0.00000  0.15637
      25     H     0.42232  0.42232  0.00000  0.15536
      26     C     3.09384  3.09384  0.00000 -0.18769
      27     H     0.40866  0.40866  0.00000  0.18268
      28     H     0.40843  0.40843  0.00000  0.18315
      29     H     0.40826  0.40826  0.00000  0.18349

   Total alpha = 44.00000, Total beta = 44.00000, Total charge = -0.00000
