                              Psi4 1.0.54 Driver

  ==> Input File <==

--------------------------------------------------------------------------
set {
	reference rhf
	basis cc-pvtz
}

set_num_threads( 4 )
memory 2 gb

molecule MOL {
0 1

H	 0.799378	 1.874089	 0.480560
C	 1.395615	 0.989303	 0.288684
N	 0.526300	 -0.128137	 0.000000
H	 1.974244	 0.783643	 1.180273
H	 2.088555	 1.226639	 -0.521302
C	 -0.247113	 0.037112	 -1.209233
H	 1.058818	 -0.969361	 -0.049253
H	 -0.996493	 -0.743733	 -1.271440
H	 0.397975	 -0.057351	 -2.073512
H	 -0.763794	 0.997171	 -1.271673

	symmetry c1
}
set optking {
	frozen_dihedral = ("
		2 3 6 8
	")
}

ee,wfn = optimize('scf', return_wfn=True)
oeprop( wfn, 'DIPOLE', 'QUADRUPOLE', 'MULLIKEN_CHARGES')
f=open( 'psi4out.xyz', 'w' )
f.write( "10  " )
f.write( str(ee) + "\n" )
f.write( MOL.save_string_xyz() )
f.close()
--------------------------------------------------------------------------

    Molecular point group: c1
  Charge       = 0
  Multiplicity = 1
  Basis Set: CC-PVTZ
  Basis Set:
  @DF-RHF Final Energy:  -134.29111466676790
    Total Energy =                       -134.2911146667678679
    Molecular point group: c1
  Basis Set: CC-PVTZ
  Basis Set:
  Basis Set: CC-PVTZ
  Basis Set:
  @DF-RHF Final Energy:  -134.29246078970124
    Total Energy =                       -134.2924607897012379
  Basis Set: CC-PVTZ
  Basis Set:
  Basis Set: CC-PVTZ
  Basis Set:
  @DF-RHF Final Energy:  -134.29262143706893
    Total Energy =                       -134.2926214370689308
  Basis Set: CC-PVTZ
  Basis Set:
  Basis Set: CC-PVTZ
  Basis Set:
  @DF-RHF Final Energy:  -134.29262477441836
    Total Energy =                       -134.2926247744184423
  Basis Set: CC-PVTZ
  Basis Set:
  Charge       = 0
  Multiplicity = 1
  Basis Set: CC-PVTZ
  Basis Set:

    Orbital Energies (a.u.)
    -----------------------

    Doubly Occupied:

       1A    -15.531754     2A    -11.234305     3A    -11.234056
       4A     -1.200192     5A     -0.948138     6A     -0.855118
       7A     -0.662614     8A     -0.612330     9A     -0.592031
      10A     -0.539614    11A     -0.511557    12A     -0.507614
      13A     -0.362628

  @DF-RHF Final Energy:  -134.29262515905651

   => Energetics <=

    Nuclear Repulsion Energy =             84.7265760551249372
    One-Electron Energy =                -348.4545026843949245
    Two-Electron Energy =                 129.4353014702134601
    DFT Exchange-Correlation Energy =       0.0000000000000000
    Empirical Dispersion Energy =           0.0000000000000000
    PCM Polarization Energy =               0.0000000000000000
    EFP Energy =                            0.0000000000000000
    Total Energy =                       -134.2926251590565130
    Molecular point group: c1
  Basis Set: CC-PVTZ
  Basis Set:

  -Total Gradient:
     Atom            X                  Y                   Z
    ------   -----------------  -----------------  -----------------
       1       -0.000006193896    -0.000011922166    -0.000003076585
       2       -0.001180089938     0.000785421439     0.000849499068
       3        0.001339647391    -0.000763107805    -0.000908321970
       4       -0.000001827326     0.000001682719     0.000001917279
       5       -0.000010567263    -0.000013240135     0.000003230801
       6        0.001273110824    -0.001319363500    -0.001011125071
       7       -0.000006078679     0.000024465632    -0.000012307839
       8       -0.001388403062     0.001295243662     0.001031592172
       9       -0.000009682424    -0.000008276639     0.000035464559
      10       -0.000009915628     0.000009096794     0.000013127586

  **** Optimization is complete! (in 5 steps) ****
    Final optimized geometry and variables:
    Molecular point group: c1

    Geometry (in Angstrom), charge = 0, multiplicity = 1:

    H            0.231059906489     1.582146877727     0.782433027039
    C            0.822989435183     0.690483358090     0.611922930859
    N           -0.051560614326    -0.424005575482     0.329024474175
    H            1.386995498540     0.492821994447     1.514686417304
    H            1.531486367202     0.911078373828    -0.189578066988
    C           -0.807012038147    -0.280984509038    -0.894310896748
    H            0.464188759469    -1.276669176202     0.320225711445
    H           -1.562018459563    -1.054684049694    -0.956926568296
    H           -0.197356453279    -0.308698913140    -1.798990511274
    H           -1.328194512677     0.669454232673    -0.881086168099

  Mulliken Charges: (a.u.)
   Center  Symbol    Alpha    Beta     Spin     Total
       1     H     0.45677  0.45677  0.00000  0.08646
       2     C     3.08025  3.08025  0.00000 -0.16049
       3     N     3.63029  3.63029  0.00000 -0.26057
       4     H     0.45255  0.45255  0.00000  0.09490
       5     H     0.47576  0.47576  0.00000  0.04849
       6     C     3.08203  3.08203  0.00000 -0.16406
       7     H     0.44010  0.44010  0.00000  0.11980
       8     H     0.45183  0.45183  0.00000  0.09634
       9     H     0.47215  0.47215  0.00000  0.05571
      10     H     0.45828  0.45828  0.00000  0.08343

   Total alpha = 13.00000, Total beta = 13.00000, Total charge =  0.00000

*** Psi4 exiting successfully. Buy a developer a beer!
