  ==> Input File <==

--------------------------------------------------------------------------
set {
	reference rhf
	basis 6-31G*
}

set_num_threads( 4 )
memory 2 gb

molecule MOL {
0 1

O	 -2.821601	 1.309235	 -0.001213
C	 -2.668563	 0.129746	 -0.000350
C	 -3.801572	 -0.864014	 -0.000442
O	 -1.481751	 -0.454642	 0.000584
H	 -4.417280	 -0.689587	 -0.874708
H	 -3.443784	 -1.883046	 -0.000565
H	 -4.417179	 -0.689832	 0.873954
C	 -0.334255	 0.388708	 0.000906
C	 0.891947	 -0.504646	 0.000751
H	 -0.365390	 1.025305	 -0.873475
H	 -0.365484	 1.024911	 0.875569
C	 2.191998	 0.301789	 0.000897
H	 0.855148	 -1.151283	 -0.871571
H	 0.855132	 -1.151660	 0.872805
C	 3.143261	 -0.101444	 1.129094
H	 2.697582	 0.177057	 -0.955091
H	 1.962250	 1.362271	 0.088501
C	 4.442308	 0.703132	 1.128381
H	 3.374177	 -1.160838	 1.042855
H	 2.640429	 0.024773	 2.085284
H	 4.985381	 0.570434	 0.196997
H	 5.095379	 0.394611	 1.938659
H	 4.246156	 1.764886	 1.247597

	symmetry c1
}
set optking {
	frozen_dihedral = ("
		16 12 9 13
	")
}

ee = optimize('scf')
oeprop('DIPOLE', 'QUADRUPOLE', 'MULLIKEN_CHARGES')
f=open( 'psi4out.xyz', 'w' )
f.write( "23  " )
f.write( str(ee) + "\n" )
f.write( MOL.save_string_xyz() )
f.close()
--------------------------------------------------------------------------

    Molecular point group: c1
  Charge       = 0
  Multiplicity = 1
  Basis Set: 6-31G*
  Basis Set:
  @DF-RHF Final Energy:  -422.97455169335586
    Total Energy =                       -422.9745516933560339
    Molecular point group: c1
  Basis Set: 6-31G*
  Basis Set:
  Basis Set: 6-31G*
  Basis Set:
  @DF-RHF Final Energy:  -422.97474427078271
    Total Energy =                       -422.9747442707836171
  Basis Set: 6-31G*
  Basis Set:
  Basis Set: 6-31G*
  Basis Set:
  @DF-RHF Final Energy:  -422.97479565987601
    Total Energy =                       -422.9747956598764631
  Basis Set: 6-31G*
  Basis Set:
  Basis Set: 6-31G*
  Basis Set:
  @DF-RHF Final Energy:  -422.97466163737727
    Total Energy =                       -422.9746616373777215
  Basis Set: 6-31G*
  Basis Set:
  Basis Set: 6-31G*
  Basis Set:
  @DF-RHF Final Energy:  -422.97480994756290
    Total Energy =                       -422.9748099475631307
  Basis Set: 6-31G*
  Basis Set:
  Basis Set: 6-31G*
  Basis Set:
  @DF-RHF Final Energy:  -422.97480871370738
    Total Energy =                       -422.9748087137070343
  Basis Set: 6-31G*
  Basis Set:
  Basis Set: 6-31G*
  Basis Set:
  @DF-RHF Final Energy:  -422.97481050472925
    Total Energy =                       -422.9748105047298168
  Basis Set: 6-31G*
  Basis Set:
  Charge       = 0
  Multiplicity = 1
  Basis Set: 6-31G*
  Basis Set:

    Orbital Energies (a.u.)
    -----------------------

    Doubly Occupied:

       1A    -20.602907     2A    -20.540575     3A    -11.374154
       4A    -11.281781     5A    -11.232390     6A    -11.224236
       7A    -11.223679     8A    -11.221787     9A    -11.212683
      10A     -1.468020    11A     -1.360811    12A     -1.092360
      13A     -1.041998    14A     -1.002819    15A     -0.930081
      16A     -0.843269    17A     -0.801774    18A     -0.776347
      19A     -0.689369    20A     -0.684915    21A     -0.670786
      22A     -0.638687    23A     -0.611469    24A     -0.586280
      25A     -0.580451    26A     -0.570183    27A     -0.559000
      28A     -0.534409    29A     -0.525384    30A     -0.501811
      31A     -0.495275    32A     -0.478361    33A     -0.467938
      34A     -0.463418    35A     -0.450342    36A     -0.435284

  @DF-RHF Final Energy:  -422.97481052545811

   => Energetics <=

    Nuclear Repulsion Energy =            450.8414549399919906
    One-Electron Energy =               -1469.2824585271687283
    Two-Electron Energy =                 595.4661930617185135
    DFT Exchange-Correlation Energy =       0.0000000000000000
    Empirical Dispersion Energy =           0.0000000000000000
    PCM Polarization Energy =               0.0000000000000000
    EFP Energy =                            0.0000000000000000
    Total Energy =                       -422.9748105254582242
    Molecular point group: c1
  Basis Set: 6-31G*
  Basis Set:

  -Total Gradient:
     Atom            X                  Y                   Z
    ------   -----------------  -----------------  -----------------
       1       -0.000004145154     0.000003661468    -0.000002293050
       2        0.000007719357     0.000000776768    -0.000003083211
       3        0.000002031333     0.000000604274     0.000006643548
       4       -0.000000049503    -0.000004685547    -0.000013706113
       5        0.000002214566     0.000000135169    -0.000001434295
       6        0.000000339401    -0.000000324964    -0.000000281315
       7       -0.000000303750     0.000000866500    -0.000001074404
       8       -0.000000377140     0.000005371130     0.000042246240
       9        0.001052217112    -0.001691478815     0.001110195383
      10       -0.000005754785    -0.000002150119    -0.000007906361
      11        0.000002235167    -0.000001867815    -0.000005858580
      12       -0.001109817343     0.001778542974    -0.000876764604
      13       -0.000695592968     0.001117026617    -0.000793391994
      14       -0.000002609228     0.000005114663    -0.000000579437
      15       -0.000004833507     0.000000808369    -0.000001711061
      16        0.000757716253    -0.001209520848     0.000549291125
      17       -0.000000675003    -0.000002470709     0.000002218796
      18       -0.000000194532    -0.000001448126    -0.000001484559
      19       -0.000001239582    -0.000000111153     0.000000145349
      20        0.000000398368     0.000001729539    -0.000001258525
      21        0.000000076001     0.000000124428     0.000000076321
      22        0.000001311878     0.000000262796     0.000000185160
      23       -0.000000666934    -0.000000966599    -0.000000174413

  **** Optimization is complete! (in 8 steps) ****
    Final optimized geometry and variables:
    Molecular point group: c1

    Geometry (in Angstrom), charge = 0, multiplicity = 1:

    O           -2.760127402419     1.201624079653    -0.258004644497
    C           -2.609235829466     0.021861709221    -0.259420695098
    C           -3.744089159387    -0.969695548244    -0.270324408015
    O           -1.423431892012    -0.564717702309    -0.251356262720
    H           -4.353538942061    -0.791343415807    -1.148170775240
    H           -3.388231839514    -1.989407280037    -0.271206021886
    H           -4.365285150721    -0.797090730174     0.600427966198
    C           -0.274506938779     0.275687071466    -0.240548299892
    C            0.952023386339    -0.618745287912    -0.233113057874
    H           -0.296497023932     0.914757517848    -1.113547197692
    H           -0.309178739193     0.909935508936     0.635681959669
    C            2.261023568324     0.200063347326    -0.235343795720
    H            0.903141889705    -1.266132760785    -1.102278376051
    H            0.904134164465    -1.261844282183     0.640028090873
    C            3.229227264944    -0.202393260627     0.880408362314
    H            2.764931107272     0.082651781749    -1.190498546057
    H            2.040004414099     1.261388629150    -0.139062617144
    C            4.528809263424     0.600065237018     0.860109551675
    H            3.456020120747    -1.262646782836     0.791976739299
    H            2.738805210963    -0.074904549213     1.843191747974
    H            5.059028856531     0.464332292142    -0.078315828542
    H            5.192600975986     0.292898703758     1.662154510645
    H            4.335834692153     1.662537423340     0.979084044020

  Mulliken Charges: (a.u.)
   Center  Symbol    Alpha    Beta     Spin     Total
       1     O     4.28380  4.28380  0.00000 -0.56759
       2     C     2.61548  2.61548  0.00000  0.76904
       3     C     3.28776  3.28776  0.00000 -0.57552
       4     O     4.31244  4.31244  0.00000 -0.62489
       5     H     0.39749  0.39749  0.00000  0.20502
       6     H     0.39988  0.39988  0.00000  0.20024
       7     H     0.39751  0.39751  0.00000  0.20499
       8     C     3.00040  3.00040  0.00000 -0.00079
       9     C     3.16548  3.16548  0.00000 -0.33097
      10     H     0.41014  0.41014  0.00000  0.17973
      11     H     0.41077  0.41077  0.00000  0.17846
      12     C     3.16366  3.16366  0.00000 -0.32733
      13     H     0.41169  0.41169  0.00000  0.17662
      14     H     0.41160  0.41160  0.00000  0.17680
      15     C     3.15322  3.15322  0.00000 -0.30645
      16     H     0.41703  0.41703  0.00000  0.16594
      17     H     0.41876  0.41876  0.00000  0.16247
      18     C     3.24070  3.24070  0.00000 -0.48141
      19     H     0.42085  0.42085  0.00000  0.15831
      20     H     0.42179  0.42179  0.00000  0.15642
      21     H     0.42101  0.42101  0.00000  0.15797
      22     H     0.41788  0.41788  0.00000  0.16424
      23     H     0.42065  0.42065  0.00000  0.15870

   Total alpha = 36.00000, Total beta = 36.00000, Total charge =  0.00000
