  ==> Input File <==

--------------------------------------------------------------------------
set {
	reference rhf
	basis cc-pvtz
}

set_num_threads( 4 )
memory 2 gb

molecule MOL {
0 1

O	 1.392056	 0.699884	 0.960232
C	 0.860843	 0.273204	 -0.013120
C	 -0.623368	 -0.117453	 -0.005652
C	 1.658749	 0.101476	 -1.290570
C	 -0.892588	 -1.253841	 -1.002900
C	 -1.473463	 1.100646	 -0.372896
C	 -0.981836	 -0.579025	 1.418506
H	 -0.609333	 -0.970024	 -2.010649
H	 -1.950451	 -1.487353	 -1.013175
H	 -0.360848	 -2.161259	 -0.746463
H	 -1.232203	 1.461623	 -1.364827
H	 -2.524364	 0.834451	 -0.354500
H	 -1.312381	 1.914833	 0.318657
H	 -2.035706	 -0.826342	 1.468082
H	 -0.425078	 -1.458934	 1.716857
H	 -0.788494	 0.205047	 2.140903
H	 1.435496	 0.922392	 -1.962893
H	 2.710163	 0.127554	 -1.049078
H	 1.420995	 -0.817660	 -1.808155

	symmetry c1
}
set optking {
	frozen_dihedral = ("
		1 2 3 5
	")
}

ee = optimize('scf')
oeprop('DIPOLE', 'QUADRUPOLE', 'MULLIKEN_CHARGES')
f=open( 'psi4out.xyz', 'w' )
f.write( "19  " )
f.write( str(ee) + "\n" )
f.write( MOL.save_string_xyz() )
f.close()
--------------------------------------------------------------------------

    Molecular point group: c1
  Charge       = 0
  Multiplicity = 1
  Basis Set: CC-PVTZ
  Basis Set:
  @DF-RHF Final Energy:  -309.17074784232489
    Total Energy =                       -309.1707478423247153
    Molecular point group: c1
  Basis Set: CC-PVTZ
  Basis Set:
  Basis Set: CC-PVTZ
  Basis Set:
  @DF-RHF Final Energy:  -309.17164557584243
    Total Energy =                       -309.1716455758425468
  Basis Set: CC-PVTZ
  Basis Set:
  Basis Set: CC-PVTZ
  Basis Set:
  @DF-RHF Final Energy:  -309.17263505871716
    Total Energy =                       -309.1726350587168781
  Basis Set: CC-PVTZ
  Basis Set:
  Basis Set: CC-PVTZ
  Basis Set:
  @DF-RHF Final Energy:  -309.17247502700104
    Total Energy =                       -309.1724750270012123
  Basis Set: CC-PVTZ
  Basis Set:
  @DF-RHF Final Energy:  -309.17378295315126
    Total Energy =                       -309.1737829531510897
  @DF-RHF Final Energy:  -309.17382386258373
    Total Energy =                       -309.1738238625839585
  Basis Set: CC-PVTZ
  Basis Set:
  @DF-RHF Final Energy:  -309.17368052035727
    Total Energy =                       -309.1736805203576068
  Basis Set: CC-PVTZ
  Basis Set:
  Basis Set: CC-PVTZ
  Basis Set:
  @DF-RHF Final Energy:  -309.17400925115760
    Total Energy =                       -309.1740092511579405
  Basis Set: CC-PVTZ
  Basis Set:
  Basis Set: CC-PVTZ
  Basis Set:
  @DF-RHF Final Energy:  -309.17401239656044
    Total Energy =                       -309.1740123965603857
  Basis Set: CC-PVTZ
  Basis Set:
  Charge       = 0
  Multiplicity = 1
  Basis Set: CC-PVTZ
  Basis Set:

    Orbital Energies (a.u.)
    -----------------------

    Doubly Occupied:

       1A    -20.536981     2A    -11.318034     3A    -11.245672
       4A    -11.225569     5A    -11.221379     6A    -11.221064
       7A    -11.207748     8A     -1.398303     9A     -1.110469
      10A     -1.003779    11A     -0.946497    12A     -0.936938
      13A     -0.835220    14A     -0.705542    15A     -0.666817
      16A     -0.634193    17A     -0.622597    18A     -0.595646
      19A     -0.590673    20A     -0.568219    21A     -0.547590
      22A     -0.546587    23A     -0.525367    24A     -0.514193
      25A     -0.502924    26A     -0.473313    27A     -0.465907
      28A     -0.394232

  @DF-RHF Final Energy:  -309.17401334201963

   => Energetics <=

    Nuclear Repulsion Energy =            326.9323665872263973
    One-Electron Energy =               -1067.0898519596578353
    Two-Electron Energy =                 430.9834720304116331
    DFT Exchange-Correlation Energy =       0.0000000000000000
    Empirical Dispersion Energy =           0.0000000000000000
    PCM Polarization Energy =               0.0000000000000000
    EFP Energy =                            0.0000000000000000
    Total Energy =                       -309.1740133420198049
    Molecular point group: c1
  Basis Set: CC-PVTZ
  Basis Set:

  -Total Gradient:
     Atom            X                  Y                   Z
    ------   -----------------  -----------------  -----------------
       1       -0.000257700750     0.001001915068    -0.000273602840
       2        0.000318738953    -0.001212960858     0.000192552748
       3        0.000077028439    -0.000355851813     0.000587753646
       4       -0.000044601269     0.000033327244    -0.000033153036
       5       -0.000133487744     0.000532300794    -0.000529751634
       6       -0.000014383542     0.000011886968     0.000011525958
       7        0.000029196719     0.000014187124    -0.000007640170
       8       -0.000013799755    -0.000002197971     0.000017598315
       9       -0.000017255272    -0.000001465075     0.000002824069
      10        0.000000859681    -0.000002771110     0.000004101476
      11        0.000031983323     0.000002895888     0.000014584146
      12        0.000013057429    -0.000006882543    -0.000013663894
      13       -0.000034657745     0.000004082282     0.000017892556
      14        0.000009189174    -0.000011714296    -0.000008145308
      15        0.000005411376    -0.000000136561     0.000000520189
      16       -0.000010105993     0.000018142477     0.000000188994
      17        0.000030519631     0.000002074630    -0.000001417190
      18        0.000002708516    -0.000016041403     0.000011382143
      19        0.000007298831    -0.000010790847     0.000006449833

  **** Optimization is complete! (in 10 steps) ****
    Final optimized geometry and variables:
    Molecular point group: c1

    Geometry (in Angstrom), charge = 0, multiplicity = 1:

    O            1.412343073629     0.599485511232     1.026791635020
    C            0.879992481098     0.206184036567     0.039850284872
    C           -0.611052298860    -0.164120381503     0.045211274825
    C            1.659759825833     0.118649479610    -1.255446020689
    C           -0.938237889638    -1.268649391198    -0.967953033049
    C           -1.380841737004     1.117248783777    -0.325671474682
    C           -1.017492471355    -0.616219608728     1.450285593581
    H           -0.732479951023    -0.968223400129    -1.987221369679
    H           -1.991367236402    -1.515725405550    -0.908138941113
    H           -0.378665434430    -2.175072166883    -0.763942505547
    H           -1.109464074518     1.481471608430    -1.310256325025
    H           -2.446149405703     0.918178602366    -0.331562243722
    H           -1.187106444036     1.904745381919     0.391523232136
    H           -2.078502618188    -0.838064864818     1.473767436081
    H           -0.480587312457    -1.510985416060     1.743222632419
    H           -0.807635243562     0.148354324612     2.183038566582
    H            1.132676719376     0.598152251269    -2.070610884777
    H            2.620769386370     0.588370373600    -1.114715430795
    H            1.806893907273    -0.919132741877    -1.530801978192

  Mulliken Charges: (a.u.)
   Center  Symbol    Alpha    Beta     Spin     Total
       1     O     4.17824  4.17824  0.00000 -0.35648
       2     C     2.85009  2.85009  0.00000  0.29981
       3     C     3.00710  3.00710  0.00000 -0.01419
       4     C     3.16456  3.16456  0.00000 -0.32911
       5     C     3.16508  3.16508  0.00000 -0.33017
       6     C     3.15604  3.15604  0.00000 -0.31208
       7     C     3.15164  3.15164  0.00000 -0.30328
       8     H     0.44564  0.44564  0.00000  0.10872
       9     H     0.44266  0.44266  0.00000  0.11467
      10     H     0.44396  0.44396  0.00000  0.11208
      11     H     0.44732  0.44732  0.00000  0.10536
      12     H     0.44671  0.44671  0.00000  0.10658
      13     H     0.43990  0.43990  0.00000  0.12020
      14     H     0.45162  0.45162  0.00000  0.09676
      15     H     0.44885  0.44885  0.00000  0.10229
      16     H     0.43632  0.43632  0.00000  0.12737
      17     H     0.44636  0.44636  0.00000  0.10729
      18     H     0.43176  0.43176  0.00000  0.13648
      19     H     0.44615  0.44615  0.00000  0.10771

   Total alpha = 28.00000, Total beta = 28.00000, Total charge =  0.00000
