  ==> Input File <==

--------------------------------------------------------------------------
set {
	reference rhf
	basis 6-31G*
}

set_num_threads( 4 )
memory 2 gb

molecule MOL {
0 1

H	 2.870979	 -2.852164	 -3.110947
C	 2.838292	 -1.767376	 -3.084705
C	 1.568660	 -1.269541	 -2.395233
H	 3.725740	 -1.422281	 -2.562510
H	 2.896510	 -1.409738	 -4.109159
C	 1.487416	 0.257843	 -2.347142
H	 1.530218	 -1.665814	 -1.385733
H	 0.698004	 -1.659708	 -2.920039
C	 0.218090	 0.786063	 -1.678517
H	 2.351363	 0.651701	 -1.823582
H	 1.526877	 0.647821	 -3.361736
C	 0.169600	 0.576866	 -0.172154
H	 0.134193	 1.858885	 -1.845204
H	 -0.669725	 0.348358	 -2.129490
C	 -1.181045	 0.701995	 0.511084
O	 1.155796	 0.340983	 0.458863
C	 -2.285934	 -0.139295	 -0.145128
H	 -1.449051	 1.751551	 0.493206
H	 -1.071135	 0.403303	 1.551943
C	 -3.651768	 0.085446	 0.506485
H	 -2.346596	 0.110469	 -1.202272
H	 -2.034737	 -1.195320	 -0.088721
C	 -4.759797	 -0.746382	 -0.137905
H	 -3.908762	 1.140117	 0.445781
H	 -3.588286	 -0.154158	 1.565709
H	 -4.868882	 -0.505166	 -1.191300
H	 -4.548009	 -1.809175	 -0.062213
H	 -5.715422	 -0.564821	 0.343442

	symmetry c1
}
set optking {
	frozen_dihedral = ("
		16 12 15 17
	")
}

ee = optimize('scf')
oeprop('DIPOLE', 'QUADRUPOLE', 'MULLIKEN_CHARGES')
f=open( 'psi4out.xyz', 'w' )
f.write( "28  " )
f.write( str(ee) + "\n" )
f.write( MOL.save_string_xyz() )
f.close()
--------------------------------------------------------------------------

    Molecular point group: c1
  Charge       = 0
  Multiplicity = 1
  Basis Set: 6-31G*
  Basis Set:
  @DF-RHF Final Energy:  -426.16594632633496
    Total Energy =                       -426.1659463263351881
    Molecular point group: c1
  Basis Set: 6-31G*
  Basis Set:
  Basis Set: 6-31G*
  Basis Set:
  @DF-RHF Final Energy:  -426.16617015075985
    Total Energy =                       -426.1661701507599673
  Basis Set: 6-31G*
  Basis Set:
  Basis Set: 6-31G*
  Basis Set:
  @DF-RHF Final Energy:  -426.16763022289535
    Total Energy =                       -426.1676302228956956
  Basis Set: 6-31G*
  Basis Set:
  Basis Set: 6-31G*
  Basis Set:
  @DF-RHF Final Energy:  -426.16805583826078
    Total Energy =                       -426.1680558382607842
  Basis Set: 6-31G*
  Basis Set:
  @DF-RHF Final Energy:  -426.16825381124579
    Total Energy =                       -426.1682538112456768
  @DF-RHF Final Energy:  -426.16834830519713
    Total Energy =                       -426.1683483051974690
  @DF-RHF Final Energy:  -426.16841822822812
    Total Energy =                       -426.1684182282280062
  Basis Set: 6-31G*
  Basis Set:
  @DF-RHF Final Energy:  -426.16847230267922
    Total Energy =                       -426.1684723026797883
  Basis Set: 6-31G*
  Basis Set:
  Basis Set: 6-31G*
  Basis Set:
  @DF-RHF Final Energy:  -426.16847700499932
    Total Energy =                       -426.1684770049989766
  Basis Set: 6-31G*
  Basis Set:
  Basis Set: 6-31G*
  Basis Set:
  @DF-RHF Final Energy:  -426.16849720594939
    Total Energy =                       -426.1684972059497341
  Basis Set: 6-31G*
  Basis Set:
  Charge       = 0
  Multiplicity = 1
  Basis Set: 6-31G*
  Basis Set:

    Orbital Energies (a.u.)
    -----------------------

    Doubly Occupied:

       1A    -20.548488     2A    -11.322815     3A    -11.232104
       4A    -11.230269     5A    -11.229384     6A    -11.226252
       7A    -11.216584     8A    -11.216031     9A    -11.209586
      10A    -11.204191    11A     -1.393709    12A     -1.095320
      13A     -1.076323    14A     -1.022491    15A     -0.990042
      16A     -0.907452    17A     -0.873022    18A     -0.809422
      19A     -0.799038    20A     -0.722882    21A     -0.669805
      22A     -0.653239    23A     -0.627988    24A     -0.619600
      25A     -0.607569    26A     -0.588518    27A     -0.577413
      28A     -0.570856    29A     -0.546983    30A     -0.526045
      31A     -0.522889    32A     -0.507187    33A     -0.500241
      34A     -0.485210    35A     -0.477312    36A     -0.475215
      37A     -0.469437    38A     -0.464424    39A     -0.456020
      40A     -0.392344

  @DF-RHF Final Energy:  -426.16849749564767

   => Energetics <=

    Nuclear Repulsion Energy =            532.4741330621213820
    One-Electron Energy =               -1633.1578637722213898
    Two-Electron Energy =                 674.5152332144523371
    DFT Exchange-Correlation Energy =       0.0000000000000000
    Empirical Dispersion Energy =           0.0000000000000000
    PCM Polarization Energy =               0.0000000000000000
    EFP Energy =                            0.0000000000000000
    Total Energy =                       -426.1684974956476708
    Molecular point group: c1
  Basis Set: 6-31G*
  Basis Set:

  -Total Gradient:
     Atom            X                  Y                   Z
    ------   -----------------  -----------------  -----------------
       1       -0.000006283305     0.000002319737     0.000005038736
       2       -0.000002637447     0.000014172019    -0.000001820542
       3       -0.000031016957    -0.000008904596     0.000036733715
       4        0.000003236311     0.000002028658    -0.000000890152
       5        0.000003009955    -0.000002120969    -0.000002779469
       6       -0.000000255856     0.000008039306     0.000045201830
       7        0.000001995481     0.000004638854    -0.000018118132
       8       -0.000003078366    -0.000002134150    -0.000007258072
       9        0.000005202195    -0.000063841356    -0.000017839322
      10        0.000018427689     0.000008664223     0.000004337861
      11       -0.000014766872     0.000008864563     0.000009968116
      12       -0.000233986054    -0.000614856272    -0.000181654150
      13        0.000012662888     0.000001308220    -0.000003702074
      14       -0.000003394949     0.000005532262    -0.000005395121
      15        0.000141798844    -0.000231960654     0.000389510247
      16        0.000172394760     0.000550591752     0.000004950748
      17       -0.000060948714     0.000323464984    -0.000263936294
      18       -0.000005262738    -0.000003632629     0.000001564628
      19       -0.000005842282    -0.000006594300    -0.000002827763
      20       -0.000004245044    -0.000002053972     0.000001419337
      21        0.000006304769     0.000005836131     0.000005918486
      22        0.000002277035     0.000001797885    -0.000002124048
      23        0.000003972887     0.000000250821     0.000000079772
      24       -0.000001096048    -0.000000110222     0.000001399072
      25        0.000000243294    -0.000000514862     0.000002107574
      26        0.000001393355    -0.000000716818    -0.000000420551
      27       -0.000001693343    -0.000001533707     0.000000578928
      28        0.000001588514     0.000001465095    -0.000000043361

  **** Optimization is complete! (in 11 steps) ****
    Final optimized geometry and variables:
    Molecular point group: c1

    Geometry (in Angstrom), charge = 0, multiplicity = 1:

    H            3.939775034850    -2.408655944409    -2.291195199596
    C            3.713566472145    -1.348716283516    -2.228468679790
    C            2.337248665169    -1.114040348404    -1.607323085520
    H            4.493451157318    -0.879129724342    -1.636191451663
    H            3.768566693072    -0.938775777701    -3.233472374294
    C            1.982069964986     0.371839774183    -1.515663456273
    H            2.308276725839    -1.553863915258    -0.617075124743
    H            1.582855549626    -1.625649256792    -2.203235084033
    C            0.604212390641     0.643214124127    -0.910539021382
    H            2.736172759849     0.890534340296    -0.933131538991
    H            2.004919849434     0.801940946450    -2.514546532861
    C            0.526916879981     0.460624034890     0.596837364810
    H            0.290255982427     1.664606233972    -1.122245501755
    H           -0.145008864193     0.008427952819    -1.377437830353
    C           -0.788533929759     0.794077865484     1.284162567979
    O            1.473409980976     0.117716099098     1.239431965444
    C           -2.030771705803     0.108522069180     0.700283077730
    H           -0.919343765391     1.874436339058     1.234083168136
    H           -0.666508872513     0.533409925062     2.328617939129
    C           -3.286261995166     0.383639790200     1.530418940381
    H           -2.200267695663     0.444258438185    -0.318989610771
    H           -1.863703998336    -0.965710919912     0.649880940677
    C           -4.534550141673    -0.285572478791     0.957080639919
    H           -3.447385107424     1.457729219575     1.592667955907
    H           -3.125879682069     0.038774476293     2.548957060451
    H           -4.741891539660     0.066138657956    -0.049599730250
    H           -4.415727633460    -1.364325648373     0.912466086652
    H           -5.406931922068    -0.074181765429     1.567128828627

  Mulliken Charges: (a.u.)
   Center  Symbol    Alpha    Beta     Spin     Total
       1     H     0.41953  0.41953  0.00000  0.16095
       2     C     3.24039  3.24039  0.00000 -0.48078
       3     C     3.15595  3.15595  0.00000 -0.31191
       4     H     0.41879  0.41879  0.00000  0.16241
       5     H     0.42429  0.42429  0.00000  0.15142
       6     C     3.14805  3.14805  0.00000 -0.29611
       7     H     0.40605  0.40605  0.00000  0.18789
       8     H     0.42860  0.42860  0.00000  0.14281
       9     C     3.21403  3.21403  0.00000 -0.42806
      10     H     0.40976  0.40976  0.00000  0.18048
      11     H     0.42234  0.42234  0.00000  0.15533
      12     C     2.73001  2.73001  0.00000  0.53998
      13     H     0.40842  0.40842  0.00000  0.18316
      14     H     0.40616  0.40616  0.00000  0.18768
      15     C     3.20340  3.20340  0.00000 -0.40680
      16     O     4.26667  4.26667  0.00000 -0.53333
      17     C     3.16301  3.16301  0.00000 -0.32601
      18     H     0.41064  0.41064  0.00000  0.17873
      19     H     0.39916  0.39916  0.00000  0.20169
      20     C     3.15201  3.15201  0.00000 -0.30402
      21     H     0.41885  0.41885  0.00000  0.16229
      22     H     0.41603  0.41603  0.00000  0.16794
      23     C     3.24022  3.24022  0.00000 -0.48044
      24     H     0.42128  0.42128  0.00000  0.15745
      25     H     0.41848  0.41848  0.00000  0.16304
      26     H     0.42119  0.42119  0.00000  0.15763
      27     H     0.41989  0.41989  0.00000  0.16021
      28     H     0.41680  0.41680  0.00000  0.16640

   Total alpha = 40.00000, Total beta = 40.00000, Total charge = -0.00000
