                              Psi4 1.0.54 Driver

  ==> Input File <==

--------------------------------------------------------------------------
set {
	reference rhf
	basis cc-pvtz
}

set_num_threads( 4 )
memory 2 gb

molecule MOL {
0 1

H	 -2.644180	 -0.653737	 1.272255
C	 -2.092774	 -0.380414	 0.391915
O	 -0.808934	 -0.154049	 0.752536
F	 -2.163230	 -1.351640	 -0.507133
F	 -2.627232	 0.691260	 -0.169301
C	 -0.224907	 -0.998112	 1.672195
C	 0.544481	 -0.130306	 2.665287
Cl	 0.876269	 -2.143008	 0.883422
H	 -0.948088	 -1.574762	 2.221858
F	 1.114031	 -0.874628	 3.578862
F	 -0.296246	 0.676736	 3.267929
F	 1.460987	 0.593522	 2.083615

	symmetry c1
}
set optking {
	frozen_dihedral = ("
		6 3 2 4
	")
}

ee,wfn = optimize('scf', return_wfn=True)
oeprop( wfn, 'DIPOLE', 'QUADRUPOLE', 'MULLIKEN_CHARGES')
f=open( 'psi4out.xyz', 'w' )
f.write( "12  " )
f.write( str(ee) + "\n" )
f.write( MOL.save_string_xyz() )
f.close()
--------------------------------------------------------------------------

    Molecular point group: c1
  Charge       = 0
  Multiplicity = 1
  Basis Set: CC-PVTZ
  Basis Set:
  @DF-RHF Final Energy: -1146.61427148149323
    Total Energy =                      -1146.6142714814934607
    Molecular point group: c1
  Basis Set: CC-PVTZ
  Basis Set:
  Basis Set: CC-PVTZ
  Basis Set:
  @DF-RHF Final Energy: -1146.61602032009228
    Total Energy =                      -1146.6160203200927299
  Basis Set: CC-PVTZ
  Basis Set:
  Basis Set: CC-PVTZ
  Basis Set:
  @DF-RHF Final Energy: -1146.61656118429710
    Total Energy =                      -1146.6165611842973249
  Basis Set: CC-PVTZ
  Basis Set:
  Basis Set: CC-PVTZ
  Basis Set:
  @DF-RHF Final Energy: -1146.61662283470832
    Total Energy =                      -1146.6166228347087781
  Basis Set: CC-PVTZ
  Basis Set:
  @DF-RHF Final Energy: -1146.61665116574068
    Total Energy =                      -1146.6166511657415867
  Basis Set: CC-PVTZ
  Basis Set:
  @DF-RHF Final Energy: -1146.61667807191543
    Total Energy =                      -1146.6166780719156577
  Basis Set: CC-PVTZ
  Basis Set:
  Basis Set: CC-PVTZ
  Basis Set:
  @DF-RHF Final Energy: -1146.61670673934577
    Total Energy =                      -1146.6167067393457728
  Basis Set: CC-PVTZ
  Basis Set:
  Basis Set: CC-PVTZ
  Basis Set:
  @DF-RHF Final Energy: -1146.61671333707864
    Total Energy =                      -1146.6167133370786360
  Basis Set: CC-PVTZ
  Basis Set:
  Charge       = 0
  Multiplicity = 1
  Basis Set: CC-PVTZ
  Basis Set:

    Orbital Energies (a.u.)
    -----------------------

    Doubly Occupied:

       1A   -104.859811     2A    -26.359319     3A    -26.358674
       4A    -26.356990     5A    -26.342466     6A    -26.338542
       7A    -20.643153     8A    -11.524899     9A    -11.486189
      10A    -11.408254    11A    -10.585345    12A     -8.052131
      13A     -8.050135    14A     -8.050071    15A     -1.772336
      16A     -1.724032    17A     -1.667260    18A     -1.665800
      19A     -1.644817    20A     -1.491519    21A     -1.179590
      22A     -1.055962    23A     -0.989637    24A     -0.936616
      25A     -0.865886    26A     -0.862989    27A     -0.854827
      28A     -0.834212    29A     -0.817397    30A     -0.795841
      31A     -0.738494    32A     -0.735281    33A     -0.710244
      34A     -0.699962    35A     -0.689444    36A     -0.684709
      37A     -0.668455    38A     -0.665744    39A     -0.654950
      40A     -0.642205    41A     -0.617423    42A     -0.568274
      43A     -0.523593    44A     -0.481761    45A     -0.473893

  @DF-RHF Final Energy: -1146.61671385699037

   => Energetics <=

    Nuclear Repulsion Energy =            728.7341696617056641
    One-Electron Energy =               -3040.4435037935131732
    Two-Electron Energy =                1165.0926202748169089
    DFT Exchange-Correlation Energy =       0.0000000000000000
    Empirical Dispersion Energy =           0.0000000000000000
    PCM Polarization Energy =               0.0000000000000000
    EFP Energy =                            0.0000000000000000
    Total Energy =                      -1146.6167138569908275
    Molecular point group: c1
  Basis Set: CC-PVTZ
  Basis Set:

  -Total Gradient:
     Atom            X                  Y                   Z
    ------   -----------------  -----------------  -----------------
       1       -0.000024755426     0.000002228498    -0.000051102506
       2       -0.000043926154    -0.000134433192     0.000179564092
       3        0.000151355587    -0.000059837184    -0.000147424332
       4       -0.000023029808     0.000135923239    -0.000047547041
       5        0.000004615409    -0.000039347954    -0.000007370097
       6       -0.000112040245     0.000187764129     0.000106803237
       7        0.000050065468    -0.000067902656     0.000051112306
       8        0.000042963550    -0.000057470857    -0.000038105998
       9        0.000012588522    -0.000004456745    -0.000012095510
      10        0.000015412082     0.000000099164    -0.000027402139
      11       -0.000027187615     0.000055904014    -0.000015514012
      12       -0.000046061324    -0.000018470494     0.000009081978

  **** Optimization is complete! (in 9 steps) ****
    Final optimized geometry and variables:
    Molecular point group: c1

    Geometry (in Angstrom), charge = 0, multiplicity = 1:

    H           -2.448886548666    -0.237725168254    -0.298427211294
    C           -1.796737759137     0.165625605772    -1.059810712513
    O           -0.560328291498     0.462377262990    -0.580148020708
    F           -1.717385430524    -0.701666575594    -2.052564212351
    F           -2.298335268806     1.279139712368    -1.533706351000
    C            0.031059620801    -0.418881413940     0.283292915564
    C            0.858674699653     0.400685108143     1.271894902460
    CL           1.065984116153    -1.595120043559    -0.553556859812
    H           -0.690596864195    -0.986145537138     0.850870659327
    F            1.433946864221    -0.384339125398     2.146865159617
    F            0.056887649612     1.211069093638     1.923742347857
    F            1.773994285055     1.114331128566     0.680780696394

  Mulliken Charges: (a.u.)
   Center  Symbol    Alpha    Beta     Spin     Total
       1     H     0.48391  0.48391  0.00000  0.03218
       2     C     2.74257  2.74257  0.00000  0.51486
       3     O     4.13955  4.13955  0.00000 -0.27911
       4     F     4.60976  4.60976  0.00000 -0.21951
       5     F     4.59921  4.59921  0.00000 -0.19841
       6     C     2.94098  2.94098  0.00000  0.11803
       7     C     2.66753  2.66753  0.00000  0.66493
       8    CL     8.57139  8.57139  0.00000 -0.14278
       9     H     0.43947  0.43947  0.00000  0.12106
      10     F     4.60207  4.60207  0.00000 -0.20414
      11     F     4.60588  4.60588  0.00000 -0.21177
      12     F     4.59767  4.59767  0.00000 -0.19535

   Total alpha = 45.00000, Total beta = 45.00000, Total charge = -0.00000

*** Psi4 exiting successfully. Buy a developer a beer!
