  ==> Input File <==

--------------------------------------------------------------------------
set {
	reference rhf
	basis 6-31G*
}

set_num_threads( 4 )
memory 2 gb

molecule MOL {
0 1

H	 -2.738620	 -0.185063	 0.935518
O	 -2.347518	 -0.290803	 0.079804
C	 -1.184022	 0.487508	 -0.006784
C	 0.062599	 -0.378592	 0.031606
H	 -1.176523	 1.099369	 -0.904519
H	 -1.187323	 1.153111	 0.844927
O	 1.171513	 0.459272	 -0.058250
H	 0.050699	 -1.089204	 -0.797170
H	 0.078739	 -0.954914	 0.954740
C	 2.397842	 -0.198080	 -0.002151
H	 2.508049	 -0.905315	 -0.822092
H	 3.173794	 0.550865	 -0.078850
H	 2.517602	 -0.735921	 0.936026

	symmetry c1
}
set optking {
	frozen_dihedral = ("
		1 2 3 5
	")
}

ee = optimize('scf')
oeprop('DIPOLE', 'QUADRUPOLE', 'MULLIKEN_CHARGES')
f=open( 'psi4out.xyz', 'w' )
f.write( "13  " )
f.write( str(ee) + "\n" )
f.write( MOL.save_string_xyz() )
f.close()
--------------------------------------------------------------------------

    Molecular point group: c1
  Charge       = 0
  Multiplicity = 1
  Basis Set: 6-31G*
  Basis Set:
  @DF-RHF Final Energy:  -267.94830547678771
    Total Energy =                       -267.9483054767877093
    Molecular point group: c1
  Basis Set: 6-31G*
  Basis Set:
  Basis Set: 6-31G*
  Basis Set:
  @DF-RHF Final Energy:  -267.94937740758490
    Total Energy =                       -267.9493774075850752
  Basis Set: 6-31G*
  Basis Set:
  Basis Set: 6-31G*
  Basis Set:
  @DF-RHF Final Energy:  -267.94968782822593
    Total Energy =                       -267.9496878282258194
  Basis Set: 6-31G*
  Basis Set:
  Basis Set: 6-31G*
  Basis Set:
  @DF-RHF Final Energy:  -267.94969356094543
    Total Energy =                       -267.9496935609455477
  Basis Set: 6-31G*
  Basis Set:
  Charge       = 0
  Multiplicity = 1
  Basis Set: 6-31G*
  Basis Set:

    Orbital Energies (a.u.)
    -----------------------

    Doubly Occupied:

       1A    -20.559549     2A    -20.558455     3A    -11.269248
       4A    -11.268078     5A    -11.266659     6A     -1.385796
       7A     -1.363243     8A     -1.017652     9A     -0.911836
      10A     -0.835507    11A     -0.712355    12A     -0.675582
      13A     -0.650096    14A     -0.639950    15A     -0.601394
      16A     -0.555034    17A     -0.546172    18A     -0.488706
      19A     -0.480187    20A     -0.437337    21A     -0.419097

  @DF-RHF Final Energy:  -267.94969430817252

   => Energetics <=

    Nuclear Repulsion Energy =            190.1646750609613719
    One-Electron Energy =                -742.9448674768326555
    Two-Electron Energy =                 284.8304981076986451
    DFT Exchange-Correlation Energy =       0.0000000000000000
    Empirical Dispersion Energy =           0.0000000000000000
    PCM Polarization Energy =               0.0000000000000000
    EFP Energy =                            0.0000000000000000
    Total Energy =                       -267.9496943081726386
    Molecular point group: c1
  Basis Set: 6-31G*
  Basis Set:

  -Total Gradient:
     Atom            X                  Y                   Z
    ------   -----------------  -----------------  -----------------
       1       -0.000445508510     0.000613902010    -0.000322425274
       2        0.000459415418    -0.000608095214     0.000480318710
       3        0.000298854697    -0.000566265093    -0.000456235888
       4       -0.000016886835     0.000037065974    -0.000021683129
       5       -0.000325280558     0.000511527240     0.000326721656
       6        0.000005583141    -0.000000253636     0.000001947539
       7        0.000031113022     0.000000234969    -0.000005864471
       8       -0.000000629398    -0.000008609004    -0.000002811469
       9       -0.000014980694     0.000012969466    -0.000006073007
      10        0.000008461216     0.000009189978     0.000009259222
      11       -0.000005017347     0.000002816175    -0.000000939711
      12        0.000001968723    -0.000001541666    -0.000001694665
      13        0.000002907129    -0.000002941200    -0.000000519511

  **** Optimization is complete! (in 5 steps) ****
    Final optimized geometry and variables:
    Molecular point group: c1

    Geometry (in Angstrom), charge = 0, multiplicity = 1:

    H           -2.772841390395    -0.213692431516     0.852680022908
    O           -2.330170769000    -0.319169846744     0.024895622966
    C           -1.181592450822     0.490590059636    -0.019002006517
    C            0.060751858474    -0.377358920088     0.032009602475
    H           -1.191769254671     1.059846237708    -0.940132449904
    H           -1.160200160491     1.200825240827     0.801539776204
    O            1.173052743943     0.459342718560    -0.048817237926
    H            0.043327844808    -1.086146046502    -0.793691954718
    H            0.073567946243    -0.951707592876     0.957995710806
    C            2.395835185111    -0.206515192571    -0.043955835752
    H            2.482199196624    -0.884704425811    -0.890473713399
    H            3.175204050537     0.539984261954    -0.111566007960
    H            2.533672336185    -0.778333202182     0.871797394253

  Mulliken Charges: (a.u.)
   Center  Symbol    Alpha    Beta     Spin     Total
       1     H     0.27787  0.27787  0.00000  0.44426
       2     O     4.37444  4.37444  0.00000 -0.74889
       3     C     3.00673  3.00673  0.00000 -0.01347
       4     C     2.99165  2.99165  0.00000  0.01670
       5     H     0.41283  0.41283  0.00000  0.17434
       6     H     0.42327  0.42327  0.00000  0.15345
       7     O     4.30899  4.30899  0.00000 -0.61799
       8     H     0.42360  0.42360  0.00000  0.15280
       9     H     0.43235  0.43235  0.00000  0.13530
      10     C     3.07946  3.07946  0.00000 -0.15892
      11     H     0.42796  0.42796  0.00000  0.14407
      12     H     0.41152  0.41152  0.00000  0.17695
      13     H     0.42930  0.42930  0.00000  0.14140

   Total alpha = 21.00000, Total beta = 21.00000, Total charge =  0.00000
