  ==> Input File <==

--------------------------------------------------------------------------
set {
	reference rhf
	basis 6-31G*
}

set_num_threads( 1 )
memory 2 gb

molecule MOL {
0 1

H	 -2.540319	 1.038766	 1.187947
C	 -1.910240	 1.756398	 1.709623
O	 -0.560670	 1.457906	 1.551819
H	 -2.078044	 2.739003	 1.290731
H	 -2.197831	 1.768367	 2.760135
C	 -0.189244	 0.213645	 2.054916
C	 1.263565	 -0.043037	 1.729850
H	 -0.324481	 0.187603	 3.136918
H	 -0.798711	 -0.576749	 1.621522
O	 1.392611	 -0.295398	 0.366430
H	 1.854541	 0.823035	 2.020836
H	 1.614343	 -0.899054	 2.307676
C	 2.706965	 -0.449871	 -0.062409
H	 2.756559	 -0.644779	 -1.131878
H	 3.305899	 0.433456	 0.155466
H	 3.125548	 -1.294566	 0.467107

	symmetry c1
}
set optking {
	frozen_dihedral = ("
		3 6 7 11,
		2 3 6 7
	")
}

ee = energy('scf')
oeprop('DIPOLE', 'QUADRUPOLE', 'MULLIKEN_CHARGES')
f=open( 'psi4out.xyz', 'w' )
f.write( "16  " )
f.write( str(ee) + "\n" )
f.write( MOL.save_string_xyz() )
f.close()
--------------------------------------------------------------------------

    Molecular point group: c1

    Geometry (in Angstrom), charge = 0, multiplicity = 1:

       Center              X                  Y                   Z               Mass
    ------------   -----------------  -----------------  -----------------  -----------------
           H         -2.990132031227     0.595513589923    -0.031026067409     1.007825032070
           C         -2.360053031227     1.313145589923     0.490649932591    12.000000000000
           O         -1.010483031227     1.014653589923     0.332845932591    15.994914619560
           H         -2.527857031227     2.295750589923     0.071757932591     1.007825032070
           H         -2.647644031227     1.325114589923     1.541161932591     1.007825032070
           C         -0.639057031227    -0.229607410077     0.835942932591    12.000000000000
           C          0.813751968773    -0.486289410077     0.510876932591    12.000000000000
           H         -0.774294031227    -0.255649410077     1.917944932591     1.007825032070
           H         -1.248524031227    -1.020001410077     0.402548932591     1.007825032070
           O          0.942797968773    -0.738650410077    -0.852543067409    15.994914619560
           H          1.404727968773     0.379782589923     0.801862932591     1.007825032070
           H          1.164529968773    -1.342306410077     1.088702932591     1.007825032070
           C          2.257151968773    -0.893123410077    -1.281382067409    12.000000000000
           H          2.306745968773    -1.088031410077    -2.350851067409     1.007825032070
           H          2.856085968773    -0.009796410077    -1.063507067409     1.007825032070
           H          2.675734968773    -1.737818410077    -0.751866067409     1.007825032070

  Charge       = 0
  Multiplicity = 1
  Basis Set: 6-31G*
  Basis Set:

    Orbital Energies (a.u.)
    -----------------------

    Doubly Occupied:

       1A    -20.553594     2A    -20.552400     3A    -11.269491
       4A    -11.268741     5A    -11.263937     6A    -11.263543
       7A     -1.388140     8A     -1.370512     9A     -1.030676
      10A     -0.935660    11A     -0.892263    12A     -0.824275
      13A     -0.684268    14A     -0.681000    15A     -0.656457
      16A     -0.635573    17A     -0.629882    18A     -0.598651
      19A     -0.549874    20A     -0.535747    21A     -0.510094
      22A     -0.476844    23A     -0.461741    24A     -0.419374
      25A     -0.410143

  @DF-RHF Final Energy:  -306.97650330978280

   => Energetics <=

    Nuclear Repulsion Energy =            258.8772075283847585
    One-Electron Energy =                -931.9816360105496642
    Two-Electron Energy =                 366.1279251723814241
    DFT Exchange-Correlation Energy =       0.0000000000000000
    Empirical Dispersion Energy =           0.0000000000000000
    PCM Polarization Energy =               0.0000000000000000
    EFP Energy =                            0.0000000000000000
    Total Energy =                       -306.9765033097834248

  Mulliken Charges: (a.u.)
   Center  Symbol    Alpha    Beta     Spin     Total
       1     H     0.42804  0.42804  0.00000  0.14392
       2     C     3.07954  3.07954  0.00000 -0.15909
       3     O     4.30079  4.30079  0.00000 -0.60159
       4     H     0.41127  0.41127  0.00000  0.17746
       5     H     0.43190  0.43190  0.00000  0.13619
       6     C     2.99315  2.99315  0.00000  0.01370
       7     C     2.99325  2.99325  0.00000  0.01350
       8     H     0.43223  0.43223  0.00000  0.13553
       9     H     0.42264  0.42264  0.00000  0.15473
      10     O     4.30181  4.30181  0.00000 -0.60363
      11     H     0.42251  0.42251  0.00000  0.15498
      12     H     0.43252  0.43252  0.00000  0.13497
      13     C     3.07891  3.07891  0.00000 -0.15783
      14     H     0.41135  0.41135  0.00000  0.17730
      15     H     0.42858  0.42858  0.00000  0.14283
      16     H     0.43149  0.43149  0.00000  0.13701

   Total alpha = 25.00000, Total beta = 25.00000, Total charge =  0.00000
