  ==> Input File <==

--------------------------------------------------------------------------
set {
	reference rhf
	basis 6-31G*
}

set_num_threads( 1 )
memory 2 gb

molecule MOL {
0 1

H	 3.893188	 0.355400	 -0.101367
N	 3.092854	 -0.246221	 -0.068770
C	 1.865559	 0.531981	 0.018834
H	 3.199514	 -0.826043	 0.741946
C	 0.645745	 -0.382037	 -0.029944
H	 1.841966	 1.207024	 -0.831236
H	 1.815756	 1.155410	 0.915079
C	 -0.679275	 0.379305	 0.025956
H	 0.698998	 -0.976915	 -0.937203
H	 0.693479	 -1.083846	 0.802235
C	 -0.711816	 1.453166	 1.115056
H	 -1.492969	 -0.324566	 0.194231
H	 -0.873757	 0.843828	 -0.939571
C	 -2.039134	 2.208626	 1.169972
H	 -0.519058	 0.991191	 2.080788
H	 0.098636	 2.159509	 0.948018
H	 -2.866503	 1.533482	 1.369864
H	 -2.031349	 2.962029	 1.951590
H	 -2.243902	 2.710917	 0.228608

	symmetry c1
}
set optking {
	frozen_dihedral = ("
		6 3 5 9,
		12 8 11 15,
		1 2 3 6
	")
}

ee = energy('scf')
oeprop('DIPOLE', 'QUADRUPOLE', 'MULLIKEN_CHARGES')
f=open( 'psi4out.xyz', 'w' )
f.write( "19  " )
f.write( str(ee) + "\n" )
f.write( MOL.save_string_xyz() )
f.close()
--------------------------------------------------------------------------

    Molecular point group: c1

    Geometry (in Angstrom), charge = 0, multiplicity = 1:

       Center              X                  Y                   Z               Mass
    ------------   -----------------  -----------------  -----------------  -----------------
           H          3.496955699480    -0.306283941677    -0.481469346376     1.007825032070
           N          2.696621699480    -0.907904941677    -0.448872346376    14.003074004780
           C          1.469326699480    -0.129702941677    -0.361268346376    12.000000000000
           H          2.803281699480    -1.487726941677     0.361843653624     1.007825032070
           C          0.249512699480    -1.043720941677    -0.410046346376    12.000000000000
           H          1.445733699480     0.545340058323    -1.211338346376     1.007825032070
           H          1.419523699480     0.493726058323     0.534976653624     1.007825032070
           C         -1.075507300520    -0.282378941677    -0.354146346376    12.000000000000
           H          0.302765699480    -1.638598941677    -1.317305346376     1.007825032070
           H          0.297246699480    -1.745529941677     0.422132653624     1.007825032070
           C         -1.108048300520     0.791482058323     0.734953653624    12.000000000000
           H         -1.889201300520    -0.986249941677    -0.185871346376     1.007825032070
           H         -1.269989300520     0.182144058323    -1.319673346376     1.007825032070
           C         -2.435366300520     1.546942058323     0.789869653624    12.000000000000
           H         -0.915290300520     0.329507058323     1.700685653624     1.007825032070
           H         -0.297596300520     1.497825058323     0.567915653624     1.007825032070
           H         -3.262735300520     0.871798058323     0.989761653624     1.007825032070
           H         -2.427581300520     2.300345058323     1.571487653624     1.007825032070
           H         -2.640134300520     2.049233058323    -0.151494346376     1.007825032070

  Charge       = 0
  Multiplicity = 1
  Basis Set: 6-31G*
  Basis Set:

    Orbital Energies (a.u.)
    -----------------------

    Doubly Occupied:

       1A    -15.531689     2A    -11.238390     3A    -11.214396
       4A    -11.212736     5A    -11.209368     6A    -11.208133
       7A     -1.176216     8A     -1.075089     9A     -0.996062
      10A     -0.898224    11A     -0.834875    12A     -0.772024
      13A     -0.656460    14A     -0.638186    15A     -0.632532
      16A     -0.584341    17A     -0.572257    18A     -0.545325
      19A     -0.528346    20A     -0.506545    21A     -0.483436
      22A     -0.463124    23A     -0.455802    24A     -0.450892
      25A     -0.378165

  @DF-RHF Final Energy:  -251.34644301010729

   => Energetics <=

    Nuclear Repulsion Energy =            251.0736554142437740
    One-Electron Energy =                -836.3149834612834184
    Two-Electron Energy =                 333.8948850369331467
    DFT Exchange-Correlation Energy =       0.0000000000000000
    Empirical Dispersion Energy =           0.0000000000000000
    PCM Polarization Energy =               0.0000000000000000
    EFP Energy =                            0.0000000000000000
    Total Energy =                       -251.3464430101064409

  Mulliken Charges: (a.u.)
   Center  Symbol    Alpha    Beta     Spin     Total
       1     H     0.33274  0.33274  0.00000  0.33452
       2     N     3.92219  3.92219  0.00000 -0.84438
       3     C     3.06518  3.06518  0.00000 -0.13036
       4     H     0.33553  0.33553  0.00000  0.32894
       5     C     3.15212  3.15212  0.00000 -0.30423
       6     H     0.42155  0.42155  0.00000  0.15691
       7     H     0.42990  0.42990  0.00000  0.14019
       8     C     3.15463  3.15463  0.00000 -0.30925
       9     H     0.41097  0.41097  0.00000  0.17805
      10     H     0.42768  0.42768  0.00000  0.14465
      11     C     3.15839  3.15839  0.00000 -0.31679
      12     H     0.42087  0.42087  0.00000  0.15826
      13     H     0.42290  0.42290  0.00000  0.15419
      14     C     3.23787  3.23787  0.00000 -0.47575
      15     H     0.42381  0.42381  0.00000  0.15239
      16     H     0.42002  0.42002  0.00000  0.15996
      17     H     0.42198  0.42198  0.00000  0.15604
      18     H     0.41994  0.41994  0.00000  0.16012
      19     H     0.42173  0.42173  0.00000  0.15655

   Total alpha = 25.00000, Total beta = 25.00000, Total charge = -0.00000
