  ==> Input File <==

--------------------------------------------------------------------------
set {
	reference rhf
	basis 6-31G*
}

set_num_threads( 1 )
memory 2 gb

molecule MOL {
0 1

H	 -3.420663	 1.227371	 -1.044276
O	 -3.452007	 0.283848	 -0.965577
C	 -3.181085	 -0.079926	 0.364119
C	 -1.765924	 0.277073	 0.805136
H	 -3.327791	 -1.152017	 0.410903
H	 -3.905698	 0.375695	 1.036898
C	 -0.677594	 -0.417312	 -0.014550
H	 -1.637766	 1.358238	 0.744969
H	 -1.659588	 0.017670	 1.857098
C	 0.695121	 0.243292	 0.128394
H	 -0.971496	 -0.429447	 -1.059626
H	 -0.610748	 -1.458815	 0.295604
C	 1.780501	 -0.460848	 -0.690278
H	 0.619306	 1.285192	 -0.173460
H	 0.986275	 0.249968	 1.178056
C	 3.191704	 0.110432	 -0.510554
H	 1.512673	 -0.428989	 -1.745241
H	 1.796762	 -1.513123	 -0.414107
C	 3.371267	 1.537378	 -1.032080
H	 3.894409	 -0.539572	 -1.026295
H	 3.462911	 0.074108	 0.542694
H	 3.095201	 1.606866	 -2.080935
H	 4.406155	 1.853255	 -0.942274
H	 2.765482	 2.250284	 -0.482578

	symmetry c1
}
set optking {
	frozen_dihedral = ("
		20 16 13 17,
		17 13 10 7,
		13 10 7 11,
		1 2 3 5,
		7 4 3 2
	")
}

ee = energy('scf')
oeprop('DIPOLE', 'QUADRUPOLE', 'MULLIKEN_CHARGES')
f=open( 'psi4out.xyz', 'w' )
f.write( "24  " )
f.write( str(ee) + "\n" )
f.write( MOL.save_string_xyz() )
f.close()
--------------------------------------------------------------------------

    Molecular point group: c1

    Geometry (in Angstrom), charge = 0, multiplicity = 1:

       Center              X                  Y                   Z               Mass
    ------------   -----------------  -----------------  -----------------  -----------------
           H         -3.358775052718     1.021762745107    -0.787926268147     1.007825032070
           O         -3.390119052718     0.078239745107    -0.709227268147    15.994914619560
           C         -3.119197052718    -0.285534254893     0.620468731853    12.000000000000
           C         -1.704036052718     0.071464745107     1.061485731853    12.000000000000
           H         -3.265903052718    -1.357625254893     0.667252731853     1.007825032070
           H         -3.843810052718     0.170086745107     1.293247731853     1.007825032070
           C         -0.615706052718    -0.622920254893     0.241799731853    12.000000000000
           H         -1.575878052718     1.152629745107     1.001318731853     1.007825032070
           H         -1.597700052718    -0.187938254893     2.113447731853     1.007825032070
           C          0.757008947282     0.037683745107     0.384743731853    12.000000000000
           H         -0.909608052718    -0.635055254893    -0.803276268147     1.007825032070
           H         -0.548860052718    -1.664423254893     0.551953731853     1.007825032070
           C          1.842388947282    -0.666456254893    -0.433928268147    12.000000000000
           H          0.681193947282     1.079583745107     0.082889731853     1.007825032070
           H          1.048162947282     0.044359745107     1.434405731853     1.007825032070
           C          3.253591947282    -0.095176254893    -0.254204268147    12.000000000000
           H          1.574560947282    -0.634597254893    -1.488891268147     1.007825032070
           H          1.858649947282    -1.718731254893    -0.157757268147     1.007825032070
           C          3.433154947282     1.331769745107    -0.775730268147    12.000000000000
           H          3.956296947282    -0.745180254893    -0.769945268147     1.007825032070
           H          3.524798947282    -0.131500254893     0.799043731853     1.007825032070
           H          3.157088947282     1.401257745107    -1.824585268147     1.007825032070
           H          4.468042947282     1.647646745107    -0.685924268147     1.007825032070
           H          2.827369947282     2.044675745107    -0.226228268147     1.007825032070

  Charge       = 0
  Multiplicity = 1
  Basis Set: 6-31G*
  Basis Set:

    Orbital Energies (a.u.)
    -----------------------

    Doubly Occupied:

       1A    -20.554084     2A    -11.267825     3A    -11.217087
       4A    -11.213908     5A    -11.212344     6A    -11.211329
       7A    -11.210234     8A    -11.207249     9A     -1.360619
      10A     -1.088299    11A     -1.048120    12A     -0.985529
      13A     -0.914877    14A     -0.850331    15A     -0.800799
      16A     -0.776151    17A     -0.679494    18A     -0.653168
      19A     -0.623811    20A     -0.621567    21A     -0.595950
      22A     -0.584997    23A     -0.558940    24A     -0.538361
      25A     -0.514204    26A     -0.513044    27A     -0.497890
      28A     -0.471362    29A     -0.466933    30A     -0.457910
      31A     -0.455056    32A     -0.451558    33A     -0.419660

  @DF-RHF Final Energy:  -349.24672946548412

   => Energetics <=

    Nuclear Repulsion Energy =            385.4061813147868634
    One-Electron Energy =               -1237.2608715365890930
    Two-Electron Energy =                 502.6079607563177660
    DFT Exchange-Correlation Energy =       0.0000000000000000
    Empirical Dispersion Energy =           0.0000000000000000
    PCM Polarization Energy =               0.0000000000000000
    EFP Energy =                            0.0000000000000000
    Total Energy =                       -349.2467294654844636

  Mulliken Charges: (a.u.)
   Center  Symbol    Alpha    Beta     Spin     Total
       1     H     0.28330  0.28330  0.00000  0.43339
       2     O     4.36794  4.36794  0.00000 -0.73589
       3     C     2.99691  2.99691  0.00000  0.00618
       4     C     3.16880  3.16880  0.00000 -0.33760
       5     H     0.41638  0.41638  0.00000  0.16725
       6     H     0.42812  0.42812  0.00000  0.14376
       7     C     3.15569  3.15569  0.00000 -0.31137
       8     H     0.42828  0.42828  0.00000  0.14344
       9     H     0.42157  0.42157  0.00000  0.15687
      10     C     3.15384  3.15384  0.00000 -0.30769
      11     H     0.40839  0.40839  0.00000  0.18322
      12     H     0.42355  0.42355  0.00000  0.15291
      13     C     3.15244  3.15244  0.00000 -0.30489
      14     H     0.42301  0.42301  0.00000  0.15398
      15     H     0.42549  0.42549  0.00000  0.14902
      16     C     3.15224  3.15224  0.00000 -0.30448
      17     H     0.42326  0.42326  0.00000  0.15348
      18     H     0.42233  0.42233  0.00000  0.15533
      19     C     3.24100  3.24100  0.00000 -0.48200
      20     H     0.42112  0.42112  0.00000  0.15776
      21     H     0.42385  0.42385  0.00000  0.15230
      22     H     0.42215  0.42215  0.00000  0.15570
      23     H     0.41958  0.41958  0.00000  0.16084
      24     H     0.42075  0.42075  0.00000  0.15849

   Total alpha = 33.00000, Total beta = 33.00000, Total charge = -0.00000
