  ==> Input File <==

--------------------------------------------------------------------------
set {
	reference rhf
	basis 6-31G*
}

set_num_threads( 4 )
memory 2 gb

molecule MOL {
0 1

H	 -2.712025	 -0.844748	 -0.523312
O	 -2.315789	 -0.143634	 -0.024262
C	 -0.945151	 -0.064130	 -0.333158
H	 -0.813375	 -0.223047	 -1.403232
C	 -0.232801	 -1.184051	 0.407206
C	 -0.355424	 1.302939	 0.054523
H	 -0.318824	 -0.992899	 1.473524
H	 -0.742411	 -2.122033	 0.217954
C	 1.248522	 -1.270719	 -0.013048
H	 -0.546144	 2.018388	 -0.742941
H	 -0.890929	 1.656788	 0.930149
C	 1.156425	 1.235120	 0.355905
H	 1.825384	 -1.683246	 0.809111
H	 1.357782	 -1.965923	 -0.840362
C	 1.828244	 0.099899	 -0.419275
H	 1.626109	 2.185622	 0.123525
H	 1.309438	 1.071213	 1.419539
H	 2.901447	 0.112642	 -0.255830
H	 1.681817	 0.263413	 -1.484607

	symmetry c1
}
set optking {
	frozen_dihedral = ("
		1 2 3 4
	")
}

ee = optimize('scf')
oeprop('DIPOLE', 'QUADRUPOLE', 'MULLIKEN_CHARGES')
f=open( 'psi4out.xyz', 'w' )
f.write( "19  " )
f.write( str(ee) + "\n" )
f.write( MOL.save_string_xyz() )
f.close()
--------------------------------------------------------------------------

    Molecular point group: c1
  Charge       = 0
  Multiplicity = 1
  Basis Set: 6-31G*
  Basis Set:
  @DF-RHF Final Energy:  -309.04677749889237
    Total Energy =                       -309.0467774988921406
    Molecular point group: c1
  Basis Set: 6-31G*
  Basis Set:
  Basis Set: 6-31G*
  Basis Set:
  @DF-RHF Final Energy:  -309.04825944517324
    Total Energy =                       -309.0482594451733007
  Basis Set: 6-31G*
  Basis Set:
  Basis Set: 6-31G*
  Basis Set:
  @DF-RHF Final Energy:  -309.04852038114871
    Total Energy =                       -309.0485203811489328
  Basis Set: 6-31G*
  Basis Set:
  Basis Set: 6-31G*
  Basis Set:
  @DF-RHF Final Energy:  -309.04852645481253
    Total Energy =                       -309.0485264548125883
  Basis Set: 6-31G*
  Basis Set:
  Charge       = 0
  Multiplicity = 1
  Basis Set: 6-31G*
  Basis Set:

    Orbital Energies (a.u.)
    -----------------------

    Doubly Occupied:

       1A    -20.550315     2A    -11.269695     3A    -11.216778
       4A    -11.215333     5A    -11.213966     6A    -11.210676
       7A    -11.208376     8A     -1.358921     9A     -1.107939
      10A     -1.000904    11A     -0.987986    12A     -0.845234
      13A     -0.830404    14A     -0.731491    15A     -0.709500
      16A     -0.654116    17A     -0.618881    18A     -0.603465
      19A     -0.564920    20A     -0.543764    21A     -0.532683
      22A     -0.518636    23A     -0.497631    24A     -0.485404
      25A     -0.465444    26A     -0.448857    27A     -0.429647
      28A     -0.407893

  @DF-RHF Final Energy:  -309.04852732850549

   => Energetics <=

    Nuclear Repulsion Energy =            331.3046031437334591
    One-Electron Energy =               -1076.2485444786375410
    Two-Electron Energy =                 435.8954140063986529
    DFT Exchange-Correlation Energy =       0.0000000000000000
    Empirical Dispersion Energy =           0.0000000000000000
    PCM Polarization Energy =               0.0000000000000000
    EFP Energy =                            0.0000000000000000
    Total Energy =                       -309.0485273285054859
    Molecular point group: c1
  Basis Set: 6-31G*
  Basis Set:

  -Total Gradient:
     Atom            X                  Y                   Z
    ------   -----------------  -----------------  -----------------
       1       -0.000243477569     0.000996444694    -0.001130034974
       2        0.000310314573    -0.001580060349     0.001414884145
       3       -0.000085717923     0.001910331349    -0.000433824940
       4        0.000020238636    -0.001298833300     0.000230057817
       5       -0.000050876682     0.000014982753    -0.000034247827
       6        0.000026929833     0.000006996898    -0.000028913591
       7        0.000000032930     0.000000455218    -0.000007155258
       8       -0.000004678106    -0.000000191791    -0.000001988883
       9        0.000032988612     0.000017697703    -0.000004741691
      10       -0.000008384625     0.000015821604    -0.000003003481
      11       -0.000019079244    -0.000046041811    -0.000009585302
      12        0.000004526988     0.000011915463    -0.000013136338
      13        0.000025700793    -0.000001640470     0.000011420502
      14        0.000007139617     0.000006814630     0.000011626844
      15       -0.000010471667    -0.000031007025     0.000003234955
      16       -0.000002981572    -0.000003137543     0.000000865455
      17       -0.000002855941    -0.000000672355     0.000001433998
      18        0.000002237340    -0.000026919847    -0.000007343066
      19       -0.000001585992     0.000007044179     0.000000451635

  **** Optimization is complete! (in 5 steps) ****
    Final optimized geometry and variables:
    Molecular point group: c1

    Geometry (in Angstrom), charge = 0, multiplicity = 1:

    H           -2.770455912435    -0.722718039049    -0.511133402550
    O           -2.319867367155    -0.053555546610    -0.016056454543
    C           -0.946724974404    -0.076383715280    -0.330728602319
    H           -0.828773375688    -0.245798030408    -1.400524154217
    C           -0.214993960503    -1.192114055655     0.408632643930
    C           -0.368512858757     1.293346369557     0.040497845053
    H           -0.299873708201    -1.001639549406     1.474991555135
    H           -0.708424376633    -2.143440364147     0.226989602833
    C            1.265845228473    -1.266433706958    -0.016748735647
    H           -0.561123451223     1.990695433983    -0.769104561769
    H           -0.919970674110     1.656399871233     0.901142398999
    C            1.138670212898     1.235760037937     0.359926122843
    H            1.848947993525    -1.678832402061     0.801119305679
    H            1.379069526162    -1.955939119323    -0.848534801222
    C            1.830433382119     0.112938947395    -0.415738177534
    H            1.601354534908     2.192346546338     0.138438363822
    H            1.283548010405     1.067053210844     1.424226712955
    H            2.902674291650     0.137556766925    -0.247519176244
    H            1.686403432655     0.278894481033    -1.481086338571

  Mulliken Charges: (a.u.)
   Center  Symbol    Alpha    Beta     Spin     Total
       1     H     0.28233  0.28233  0.00000  0.43535
       2     O     4.37842  4.37842  0.00000 -0.75685
       3     C     2.91155  2.91155  0.00000  0.17690
       4     H     0.43069  0.43069  0.00000  0.13862
       5     C     3.16969  3.16969  0.00000 -0.33938
       6     C     3.16230  3.16230  0.00000 -0.32460
       7     H     0.41508  0.41508  0.00000  0.16983
       8     H     0.42264  0.42264  0.00000  0.15472
       9     C     3.16077  3.16077  0.00000 -0.32154
      10     H     0.41754  0.41754  0.00000  0.16491
      11     H     0.40746  0.40746  0.00000  0.18508
      12     C     3.16530  3.16530  0.00000 -0.33061
      13     H     0.41754  0.41754  0.00000  0.16492
      14     H     0.42003  0.42003  0.00000  0.15994
      15     C     3.16375  3.16375  0.00000 -0.32751
      16     H     0.41659  0.41659  0.00000  0.16682
      17     H     0.41964  0.41964  0.00000  0.16072
      18     H     0.41670  0.41670  0.00000  0.16660
      19     H     0.42197  0.42197  0.00000  0.15606

   Total alpha = 28.00000, Total beta = 28.00000, Total charge =  0.00000
