  ==> Input File <==

--------------------------------------------------------------------------
set {
	reference rhf
	basis 6-31G*
}

set_num_threads( 4 )
memory 2 gb

molecule MOL {
0 1

H	 4.315141	 0.032299	 1.580882
C	 3.584668	 -0.480610	 0.963562
C	 2.273579	 0.301508	 0.897984
H	 4.017673	 -0.604488	 -0.025067
H	 3.434077	 -1.470729	 1.384554
C	 1.217350	 -0.386724	 0.039429
H	 2.449622	 1.295505	 0.498774
H	 1.884364	 0.436711	 1.905765
N	 0.000003	 0.397874	 -0.023260
H	 1.595595	 -0.498331	 -0.973210
H	 1.041373	 -1.399526	 0.417109
C	 -1.217365	 -0.386708	 0.039277
H	 -0.000031	 1.072115	 0.718656
C	 -2.452633	 0.504241	 -0.042481
H	 -1.215291	 -1.074557	 -0.802042
H	 -1.269739	 -1.003477	 0.942735
C	 -3.758029	 -0.289423	 -0.010781
H	 -2.394220	 1.093569	 -0.952170
H	 -2.440793	 1.210787	 0.785871
H	 -3.816659	 -0.981993	 -0.845726
H	 -4.617837	 0.370165	 -0.069296
H	 -3.847478	 -0.867502	 0.904682

	symmetry c1
}
set optking {
	frozen_dihedral = ("
		10 6 9 12
	")
}

ee = optimize('scf')
oeprop('DIPOLE', 'QUADRUPOLE', 'MULLIKEN_CHARGES')
f=open( 'psi4out.xyz', 'w' )
f.write( "22  " )
f.write( str(ee) + "\n" )
f.write( MOL.save_string_xyz() )
f.close()
--------------------------------------------------------------------------

    Molecular point group: c1
  Charge       = 0
  Multiplicity = 1
  Basis Set: 6-31G*
  Basis Set:
  @DF-RHF Final Energy:  -290.37887305448942
    Total Energy =                       -290.3788730544898158
    Molecular point group: c1
  Basis Set: 6-31G*
  Basis Set:
  Basis Set: 6-31G*
  Basis Set:
  @DF-RHF Final Energy:  -290.37916978402103
    Total Energy =                       -290.3791697840215420
  Basis Set: 6-31G*
  Basis Set:
  Basis Set: 6-31G*
  Basis Set:
  @DF-RHF Final Energy:  -290.37923873037010
    Total Energy =                       -290.3792387303705027
  Basis Set: 6-31G*
  Basis Set:
  Basis Set: 6-31G*
  Basis Set:
  @DF-RHF Final Energy:  -290.37924019851670
    Total Energy =                       -290.3792401985164133
  Basis Set: 6-31G*
  Basis Set:
  Charge       = 0
  Multiplicity = 1
  Basis Set: 6-31G*
  Basis Set:

    Orbital Energies (a.u.)
    -----------------------

    Doubly Occupied:

       1A    -15.531578     2A    -11.237704     3A    -11.237521
       4A    -11.218718     5A    -11.212895     6A    -11.212397
       7A    -11.209358     8A     -1.203034     9A     -1.060428
      10A     -1.026641    11A     -0.928581    12A     -0.868213
      13A     -0.813390    14A     -0.796242    15A     -0.657845
      16A     -0.637326    17A     -0.613950    18A     -0.611720
      19A     -0.573940    20A     -0.560512    21A     -0.540528
      22A     -0.524321    23A     -0.515047    24A     -0.485951
      25A     -0.482309    26A     -0.474951    27A     -0.469082
      28A     -0.451768    29A     -0.356321

  @DF-RHF Final Energy:  -290.37924056636410

   => Energetics <=

    Nuclear Repulsion Energy =            313.5871855292924124
    One-Electron Energy =               -1012.9083130328856441
    Two-Electron Energy =                 408.9418869372294125
    DFT Exchange-Correlation Energy =       0.0000000000000000
    Empirical Dispersion Energy =           0.0000000000000000
    PCM Polarization Energy =               0.0000000000000000
    EFP Energy =                            0.0000000000000000
    Total Energy =                       -290.3792405663638760
    Molecular point group: c1
  Basis Set: 6-31G*
  Basis Set:

  -Total Gradient:
     Atom            X                  Y                   Z
    ------   -----------------  -----------------  -----------------
       1        0.000009455513    -0.000006342308     0.000007876922
       2        0.000014587981    -0.000011522327     0.000016962668
       3       -0.000003909570    -0.000003775069    -0.000021816042
       4       -0.000004416270     0.000004029130     0.000003576935
       5        0.000007435434    -0.000002623054    -0.000006056793
       6       -0.002641460594    -0.003986677929     0.000740154884
       7       -0.000005581673    -0.000002594069    -0.000008776665
       8       -0.000004040397     0.000003297385    -0.000011691265
       9        0.000531314343     0.000408540858    -0.004207742451
      10        0.002097284669     0.003302982084     0.000448984697
      11        0.000032086510    -0.000009972280    -0.000007090897
      12        0.000010617848     0.000311103590     0.003057831525
      13       -0.000019682559     0.000005305705    -0.000012866854
      14       -0.000010873739    -0.000007014397    -0.000002711888
      15        0.000008295566     0.000004740135    -0.000000962490
      16       -0.000001988197    -0.000008565048     0.000000499384
      17       -0.000014969434     0.000007557630     0.000006209648
      18        0.000003681153    -0.000005688450     0.000000094912
      19       -0.000002037725    -0.000000941686    -0.000001613459
      20        0.000000686315     0.000002886730    -0.000001353542
      21       -0.000006721251    -0.000003604968     0.000001853818
      22        0.000000236077    -0.000001121659    -0.000001363045

  **** Optimization is complete! (in 5 steps) ****
    Final optimized geometry and variables:
    Molecular point group: c1

    Geometry (in Angstrom), charge = 0, multiplicity = 1:

    H            4.393821012238     0.108570580118     1.271771723215
    C            3.662025959361    -0.404240600762     0.656005203870
    C            2.331484961853     0.346361434295     0.643079133419
    H            4.073873929686    -0.489173452862    -0.345256855455
    H            3.543424919720    -1.408994799819     1.051569561895
    C            1.268530573321    -0.345645539208    -0.208520544725
    H            2.483196572095     1.353349764443     0.261863113537
    H            1.962949915384     0.449885230317     1.662243200927
    N            0.044214466149     0.441673296844    -0.284609915883
    H            1.672376194763    -0.471564015514    -1.210133765841
    H            1.079973006013    -1.340195526899     0.197147424447
    C           -1.180050327484    -0.334088349284    -0.231044265734
    H            0.032057249086     1.111384415475     0.459906536388
    C           -2.407249111980     0.564982257368    -0.335047966696
    H           -1.175759052649    -1.030092573278    -1.065824750305
    H           -1.245443983114    -0.942404782488     0.677115843218
    C           -3.719333368253    -0.217610162343    -0.302194455751
    H           -2.336981080111     1.141197147843    -1.252242686569
    H           -2.395754705339     1.283209943070     0.483378026875
    H           -3.776963376691    -0.921912275955    -1.127301604722
    H           -4.573275530423     0.447930615238    -0.377301068088
    H           -3.820885223416    -0.781421504911     0.620919759410

  Mulliken Charges: (a.u.)
   Center  Symbol    Alpha    Beta     Spin     Total
       1     H     0.41741  0.41741  0.00000  0.16518
       2     C     3.24231  3.24231  0.00000 -0.48462
       3     C     3.16935  3.16935  0.00000 -0.33869
       4     H     0.41905  0.41905  0.00000  0.16190
       5     H     0.42068  0.42068  0.00000  0.15863
       6     C     3.03675  3.03675  0.00000 -0.07351
       7     H     0.41589  0.41589  0.00000  0.16822
       8     H     0.42469  0.42469  0.00000  0.15062
       9     N     3.86116  3.86116  0.00000 -0.72231
      10     H     0.42141  0.42141  0.00000  0.15719
      11     H     0.43130  0.43130  0.00000  0.13740
      12     C     3.05035  3.05035  0.00000 -0.10071
      13     H     0.33316  0.33316  0.00000  0.33367
      14     C     3.15564  3.15564  0.00000 -0.31129
      15     H     0.42128  0.42128  0.00000  0.15744
      16     H     0.43631  0.43631  0.00000  0.12738
      17     C     3.24319  3.24319  0.00000 -0.48638
      18     H     0.41275  0.41275  0.00000  0.17449
      19     H     0.42693  0.42693  0.00000  0.14615
      20     H     0.42068  0.42068  0.00000  0.15864
      21     H     0.41780  0.41780  0.00000  0.16440
      22     H     0.42191  0.42191  0.00000  0.15618

   Total alpha = 29.00000, Total beta = 29.00000, Total charge =  0.00000
