  ==> Input File <==

--------------------------------------------------------------------------
set {
	reference rhf
	basis 6-31G*
}

set_num_threads( 1 )
memory 2 gb

molecule MOL {
0 1

H	 -3.420663	 1.227371	 -1.044276
O	 -3.452007	 0.283848	 -0.965577
C	 -3.181085	 -0.079926	 0.364119
C	 -1.765924	 0.277073	 0.805136
H	 -3.327791	 -1.152017	 0.410903
H	 -3.905698	 0.375695	 1.036898
C	 -0.677594	 -0.417312	 -0.014550
H	 -1.637766	 1.358238	 0.744969
H	 -1.659588	 0.017670	 1.857098
C	 0.730975	 0.083679	 0.311212
H	 -0.881901	 -0.275212	 -1.071326
H	 -0.729330	 -1.489988	 0.164566
C	 1.815430	 -0.620176	 -0.508928
H	 0.773141	 1.156631	 0.139701
H	 0.931685	 -0.064094	 1.371628
C	 3.251209	 -0.215612	 -0.155343
H	 1.641717	 -0.435982	 -1.567981
H	 1.715415	 -1.694463	 -0.368494
C	 3.599382	 1.239053	 -0.476481
H	 3.934991	 -0.864803	 -0.696898
H	 3.428028	 -0.404342	 0.901690
H	 3.420294	 1.460498	 -1.525303
H	 4.646760	 1.438949	 -0.271839
H	 3.014482	 1.936845	 0.113555

	symmetry c1
}
set optking {
	frozen_dihedral = ("
		20 16 13 17,
		17 13 10 7,
		13 10 7 11,
		1 2 3 5,
		7 4 3 2
	")
}

ee = energy('scf')
oeprop('DIPOLE', 'QUADRUPOLE', 'MULLIKEN_CHARGES')
f=open( 'psi4out.xyz', 'w' )
f.write( "24  " )
f.write( str(ee) + "\n" )
f.write( MOL.save_string_xyz() )
f.close()
--------------------------------------------------------------------------

    Molecular point group: c1

    Geometry (in Angstrom), charge = 0, multiplicity = 1:

       Center              X                  Y                   Z               Mass
    ------------   -----------------  -----------------  -----------------  -----------------
           H         -3.403956980316     1.138215532492    -0.946567470928     1.007825032070
           O         -3.435300980316     0.194692532492    -0.867868470928    15.994914619560
           C         -3.164378980316    -0.169081467508     0.461827529072    12.000000000000
           C         -1.749217980316     0.187917532492     0.902844529072    12.000000000000
           H         -3.311084980316    -1.241172467508     0.508611529072     1.007825032070
           H         -3.888991980316     0.286539532492     1.134606529072     1.007825032070
           C         -0.660887980316    -0.506467467508     0.083158529072    12.000000000000
           H         -1.621059980316     1.269082532492     0.842677529072     1.007825032070
           H         -1.642881980316    -0.071485467508     1.954806529072     1.007825032070
           C          0.747681019684    -0.005476467508     0.408920529072    12.000000000000
           H         -0.865194980316    -0.364367467508    -0.973617470928     1.007825032070
           H         -0.712623980316    -1.579143467508     0.262274529072     1.007825032070
           C          1.832136019684    -0.709331467508    -0.411219470928    12.000000000000
           H          0.789847019684     1.067475532492     0.237409529072     1.007825032070
           H          0.948391019684    -0.153249467508     1.469336529072     1.007825032070
           C          3.267915019684    -0.304767467508    -0.057634470928    12.000000000000
           H          1.658423019684    -0.525137467508    -1.470272470928     1.007825032070
           H          1.732121019684    -1.783618467508    -0.270785470928     1.007825032070
           C          3.616088019684     1.149897532492    -0.378772470928    12.000000000000
           H          3.951697019684    -0.953958467508    -0.599189470928     1.007825032070
           H          3.444734019684    -0.493497467508     0.999398529072     1.007825032070
           H          3.437000019684     1.371342532492    -1.427594470928     1.007825032070
           H          4.663466019684     1.349793532492    -0.174130470928     1.007825032070
           H          3.031188019684     1.847689532492     0.211263529072     1.007825032070

  Charge       = 0
  Multiplicity = 1
  Basis Set: 6-31G*
  Basis Set:

    Orbital Energies (a.u.)
    -----------------------

    Doubly Occupied:

       1A    -20.553764     2A    -11.267760     3A    -11.217382
       4A    -11.214032     5A    -11.212404     6A    -11.211521
       7A    -11.210803     8A    -11.207332     9A     -1.360344
      10A     -1.088460    11A     -1.048247    12A     -0.985624
      13A     -0.914973    14A     -0.850383    15A     -0.800783
      16A     -0.776202    17A     -0.679249    18A     -0.653608
      19A     -0.624645    20A     -0.620532    21A     -0.596240
      22A     -0.585058    23A     -0.558216    24A     -0.539883
      25A     -0.514069    26A     -0.511047    27A     -0.498804
      28A     -0.472034    29A     -0.467285    30A     -0.459162
      31A     -0.455275    32A     -0.451181    33A     -0.419274

  @DF-RHF Final Energy:  -349.24748372063391

   => Energetics <=

    Nuclear Repulsion Energy =            384.7826590674507088
    One-Electron Energy =               -1236.0092795849068352
    Two-Electron Energy =                 501.9791367968218765
    DFT Exchange-Correlation Energy =       0.0000000000000000
    Empirical Dispersion Energy =           0.0000000000000000
    PCM Polarization Energy =               0.0000000000000000
    EFP Energy =                            0.0000000000000000
    Total Energy =                       -349.2474837206342499

  Mulliken Charges: (a.u.)
   Center  Symbol    Alpha    Beta     Spin     Total
       1     H     0.28336  0.28336  0.00000  0.43329
       2     O     4.36813  4.36813  0.00000 -0.73627
       3     C     2.99630  2.99630  0.00000  0.00741
       4     C     3.16887  3.16887  0.00000 -0.33774
       5     H     0.41637  0.41637  0.00000  0.16726
       6     H     0.42811  0.42811  0.00000  0.14379
       7     C     3.15347  3.15347  0.00000 -0.30694
       8     H     0.42846  0.42846  0.00000  0.14307
       9     H     0.42211  0.42211  0.00000  0.15579
      10     C     3.15357  3.15357  0.00000 -0.30715
      11     H     0.41048  0.41048  0.00000  0.17903
      12     H     0.42368  0.42368  0.00000  0.15264
      13     C     3.15229  3.15229  0.00000 -0.30459
      14     H     0.42298  0.42298  0.00000  0.15404
      15     H     0.42550  0.42550  0.00000  0.14899
      16     C     3.15230  3.15230  0.00000 -0.30460
      17     H     0.42350  0.42350  0.00000  0.15301
      18     H     0.42218  0.42218  0.00000  0.15565
      19     C     3.24103  3.24103  0.00000 -0.48205
      20     H     0.42109  0.42109  0.00000  0.15783
      21     H     0.42380  0.42380  0.00000  0.15240
      22     H     0.42225  0.42225  0.00000  0.15551
      23     H     0.41955  0.41955  0.00000  0.16090
      24     H     0.42064  0.42064  0.00000  0.15873

   Total alpha = 33.00000, Total beta = 33.00000, Total charge =  0.00000
