                              Psi4 1.0.54 Driver

  ==> Input File <==

--------------------------------------------------------------------------
set {
	reference rhf
	basis cc-pvtz
}

set_num_threads( 4 )
memory 2 gb

molecule MOL {
0 1

H	 1.849354	 -3.046810	 -1.488935
O	 2.645309	 -2.699822	 -1.846546
C	 2.383276	 -2.021339	 -3.046659
C	 1.676987	 -0.688517	 -2.848097
H	 3.347170	 -1.854790	 -3.508342
H	 1.807681	 -2.652174	 -3.721335
C	 0.264264	 -0.805762	 -2.280368
H	 2.284024	 -0.070058	 -2.193749
H	 1.636995	 -0.184908	 -3.810997
C	 -0.425041	 0.549167	 -2.125897
H	 0.305151	 -1.302297	 -1.316633
H	 -0.334888	 -1.438293	 -2.933214
C	 -1.870900	 0.485953	 -1.630165
H	 0.158446	 1.171665	 -1.451903
H	 -0.413924	 1.053575	 -3.088143
C	 -2.041121	 -0.006551	 -0.194127
H	 -2.301506	 1.480506	 -1.707434
H	 -2.451623	 -0.146136	 -2.298282
C	 -3.489218	 0.042606	 0.286507
H	 -1.424448	 0.598393	 0.467102
H	 -1.676498	 -1.025228	 -0.102741
C	 -4.219984	 1.311773	 -0.139038
H	 -4.022855	 -0.824300	 -0.093339
H	 -3.510372	 -0.038577	 1.370031
H	 -4.244251	 1.405725	 -1.219696
H	 -5.244345	 1.313233	 0.215630
H	 -3.732090	 2.196311	 0.257073

	symmetry c1
}
set optking {
	frozen_dihedral = ("
		20 16 19 22
	")
}

ee,wfn = optimize('scf', return_wfn=True)
oeprop( wfn, 'DIPOLE', 'QUADRUPOLE', 'MULLIKEN_CHARGES')
f=open( 'psi4out.xyz', 'w' )
f.write( "27  " )
f.write( str(ee) + "\n" )
f.write( MOL.save_string_xyz() )
f.close()
--------------------------------------------------------------------------

    Molecular point group: c1
  Charge       = 0
  Multiplicity = 1
  Basis Set: CC-PVTZ
  Basis Set:
  @DF-RHF Final Energy:  -388.42156598247846
    Total Energy =                       -388.4215659824780005
    Molecular point group: c1
  Basis Set: CC-PVTZ
  Basis Set:
  Basis Set: CC-PVTZ
  Basis Set:
  @DF-RHF Final Energy:  -388.26131453225582
    Total Energy =                       -388.2613145322552555
  Basis Set: CC-PVTZ
  Basis Set:
  Basis Set: CC-PVTZ
  Basis Set:
  @DF-RHF Final Energy:  -388.37499973897462
    Total Energy =                       -388.3749997389743385
  Basis Set: CC-PVTZ
  Basis Set:
  Basis Set: CC-PVTZ
  Basis Set:
  @DF-RHF Final Energy:  -388.42101702005277
    Total Energy =                       -388.4210170200530001
  Basis Set: CC-PVTZ
  Basis Set:
  @DF-RHF Final Energy:  -388.42373659991853
    Total Energy =                       -388.4237365999184703
  @DF-RHF Final Energy:  -388.42400877946812
    Total Energy =                       -388.4240087794680676
  Basis Set: CC-PVTZ
  Basis Set:
  @DF-RHF Final Energy:  -388.42403088485514
    Total Energy =                       -388.4240308848551422
  Basis Set: CC-PVTZ
  Basis Set:
  Basis Set: CC-PVTZ
  Basis Set:
  @DF-RHF Final Energy:  -388.42402893583318
    Total Energy =                       -388.4240289358335758
  Basis Set: CC-PVTZ
  Basis Set:
  Basis Set: CC-PVTZ
  Basis Set:
  @DF-RHF Final Energy:  -388.42403555943315
    Total Energy =                       -388.4240355594325820
  Basis Set: CC-PVTZ
  Basis Set:
  Charge       = 0
  Multiplicity = 1
  Basis Set: CC-PVTZ
  Basis Set:

    Orbital Energies (a.u.)
    -----------------------

    Doubly Occupied:

       1A    -20.545372     2A    -11.265009     3A    -11.216670
       4A    -11.214779     5A    -11.214518     6A    -11.213239
       7A    -11.213083     8A    -11.211969     9A    -11.206551
      10A     -1.363257    11A     -1.095734    12A     -1.061266
      13A     -1.010197    14A     -0.947278    15A     -0.895507
      16A     -0.830056    17A     -0.797903    18A     -0.767699
      19A     -0.696342    20A     -0.646953    21A     -0.636102
      22A     -0.617017    23A     -0.609412    24A     -0.589138
      25A     -0.580534    26A     -0.555075    27A     -0.538575
      28A     -0.528185    29A     -0.506650    30A     -0.501181
      31A     -0.485798    32A     -0.475362    33A     -0.468604
      34A     -0.454448    35A     -0.449329    36A     -0.442579
      37A     -0.426043

  @DF-RHF Final Energy:  -388.42403618695363

   => Energetics <=

    Nuclear Repulsion Energy =            462.4803634920666013
    One-Electron Energy =               -1443.2539782701433069
    Two-Electron Energy =                 592.3495785911234179
    DFT Exchange-Correlation Energy =       0.0000000000000000
    Empirical Dispersion Energy =           0.0000000000000000
    PCM Polarization Energy =               0.0000000000000000
    EFP Energy =                            0.0000000000000000
    Total Energy =                       -388.4240361869533444
    Molecular point group: c1
  Basis Set: CC-PVTZ
  Basis Set:

  -Total Gradient:
     Atom            X                  Y                   Z
    ------   -----------------  -----------------  -----------------
       1        0.000013351331     0.000006640423    -0.000018253499
       2       -0.000009170917    -0.000011858302     0.000040237742
       3        0.000034217683     0.000028122881    -0.000030497903
       4       -0.000006592542    -0.000023156785     0.000004200942
       5        0.000006576502    -0.000011632218     0.000004113555
       6       -0.000009920913    -0.000010277522     0.000000720808
       7        0.000002159462     0.000033969540     0.000004039124
       8        0.000016079349     0.000014953586     0.000002103256
       9       -0.000009606091     0.000003115960    -0.000012513405
      10       -0.000008078182    -0.000035398264    -0.000012527143
      11        0.000004206464    -0.000007313852     0.000012688811
      12       -0.000021323542    -0.000009191577    -0.000009896133
      13        0.000019658055     0.000028926906     0.000029249634
      14        0.000009000047     0.000013755407     0.000003388451
      15        0.000009561143    -0.000002054891    -0.000017881487
      16       -0.003977700074     0.001647296403    -0.004444259489
      17       -0.000031977064     0.000015395105     0.000021093490
      18        0.000001252860    -0.000015593381     0.000004830066
      19        0.001658139445     0.003095313395     0.003885699057
      20        0.002959890912    -0.002196449487     0.002772652418
      21        0.000031067546    -0.000018321601    -0.000009637568
      22       -0.000678429379    -0.002535952564    -0.002230430215
      23       -0.000024599688    -0.000022783443    -0.000009129088
      24        0.000006800273     0.000011414277     0.000048688917
      25       -0.000017474393    -0.000016720419    -0.000052325949
      26       -0.000000005885    -0.000005899129     0.000009786069
      27        0.000022917599     0.000023699545     0.000003859540

  **** Optimization is complete! (in 10 steps) ****
    Final optimized geometry and variables:
    Molecular point group: c1

    Geometry (in Angstrom), charge = 0, multiplicity = 1:

    H            3.114027460853    -1.581369017280    -0.160957835296
    O            3.653216762731    -1.092536679702    -0.754126372395
    C            2.956000544222    -0.834656400026    -1.944362170108
    C            1.863877804366     0.213573327767    -1.792467106501
    H            3.696786677143    -0.485819907886    -2.651111417989
    H            2.536680759962    -1.755393102740    -2.345363345992
    C            0.716240546372    -0.204493965034    -0.875855421623
    H            2.313695300612     1.129354727559    -1.420861453816
    H            1.471937413953     0.433509599020    -2.782629590913
    C           -0.381181292754     0.854848218883    -0.783024372189
    H            1.106683308062    -0.411852691420     0.114630274330
    H            0.283349564624    -1.133614257329    -1.242509826725
    C           -1.594447177295     0.463733031134     0.064764852388
    H            0.044007727253     1.777697263983    -0.395901373619
    H           -0.724966355179     1.080256610134    -1.788664634436
    C           -1.314591538313     0.369864201414     1.562762900337
    H           -2.374317539508     1.196527265139    -0.108676004573
    H           -1.987526486599    -0.486986717601    -0.290298701049
    C           -2.489033837958    -0.099728848768     2.431945236287
    H           -0.947298906907     1.323846120206     1.934805308833
    H           -0.496944683855    -0.323928666834     1.731400500042
    C           -3.839814879636     0.543742945832     2.127085144831
    H           -2.595804695339    -1.175925660149     2.321122794677
    H           -2.234777819218     0.070223768885     3.473016761878
    H           -4.196527890763     0.280283972701     1.139366794441
    H           -4.585488973487     0.214824793330     2.841896315487
    H           -3.787731798442     1.626889670886     2.182763907820

  Mulliken Charges: (a.u.)
   Center  Symbol    Alpha    Beta     Spin     Total
       1     H     0.39228  0.39228  0.00000  0.21544
       2     O     4.20551  4.20551  0.00000 -0.41102
       3     C     2.98002  2.98002  0.00000  0.03995
       4     C     3.08931  3.08931  0.00000 -0.17861
       5     H     0.44856  0.44856  0.00000  0.10287
       6     H     0.46963  0.46963  0.00000  0.06074
       7     C     3.10201  3.10201  0.00000 -0.20402
       8     H     0.45073  0.45073  0.00000  0.09854
       9     H     0.45533  0.45533  0.00000  0.08933
      10     C     3.09866  3.09866  0.00000 -0.19732
      11     H     0.45588  0.45588  0.00000  0.08825
      12     H     0.45406  0.45406  0.00000  0.09188
      13     C     3.10162  3.10162  0.00000 -0.20324
      14     H     0.45169  0.45169  0.00000  0.09662
      15     H     0.44789  0.44789  0.00000  0.10422
      16     C     3.09654  3.09654  0.00000 -0.19307
      17     H     0.44360  0.44360  0.00000  0.11279
      18     H     0.45335  0.45335  0.00000  0.09330
      19     C     3.08742  3.08742  0.00000 -0.17484
      20     H     0.45189  0.45189  0.00000  0.09621
      21     H     0.45176  0.45176  0.00000  0.09648
      22     C     3.15682  3.15682  0.00000 -0.31363
      23     H     0.45489  0.45489  0.00000  0.09022
      24     H     0.44883  0.44883  0.00000  0.10233
      25     H     0.45208  0.45208  0.00000  0.09584
      26     H     0.44552  0.44552  0.00000  0.10897
      27     H     0.45412  0.45412  0.00000  0.09175

   Total alpha = 37.00000, Total beta = 37.00000, Total charge =  0.00000

*** Psi4 exiting successfully. Buy a developer a beer!
