  ==> Input File <==

--------------------------------------------------------------------------
set {
	reference rhf
	basis cc-pvtz
}

set_num_threads( 4 )
memory 2 gb

molecule MOL {
0 1

O	 0.692679	 2.132372	 -0.114858
C	 -0.398899	 2.529215	 -0.342968
C	 -1.653310	 1.693832	 -0.335754
O	 -0.663315	 3.790773	 -0.641184
C	 -1.413045	 0.229353	 0.001137
H	 -2.339557	 2.151821	 0.369081
H	 -2.116272	 1.801926	 -1.311173
C	 -2.702562	 -0.586401	 0.000228
H	 -0.934618	 0.158926	 0.971543
H	 -0.711696	 -0.191512	 -0.710571
C	 -3.953810	 0.284959	 -0.000782
H	 -2.717793	 -1.238567	 -0.869075
H	 -2.719108	 -1.238472	 0.869576
H	 -3.983727	 0.924403	 -0.876454
H	 -4.852989	 -0.320147	 -0.001515
H	 -3.985140	 0.924399	 0.874841
C	 0.426407	 4.689679	 -0.683533
H	 0.917026	 4.739726	 0.277204
H	 0.009926	 5.650440	 -0.939170
H	 1.144189	 4.383899	 -1.430200

	symmetry c1
}
set optking {
	frozen_dihedral = ("
		9 5 8 12
	")
}

ee = optimize('scf')
oeprop('DIPOLE', 'QUADRUPOLE', 'MULLIKEN_CHARGES')
f=open( 'psi4out.xyz', 'w' )
f.write( "20  " )
f.write( str(ee) + "\n" )
f.write( MOL.save_string_xyz() )
f.close()
--------------------------------------------------------------------------

    Molecular point group: c1
  Charge       = 0
  Multiplicity = 1
  Basis Set: CC-PVTZ
  Basis Set:
  @DF-RHF Final Energy:  -384.06981273500526
    Total Energy =                       -384.0698127350054847
    Molecular point group: c1
  Basis Set: CC-PVTZ
  Basis Set:
  Basis Set: CC-PVTZ
  Basis Set:
  @DF-RHF Final Energy:  -384.07081425080349
    Total Energy =                       -384.0708142508040055
  Basis Set: CC-PVTZ
  Basis Set:
  Basis Set: CC-PVTZ
  Basis Set:
  @DF-RHF Final Energy:  -384.07405816636043
    Total Energy =                       -384.0740581663608282
  Basis Set: CC-PVTZ
  Basis Set:
  Basis Set: CC-PVTZ
  Basis Set:
  @DF-RHF Final Energy:  -384.07452250180984
    Total Energy =                       -384.0745225018100655
  Basis Set: CC-PVTZ
  Basis Set:
  @DF-RHF Final Energy:  -384.07430947405919
    Total Energy =                       -384.0743094740591914
  Basis Set: CC-PVTZ
  Basis Set:
  @DF-RHF Final Energy:  -384.07418459416994
    Total Energy =                       -384.0741845941699921
  Basis Set: CC-PVTZ
  Basis Set:
  Basis Set: CC-PVTZ
  Basis Set:
  @DF-RHF Final Energy:  -384.07459441250802
    Total Energy =                       -384.0745944125078495
  Basis Set: CC-PVTZ
  Basis Set:
  Basis Set: CC-PVTZ
  Basis Set:
  @DF-RHF Final Energy:  -384.07459559595276
    Total Energy =                       -384.0745955959534967
  Basis Set: CC-PVTZ
  Basis Set:
  Charge       = 0
  Multiplicity = 1
  Basis Set: CC-PVTZ
  Basis Set:

    Orbital Energies (a.u.)
    -----------------------

    Doubly Occupied:

       1A    -20.596091     2A    -20.534064     3A    -11.364490
       4A    -11.278355     5A    -11.233672     6A    -11.218436
       7A    -11.217151     8A    -11.211877     9A     -1.472077
      10A     -1.365686    11A     -1.086706    12A     -1.022599
      13A     -0.968595    14A     -0.899234    15A     -0.799504
      16A     -0.762740    17A     -0.703506    18A     -0.686201
      19A     -0.674963    20A     -0.641326    21A     -0.607343
      22A     -0.591620    23A     -0.568349    24A     -0.549107
      25A     -0.541731    26A     -0.523768    27A     -0.514943
      28A     -0.475095    29A     -0.473123    30A     -0.462748
      31A     -0.452205    32A     -0.441141

  @DF-RHF Final Energy:  -384.07459621699883

   => Energetics <=

    Nuclear Repulsion Energy =            385.8676418926897327
    One-Electron Energy =               -1288.0075799577030011
    Two-Electron Energy =                 518.0653418480143273
    DFT Exchange-Correlation Energy =       0.0000000000000000
    Empirical Dispersion Energy =           0.0000000000000000
    PCM Polarization Energy =               0.0000000000000000
    EFP Energy =                            0.0000000000000000
    Total Energy =                       -384.0745962169988843
    Molecular point group: c1
  Basis Set: CC-PVTZ
  Basis Set:

  -Total Gradient:
     Atom            X                  Y                   Z
    ------   -----------------  -----------------  -----------------
       1       -0.000008274923     0.000022568298     0.000017713582
       2        0.000008715411    -0.000026882237    -0.000050303999
       3        0.000019022480     0.000006913937    -0.000011840165
       4        0.000006335761    -0.000012095936     0.000014035708
       5       -0.003091389693     0.004290214692     0.002824030556
       6        0.000002751636    -0.000009181613     0.000004176921
       7       -0.000002378105     0.000010585478     0.000003001991
       8       -0.002468917438     0.003667827713    -0.003873043390
       9        0.003001322041    -0.004156928528    -0.001736551955
      10       -0.000010668227     0.000020698340     0.000005239404
      11       -0.000004227608    -0.000012589610     0.000018632407
      12        0.002556356257    -0.003818937607     0.002797316356
      13       -0.000014365408     0.000015480513    -0.000012317767
      14        0.000011164717     0.000001242262    -0.000002891673
      15        0.000004076612    -0.000004420568    -0.000003042057
      16       -0.000012407597    -0.000004850053     0.000004367492
      17       -0.000001677966     0.000006544089     0.000001016990
      18        0.000001129586     0.000000896558    -0.000000433610
      19        0.000004114578     0.000003332215     0.000000261949
      20       -0.000000682114    -0.000000417945     0.000000631260

  **** Optimization is complete! (in 9 steps) ****
    Final optimized geometry and variables:
    Molecular point group: c1

    Geometry (in Angstrom), charge = 0, multiplicity = 1:

    O            1.884599439022     0.246613376169     0.201574486858
    C            0.815491727093     0.672701979415    -0.074609501969
    C           -0.468060508041    -0.118358885257    -0.098515971932
    O            0.603954214238     1.936091046469    -0.406900483038
    C           -0.274176572317    -1.580479037340     0.278728254591
    H           -1.160692142311     0.386800531396     0.563634597208
    H           -0.882646053628    -0.015336315103    -1.095460414151
    C           -1.539391651317    -2.469444810227     0.231757594014
    H            0.191398904895    -1.651761649975     1.253523688424
    H            0.463115983663    -2.001454852541    -0.394110578488
    C           -2.892498174526    -1.769262963551     0.322802329319
    H           -1.504590725947    -3.095457619485    -0.653484189379
    H           -1.473601953044    -3.171721989205     1.056544108344
    H           -3.066884866011    -1.100667777583    -0.511766174487
    H           -3.690716466186    -2.502223290319     0.323827315578
    H           -2.981887066149    -1.190653252035     1.235968811644
    C            1.723559539700     2.798097271859    -0.426285064072
    H            2.180169159096     2.852336345575     0.550863353557
    H            1.348838141134     3.766351624467    -0.716084809664
    H            2.457738915359     2.453812435906    -1.139524139660

  Mulliken Charges: (a.u.)
   Center  Symbol    Alpha    Beta     Spin     Total
       1     O     4.19655  4.19655  0.00000 -0.39309
       2     C     2.81116  2.81116  0.00000  0.37769
       3     C     3.09838  3.09838  0.00000 -0.19676
       4     O     4.14643  4.14643  0.00000 -0.29287
       5     C     3.09206  3.09206  0.00000 -0.18412
       6     H     0.43765  0.43765  0.00000  0.12470
       7     H     0.43869  0.43869  0.00000  0.12261
       8     C     3.08996  3.08996  0.00000 -0.17992
       9     H     0.44383  0.44383  0.00000  0.11234
      10     H     0.44439  0.44439  0.00000  0.11122
      11     C     3.15858  3.15858  0.00000 -0.31716
      12     H     0.45042  0.45042  0.00000  0.09915
      13     H     0.45016  0.45016  0.00000  0.09967
      14     H     0.45343  0.45343  0.00000  0.09314
      15     H     0.44317  0.44317  0.00000  0.11366
      16     H     0.45301  0.45301  0.00000  0.09399
      17     C     3.03824  3.03824  0.00000 -0.07647
      18     H     0.45437  0.45437  0.00000  0.09127
      19     H     0.44521  0.44521  0.00000  0.10959
      20     H     0.45432  0.45432  0.00000  0.09136

   Total alpha = 32.00000, Total beta = 32.00000, Total charge = -0.00000
