                              Psi4 1.0.54 Driver

  ==> Input File <==

--------------------------------------------------------------------------
set {
	reference rhf
	basis cc-pvtz
}

set_num_threads( 4 )
memory 2 gb

molecule MOL {
0 1

H	 -3.294565	 0.569785	 0.000000
C	 -2.246225	 0.343737	 0.000000
C	 -1.809462	 -0.973484	 0.000000
C	 -1.312577	 1.353775	 0.000000
H	 -2.523539	 -1.775124	 0.000000
C	 -0.467257	 -1.267606	 0.000000
H	 -1.631287	 2.379013	 0.000000
C	 0.046966	 1.074396	 0.000000
H	 -0.119372	 -2.281828	 0.000000
C	 0.471772	 -0.241514	 0.000000
H	 0.748162	 1.882966	 0.000000
O	 1.760432	 -0.625184	 0.000000
C	 2.206709	 -1.569059	 0.926335
H	 2.079491	 -1.218256	 1.944402
H	 3.258034	 -1.712525	 0.732682
H	 1.692957	 -2.516533	 0.807760

	symmetry c1
}
set optking {
	frozen_dihedral = ("
		13 12 10 8
	")
}

ee,wfn = optimize('scf', return_wfn=True)
oeprop( wfn, 'DIPOLE', 'QUADRUPOLE', 'MULLIKEN_CHARGES')
f=open( 'psi4out.xyz', 'w' )
f.write( "16  " )
f.write( str(ee) + "\n" )
f.write( MOL.save_string_xyz() )
f.close()
--------------------------------------------------------------------------

    Molecular point group: c1
  Charge       = 0
  Multiplicity = 1
  Basis Set: CC-PVTZ
  Basis Set:
  @DF-RHF Final Energy:  -344.69619778261296
    Total Energy =                       -344.6961977826129555
    Molecular point group: c1
  Basis Set: CC-PVTZ
  Basis Set:
  Basis Set: CC-PVTZ
  Basis Set:
  @DF-RHF Final Energy:  -344.69915877157337
    Total Energy =                       -344.6991587715732521
  Basis Set: CC-PVTZ
  Basis Set:
  Basis Set: CC-PVTZ
  Basis Set:
  @DF-RHF Final Energy:  -344.70100706899262
    Total Energy =                       -344.7010070689930217
  Basis Set: CC-PVTZ
  Basis Set:
  Basis Set: CC-PVTZ
  Basis Set:
  @DF-RHF Final Energy:  -344.70113689220767
    Total Energy =                       -344.7011368922073871
  Basis Set: CC-PVTZ
  Basis Set:
  Basis Set: CC-PVTZ
  Basis Set:
  @DF-RHF Final Energy:  -344.70116451608305
    Total Energy =                       -344.7011645160827698
  Basis Set: CC-PVTZ
  Basis Set:
  Charge       = 0
  Multiplicity = 1
  Basis Set: CC-PVTZ
  Basis Set:

    Orbital Energies (a.u.)
    -----------------------

    Doubly Occupied:

       1A    -20.570982     2A    -11.288645     3A    -11.275690
       4A    -11.232102     5A    -11.230902     6A    -11.224157
       7A    -11.221389     8A    -11.220754     9A     -1.409390
      10A     -1.152283    11A     -1.022927    12A     -1.018119
      13A     -0.938830    14A     -0.837198    15A     -0.809617
      16A     -0.720986    17A     -0.669326    18A     -0.666903
      19A     -0.648043    20A     -0.617243    21A     -0.595667
      22A     -0.585219    23A     -0.532003    24A     -0.514624
      25A     -0.508999    26A     -0.486414    27A     -0.449484
      28A     -0.340113    29A     -0.319074

  @DF-RHF Final Energy:  -344.70116791119574

   => Energetics <=

    Nuclear Repulsion Energy =            348.6545011192748689
    One-Electron Energy =               -1158.4971728323382649
    Two-Electron Energy =                 465.1415038018676569
    DFT Exchange-Correlation Energy =       0.0000000000000000
    Empirical Dispersion Energy =           0.0000000000000000
    PCM Polarization Energy =               0.0000000000000000
    EFP Energy =                            0.0000000000000000
    Total Energy =                       -344.7011679111957392
    Molecular point group: c1
  Basis Set: CC-PVTZ
  Basis Set:

  -Total Gradient:
     Atom            X                  Y                   Z
    ------   -----------------  -----------------  -----------------
       1       -0.000024741555    -0.000045900765    -0.000009931379
       2        0.000076719586     0.000181329365    -0.000047572109
       3        0.000093026776    -0.000140784746     0.000072127198
       4       -0.000136982663    -0.000075992802     0.000048481718
       5       -0.000045201696     0.000006137571    -0.000014655503
       6       -0.000100913111    -0.000084874658    -0.000005097433
       7        0.000031484887     0.000003310607    -0.000006427026
       8        0.000051541484    -0.000176565374     0.000910116856
       9       -0.000007939980    -0.000003683595    -0.000001513899
      10        0.000009421053     0.000680043641    -0.001077535711
      11        0.000049775829     0.000007835867    -0.000009374813
      12       -0.000068656809    -0.001068677501    -0.000454000518
      13        0.000097497580     0.000753540709     0.000691679318
      14        0.000054878043    -0.000049236085    -0.000078401428
      15       -0.000064183504    -0.000008546860     0.000014197340
      16       -0.000015725918     0.000022064622    -0.000032092611

  **** Optimization is complete! (in 6 steps) ****
    Final optimized geometry and variables:
    Molecular point group: c1

    Geometry (in Angstrom), charge = 0, multiplicity = 1:

    H           -3.191193553693     0.927980942079    -0.261716632575
    C           -2.153176323917     0.661475166532    -0.215043375074
    C           -1.770049044628    -0.664010241860    -0.275732619228
    C           -1.183709847920     1.640018768436    -0.095963574062
    H           -2.512899944919    -1.432831000006    -0.373678137042
    C           -0.434284533298    -1.016393155499    -0.220680436215
    H           -1.467259536038     2.674232687874    -0.047634109880
    C            0.152391824765     1.298837820441    -0.031519057664
    H           -0.148795690386    -2.047620552457    -0.284713389949
    C            0.529718527246    -0.030675249123    -0.097364728715
    H            0.913686072561     2.048330979994     0.061458743625
    O            1.854983121064    -0.308746891706    -0.070531662863
    C            2.308350523136    -1.276014491386     0.836402125894
    H            1.940217773251    -1.074452378405     1.835999089515
    H            3.386192761188    -1.221204892860     0.834796122300
    H            2.011572792131    -2.276125724037     0.544388998330

  Mulliken Charges: (a.u.)
   Center  Symbol    Alpha    Beta     Spin     Total
       1     H     0.42386  0.42386  0.00000  0.15228
       2     C     3.09266  3.09266  0.00000 -0.18533
       3     C     3.06464  3.06464  0.00000 -0.12927
       4     C     3.06304  3.06304  0.00000 -0.12609
       5     H     0.42251  0.42251  0.00000  0.15498
       6     C     3.11870  3.11870  0.00000 -0.23740
       7     H     0.42239  0.42239  0.00000  0.15522
       8     C     3.11243  3.11243  0.00000 -0.22485
       9     H     0.42342  0.42342  0.00000  0.15316
      10     C     2.85897  2.85897  0.00000  0.28206
      11     H     0.41820  0.41820  0.00000  0.16360
      12     O     4.16968  4.16968  0.00000 -0.33937
      13     C     3.04027  3.04027  0.00000 -0.08053
      14     H     0.46310  0.46310  0.00000  0.07380
      15     H     0.44289  0.44289  0.00000  0.11422
      16     H     0.46325  0.46325  0.00000  0.07351

   Total alpha = 29.00000, Total beta = 29.00000, Total charge =  0.00000

*** Psi4 exiting successfully. Buy a developer a beer!
