  ==> Input File <==

--------------------------------------------------------------------------
set {
	reference rhf
	basis 6-31G*
}

set_num_threads( 4 )
memory 2 gb

molecule MOL {
0 1

O	 3.225979	 0.970355	 -0.599647
C	 2.701189	 0.057885	 -0.047330
C	 1.245376	 -0.013843	 0.345420
O	 3.347903	 -1.046386	 0.304773
C	 0.455112	 1.231400	 -0.050772
H	 0.838542	 -0.913825	 -0.103701
H	 1.208210	 -0.175333	 1.419774
C	 -0.998893	 1.219485	 0.433193
H	 0.482531	 1.345121	 -1.130325
H	 0.957290	 2.103070	 0.354729
C	 -1.883438	 0.145884	 -0.207175
H	 -1.431207	 2.195402	 0.224832
H	 -1.019646	 1.105716	 1.516076
C	 -1.662024	 -1.243644	 0.393814
H	 -2.928946	 0.426385	 -0.088635
H	 -1.699375	 0.098559	 -1.278088
C	 -2.536920	 -2.325482	 -0.242043
H	 -1.857331	 -1.207918	 1.464241
H	 -0.614450	 -1.520210	 0.285187
C	 -2.312480	 -3.709379	 0.366362
H	 -3.584042	 -2.050204	 -0.135274
H	 -2.339953	 -2.365685	 -1.311327
H	 -2.946358	 -4.454201	 -0.104856
H	 -2.534914	 -3.710885	 1.429713
H	 -1.281087	 -4.028432	 0.245094
C	 4.728119	 -1.109107	 -0.004993
H	 4.882018	 -1.033965	 -1.071845
H	 5.068212	 -2.067527	 0.355250
H	 5.265056	 -0.311663	 0.488280

	symmetry c1
}
set optking {
	frozen_dihedral = ("
		15 11 8 5
	")
}

ee = optimize('scf')
oeprop('DIPOLE', 'QUADRUPOLE', 'MULLIKEN_CHARGES')
f=open( 'psi4out.xyz', 'w' )
f.write( "29  " )
f.write( str(ee) + "\n" )
f.write( MOL.save_string_xyz() )
f.close()
--------------------------------------------------------------------------

    Molecular point group: c1
  Charge       = 0
  Multiplicity = 1
  Basis Set: 6-31G*
  Basis Set:
  @DF-RHF Final Energy:  -501.03256871771225
    Total Energy =                       -501.0325687177121381
    Molecular point group: c1
  Basis Set: 6-31G*
  Basis Set:
  Basis Set: 6-31G*
  Basis Set:
  @DF-RHF Final Energy:  -501.03825353838897
    Total Energy =                       -501.0382535383898812
  Basis Set: 6-31G*
  Basis Set:
  Basis Set: 6-31G*
  Basis Set:
  @DF-RHF Final Energy:  -501.03896598954202
    Total Energy =                       -501.0389659895421346
  Basis Set: 6-31G*
  Basis Set:
  Basis Set: 6-31G*
  Basis Set:
  @DF-RHF Final Energy:  -501.03908699316628
    Total Energy =                       -501.0390869931665065
  Basis Set: 6-31G*
  Basis Set:
  @DF-RHF Final Energy:  -501.03853211503429
    Total Energy =                       -501.0385321150340587
  @DF-RHF Final Energy:  -501.03913555100644
    Total Energy =                       -501.0391355510066660
  Basis Set: 6-31G*
  Basis Set:
  @DF-RHF Final Energy:  -501.03914197641245
    Total Energy =                       -501.0391419764124521
  Basis Set: 6-31G*
  Basis Set:
  Basis Set: 6-31G*
  Basis Set:
  @DF-RHF Final Energy:  -501.03914689170131
    Total Energy =                       -501.0391468917013071
  Basis Set: 6-31G*
  Basis Set:
  Basis Set: 6-31G*
  Basis Set:
  @DF-RHF Final Energy:  -501.03914807611091
    Total Energy =                       -501.0391480761107914
  Basis Set: 6-31G*
  Basis Set:
  Charge       = 0
  Multiplicity = 1
  Basis Set: 6-31G*
  Basis Set:

    Orbital Energies (a.u.)
    -----------------------

    Doubly Occupied:

       1A    -20.603319     2A    -20.545170     3A    -11.371805
       4A    -11.280627     5A    -11.234170     6A    -11.219101
       7A    -11.218221     8A    -11.216526     9A    -11.216223
      10A    -11.215239    11A    -11.209824    12A     -1.469016
      13A     -1.362436    14A     -1.096218    15A     -1.065749
      16A     -1.019544    17A     -0.976584    18A     -0.932068
      19A     -0.863080    20A     -0.804897    21A     -0.783026
      22A     -0.764314    23A     -0.699259    24A     -0.682535
      25A     -0.671714    26A     -0.649973    27A     -0.626515
      28A     -0.606536    29A     -0.594650    30A     -0.577520
      31A     -0.566173    32A     -0.559916    33A     -0.536648
      34A     -0.526635    35A     -0.520191    36A     -0.501041
      37A     -0.496505    38A     -0.482411    39A     -0.471782
      40A     -0.462444    41A     -0.457471    42A     -0.455828
      43A     -0.437776    44A     -0.434166

  @DF-RHF Final Energy:  -501.03914882787547

   => Energetics <=

    Nuclear Repulsion Energy =            623.4265007461937103
    One-Electron Energy =               -1917.9616096633185407
    Two-Electron Energy =                 793.4959600892497065
    DFT Exchange-Correlation Energy =       0.0000000000000000
    Empirical Dispersion Energy =           0.0000000000000000
    PCM Polarization Energy =               0.0000000000000000
    EFP Energy =                            0.0000000000000000
    Total Energy =                       -501.0391488278752377
    Molecular point group: c1
  Basis Set: 6-31G*
  Basis Set:

  -Total Gradient:
     Atom            X                  Y                   Z
    ------   -----------------  -----------------  -----------------
       1        0.000044077376    -0.000005450541     0.000035667532
       2       -0.000041388948    -0.000065316705    -0.000086832763
       3       -0.000025834626     0.000021453921     0.000018914905
       4        0.000020511972     0.000057382237     0.000006617773
       5       -0.000039123914     0.000007096920    -0.000040177107
       6        0.000035037051     0.000028041824    -0.000001223593
       7       -0.000030146474     0.000001443464     0.000007907933
       8        0.000030759033    -0.000044762874     0.000054379931
       9        0.000017254967     0.000001777112     0.000005140656
      10        0.000012960850    -0.000007285964     0.000009828696
      11       -0.000016045642    -0.000012156601     0.000017642975
      12       -0.000005201390    -0.000014150713    -0.000009971225
      13       -0.000014646162     0.000004991244     0.000011074032
      14        0.000028759425     0.000013802257    -0.000005568934
      15       -0.000000891675     0.000007645324    -0.000029738082
      16        0.000003226535    -0.000005954368     0.000005767050
      17       -0.000010463451     0.000013080011     0.000004385669
      18       -0.000002138752     0.000007657878    -0.000002425413
      19       -0.000019603253     0.000002679611     0.000005594895
      20        0.000003899552     0.000005292867    -0.000000429293
      21       -0.000008417889    -0.000004787509    -0.000002357195
      22       -0.000000618619    -0.000002534997     0.000001899124
      23       -0.000001559880     0.000001446640    -0.000000435869
      24        0.000002207835     0.000002134144    -0.000002240924
      25        0.000000833609    -0.000001693157    -0.000001149090
      26        0.000006702436    -0.000016335442    -0.000002019359
      27        0.000001630949     0.000000784793     0.000000028962
      28        0.000009946664     0.000002400803    -0.000001508246
      29       -0.000001727577     0.000001317820     0.000001226964

  **** Optimization is complete! (in 10 steps) ****
    Final optimized geometry and variables:
    Molecular point group: c1

    Geometry (in Angstrom), charge = 0, multiplicity = 1:

    O            2.666151679999     1.618231762159    -0.714272085513
    C            2.236230632380     0.695065299614    -0.101046991620
    C            0.794451078724     0.498464246245     0.303822012646
    O            2.992694028918    -0.310901057685     0.320416540661
    C           -0.121654391408     1.612232038709    -0.200738055084
    H            0.497439992491    -0.478707518377    -0.056161203855
    H            0.771780979038     0.434877468889     1.388707534676
    C           -1.555879406786     1.593241266456     0.350129969520
    H           -0.146238258069     1.595078034943    -1.286518186106
    H            0.331891739995     2.559674733671     0.068406482558
    C           -2.532941847189     0.566034065583    -0.245178623119
    H           -1.974069946274     2.578360536119     0.161274403608
    H           -1.531190065595     1.485973452451     1.433674048817
    C           -2.413140116692    -0.873650691068     0.265100354467
    H           -3.541450581744     0.910658103903    -0.026436548626
    H           -2.444750598105     0.574936999025    -1.330330906153
    C           -3.546883905697    -1.771682671844    -0.235854500979
    H           -2.414376784834    -0.871043075321     1.354060420501
    H           -1.466541728559    -1.310261038790    -0.037991223729
    C           -3.430542545825    -3.213113919435     0.258467350817
    H           -4.501178919604    -1.357336606512     0.081962397904
    H           -3.558471308025    -1.763357415620    -1.323792214683
    H           -4.249723299809    -3.822758979947    -0.110083914986
    H           -3.447329889768    -3.257957540914     1.343822351664
    H           -2.502940974139    -3.669356063128    -0.075773988790
    C            4.373259589529    -0.250045730318     0.011822499379
    H            4.523027428073    -0.229097082396    -1.058055178233
    H            4.809508650933    -1.142370558596     0.433061456217
    H            4.822444546554     0.629335407150     0.450535765291

  Mulliken Charges: (a.u.)
   Center  Symbol    Alpha    Beta     Spin     Total
       1     O     4.28593  4.28593  0.00000 -0.57186
       2     C     2.60541  2.60541  0.00000  0.78917
       3     C     3.20975  3.20975  0.00000 -0.41950
       4     O     4.30742  4.30742  0.00000 -0.61485
       5     C     3.15410  3.15410  0.00000 -0.30820
       6     H     0.39833  0.39833  0.00000  0.20335
       7     H     0.40101  0.40101  0.00000  0.19798
       8     C     3.15909  3.15909  0.00000 -0.31818
       9     H     0.41418  0.41418  0.00000  0.17163
      10     H     0.40745  0.40745  0.00000  0.18510
      11     C     3.15351  3.15351  0.00000 -0.30703
      12     H     0.41697  0.41697  0.00000  0.16606
      13     H     0.42387  0.42387  0.00000  0.15226
      14     C     3.15324  3.15324  0.00000 -0.30648
      15     H     0.42124  0.42124  0.00000  0.15752
      16     H     0.42240  0.42240  0.00000  0.15520
      17     C     3.15159  3.15159  0.00000 -0.30319
      18     H     0.42416  0.42416  0.00000  0.15169
      19     H     0.42396  0.42396  0.00000  0.15208
      20     C     3.23935  3.23935  0.00000 -0.47869
      21     H     0.42259  0.42259  0.00000  0.15481
      22     H     0.42267  0.42267  0.00000  0.15466
      23     H     0.41894  0.41894  0.00000  0.16212
      24     H     0.42170  0.42170  0.00000  0.15660
      25     H     0.42200  0.42200  0.00000  0.15601
      26     C     3.09235  3.09235  0.00000 -0.18470
      27     H     0.40911  0.40911  0.00000  0.18179
      28     H     0.40852  0.40852  0.00000  0.18296
      29     H     0.40916  0.40916  0.00000  0.18169

   Total alpha = 44.00000, Total beta = 44.00000, Total charge = -0.00000
