  ==> Input File <==

--------------------------------------------------------------------------
set {
	reference rhf
	basis cc-pvtz
}

set_num_threads( 4 )
memory 2 gb

molecule MOL {
0 1

H	 3.459101	 0.139266	 -0.762951
C	 2.749156	 -0.051729	 0.031265
C	 1.322304	 0.099773	 -0.484271
H	 2.929445	 -1.053887	 0.403481
H	 2.954281	 0.646699	 0.834672
C	 0.308557	 -0.162619	 0.622645
H	 1.143368	 -0.594400	 -1.295960
H	 1.169532	 1.100095	 -0.870217
N	 -1.069352	 -0.004081	 0.085342
H	 0.371632	 -1.172932	 0.991288
H	 0.400391	 0.548875	 1.426218
O	 -1.657456	 -0.992721	 -0.199791
O	 -1.475760	 1.101258	 -0.048821

	symmetry c1
}
set optking {
	frozen_dihedral = ("
		12 9 6 3
	")
}

ee = optimize('scf')
oeprop('DIPOLE', 'QUADRUPOLE', 'MULLIKEN_CHARGES')
f=open( 'psi4out.xyz', 'w' )
f.write( "13  " )
f.write( str(ee) + "\n" )
f.write( MOL.save_string_xyz() )
f.close()
--------------------------------------------------------------------------

    Molecular point group: c1
  Charge       = 0
  Multiplicity = 1
  Basis Set: CC-PVTZ
  Basis Set:
  @DF-RHF Final Energy:  -321.86148170884007
    Total Energy =                       -321.8614817088400173
    Molecular point group: c1
  Basis Set: CC-PVTZ
  Basis Set:
  Basis Set: CC-PVTZ
  Basis Set:
  @DF-RHF Final Energy:  -321.86040092570647
    Total Energy =                       -321.8604009257067560
  Basis Set: CC-PVTZ
  Basis Set:
  Basis Set: CC-PVTZ
  Basis Set:
  @DF-RHF Final Energy:  -321.86149186219905
    Total Energy =                       -321.8614918621989318
  Basis Set: CC-PVTZ
  Basis Set:
  Basis Set: CC-PVTZ
  Basis Set:
  @DF-RHF Final Energy:  -321.86150232744183
    Total Energy =                       -321.8615023274419400
  Basis Set: CC-PVTZ
  Basis Set:
  Charge       = 0
  Multiplicity = 1
  Basis Set: CC-PVTZ
  Basis Set:

    Orbital Energies (a.u.)
    -----------------------

    Doubly Occupied:

       1A    -20.591375     2A    -20.589458     3A    -15.836983
       4A    -11.297325     5A    -11.253994     6A    -11.237169
       7A     -1.636031     8A     -1.420328     9A     -1.134231
      10A     -1.027884    11A     -0.884090    12A     -0.834232
      13A     -0.761703    14A     -0.738898    15A     -0.727711
      16A     -0.673092    17A     -0.604219    18A     -0.588186
      19A     -0.551468    20A     -0.520819    21A     -0.514482
      22A     -0.487022    23A     -0.475100    24A     -0.453003

  @DF-RHF Final Energy:  -321.86150242917040

   => Energetics <=

    Nuclear Repulsion Energy =            247.9907623037446172
    One-Electron Energy =                -930.0269221417731842
    Two-Electron Energy =                 360.1746574088580246
    DFT Exchange-Correlation Energy =       0.0000000000000000
    Empirical Dispersion Energy =           0.0000000000000000
    PCM Polarization Energy =               0.0000000000000000
    EFP Energy =                            0.0000000000000000
    Total Energy =                       -321.8615024291705140
    Molecular point group: c1
  Basis Set: CC-PVTZ
  Basis Set:

  -Total Gradient:
     Atom            X                  Y                   Z
    ------   -----------------  -----------------  -----------------
       1        0.000002230537    -0.000002118217    -0.000002182079
       2       -0.000004480823    -0.000002657241    -0.000000960112
       3        0.000001953909     0.000120607649     0.000030995485
       4       -0.000004357614     0.000004204044     0.000001857316
       5        0.000002344665     0.000001630680    -0.000001622262
       6       -0.000038053545    -0.000192266819     0.000043339130
       7       -0.000000364554     0.000006642209     0.000008421722
       8       -0.000000973142     0.000011807569     0.000001231644
       9        0.000150059475     0.000177047229    -0.000234674859
      10        0.000014289995    -0.000016315395     0.000000575159
      11        0.000006434999    -0.000011402196    -0.000008818266
      12       -0.000103143068    -0.000023697659     0.000174229031
      13       -0.000025940828    -0.000073481855    -0.000012391908

  **** Optimization is complete! (in 5 steps) ****
    Final optimized geometry and variables:
    Molecular point group: c1

    Geometry (in Angstrom), charge = 0, multiplicity = 1:

    H            3.462117181709     0.137485381226    -0.762432533312
    C            2.750861421720    -0.051655745040     0.031055939783
    C            1.324982974048     0.107239979438    -0.485120695675
    H            2.927206063865    -1.054775303985     0.402492728827
    H            2.958251547543     0.645208813385     0.835343477582
    C            0.310030061991    -0.157428442349     0.619694126848
    H            1.145912629110    -0.584069367071    -1.300238175833
    H            1.174436548468     1.108280946123    -0.867641064274
    N           -1.069719657311    -0.006102819876     0.084068421526
    H            0.376262808782    -1.163389723670     0.997635482483
    H            0.398073748020     0.560891446827     1.418843662389
    O           -1.657419338665    -0.994920023909    -0.200251824975
    O           -1.480499979842     1.098746660047    -0.043227918510

  Mulliken Charges: (a.u.)
   Center  Symbol    Alpha    Beta     Spin     Total
       1     H     0.44166  0.44166  0.00000  0.11669
       2     C     3.15110  3.15110  0.00000 -0.30220
       3     C     3.09609  3.09609  0.00000 -0.19218
       4     H     0.45163  0.45163  0.00000  0.09674
       5     H     0.45165  0.45165  0.00000  0.09670
       6     C     3.03940  3.03940  0.00000 -0.07880
       7     H     0.43997  0.43997  0.00000  0.12005
       8     H     0.43610  0.43610  0.00000  0.12781
       9     N     3.27616  3.27616  0.00000  0.44767
      10     H     0.43393  0.43393  0.00000  0.13215
      11     H     0.43541  0.43541  0.00000  0.12918
      12     O     4.17186  4.17186  0.00000 -0.34372
      13     O     4.17505  4.17505  0.00000 -0.35009

   Total alpha = 24.00000, Total beta = 24.00000, Total charge =  0.00000
