  ==> Input File <==

--------------------------------------------------------------------------
set {
	reference rhf
	basis 6-31G*
}

set_num_threads( 4 )
memory 2 gb

molecule MOL {
0 1

O	 -1.918184	 0.652555	 0.796269
C	 -1.083277	 0.139568	 0.115197
C	 0.323299	 -0.082943	 0.642902
C	 -1.371183	 -0.289761	 -1.306287
C	 1.355627	 -0.005344	 -0.493127
H	 0.396251	 -1.044647	 1.143147
H	 0.528637	 0.693580	 1.371677
C	 2.786168	 -0.195604	 0.007473
H	 1.132807	 -0.760304	 -1.243899
H	 1.259610	 0.958506	 -0.981915
H	 3.495561	 -0.130713	 -0.811210
H	 2.912696	 -1.165395	 0.480041
H	 3.049284	 0.565503	 0.735850
H	 -0.626373	 0.110539	 -1.987966
H	 -2.356263	 0.044012	 -1.601159
H	 -1.321189	 -1.373108	 -1.377448

	symmetry c1
}
set optking {
	frozen_dihedral = ("
		4 2 3 5
	")
}

ee = optimize('scf')
oeprop('DIPOLE', 'QUADRUPOLE', 'MULLIKEN_CHARGES')
f=open( 'psi4out.xyz', 'w' )
f.write( "16  " )
f.write( str(ee) + "\n" )
f.write( MOL.save_string_xyz() )
f.close()
--------------------------------------------------------------------------

    Molecular point group: c1
  Charge       = 0
  Multiplicity = 1
  Basis Set: 6-31G*
  Basis Set:
  @DF-RHF Final Energy:  -270.02488657655283
    Total Energy =                       -270.0248865765530581
    Molecular point group: c1
  Basis Set: 6-31G*
  Basis Set:
  Basis Set: 6-31G*
  Basis Set:
  @DF-RHF Final Energy:  -270.02728181654123
    Total Energy =                       -270.0272818165411763
  Basis Set: 6-31G*
  Basis Set:
  Basis Set: 6-31G*
  Basis Set:
  @DF-RHF Final Energy:  -270.02861488016777
    Total Energy =                       -270.0286148801680497
  Basis Set: 6-31G*
  Basis Set:
  Basis Set: 6-31G*
  Basis Set:
  @DF-RHF Final Energy:  -270.02880932510271
    Total Energy =                       -270.0288093251027703
  Basis Set: 6-31G*
  Basis Set:
  @DF-RHF Final Energy:  -270.02873565216828
    Total Energy =                       -270.0287356521683932
  @DF-RHF Final Energy:  -270.02887244519536
    Total Energy =                       -270.0288724451952476
  @DF-RHF Final Energy:  -270.02888880152227
    Total Energy =                       -270.0288888015220437
  @DF-RHF Final Energy:  -270.02889495984459
    Total Energy =                       -270.0288949598444788
  Basis Set: 6-31G*
  Basis Set:
  @DF-RHF Final Energy:  -270.02889940560203
    Total Energy =                       -270.0288994056019192
  Basis Set: 6-31G*
  Basis Set:
  Basis Set: 6-31G*
  Basis Set:
  @DF-RHF Final Energy:  -270.02873271388603
    Total Energy =                       -270.0287327138862565
  Basis Set: 6-31G*
  Basis Set:
  Basis Set: 6-31G*
  Basis Set:
  @DF-RHF Final Energy:  -270.02889878517692
    Total Energy =                       -270.0288987851769207
  Basis Set: 6-31G*
  Basis Set:
  Charge       = 0
  Multiplicity = 1
  Basis Set: 6-31G*
  Basis Set:

    Orbital Energies (a.u.)
    -----------------------

    Doubly Occupied:

       1A    -20.546861     2A    -11.325822     3A    -11.234699
       4A    -11.231260     5A    -11.228066     6A    -11.221483
       7A     -1.393193     8A     -1.085523     9A     -1.009387
      10A     -0.952043    11A     -0.834829    12A     -0.733812
      13A     -0.657149    14A     -0.651753    15A     -0.622694
      16A     -0.600431    17A     -0.577431    18A     -0.552051
      19A     -0.538450    20A     -0.520771    21A     -0.504239
      22A     -0.489489    23A     -0.471514    24A     -0.398219

  @DF-RHF Final Energy:  -270.02889974667858

   => Energetics <=

    Nuclear Repulsion Energy =            236.7337198008992232
    One-Electron Energy =                -834.7629014984970581
    Two-Electron Energy =                 328.0002819509193728
    DFT Exchange-Correlation Energy =       0.0000000000000000
    Empirical Dispersion Energy =           0.0000000000000000
    PCM Polarization Energy =               0.0000000000000000
    EFP Energy =                            0.0000000000000000
    Total Energy =                       -270.0288997466784053
    Molecular point group: c1
  Basis Set: 6-31G*
  Basis Set:

  -Total Gradient:
     Atom            X                  Y                   Z
    ------   -----------------  -----------------  -----------------
       1        0.000005933421    -0.000001639218    -0.000000574769
       2       -0.000534105231    -0.002198597876     0.000591638574
       3        0.000347749573     0.002289104250     0.000010930616
       4        0.000310659995     0.001116902524    -0.000449222553
       5       -0.000127705186    -0.001206901514    -0.000157255372
       6        0.000002882567     0.000000987136    -0.000003879653
       7        0.000000573910    -0.000000181092     0.000004234543
       8       -0.000003206412     0.000005095940     0.000002944434
       9       -0.000000773707    -0.000000178176    -0.000000717683
      10       -0.000000907563    -0.000002620027     0.000002667689
      11       -0.000000887878     0.000003806613    -0.000000059284
      12        0.000001805802    -0.000001981273    -0.000002893812
      13       -0.000000964988    -0.000002077992     0.000003618155
      14       -0.000002066961    -0.000000620347     0.000003387052
      15        0.000000877102     0.000001342933    -0.000002203889
      16        0.000000135559    -0.000002441883    -0.000002614050

  **** Optimization is complete! (in 12 steps) ****
    Final optimized geometry and variables:
    Molecular point group: c1

    Geometry (in Angstrom), charge = 0, multiplicity = 1:

    O           -1.919959202712     0.618991216220     0.871897674542
    C           -1.119719449220     0.123346158201     0.138187525394
    C            0.313117215195    -0.090700302249     0.604190502734
    C           -1.513801276967    -0.323341021478    -1.253682980544
    C            1.404103381666    -0.066159265695    -0.470199525678
    H            0.327802771805    -1.058624311307     1.105447921337
    H            0.505983641340     0.651919608937     1.369896375303
    C            2.797675664509    -0.252488467680     0.129087761488
    H            1.224930982271    -0.845853638756    -1.204433677076
    H            1.369902183413     0.878722286545    -1.007450485561
    H            3.559676354154    -0.232158604700    -0.643185919766
    H            2.876727248899    -1.203103670829     0.648540420708
    H            3.026061285385     0.533913730091     0.842007197544
    H           -1.000539085697     0.272486571465    -2.002018958815
    H           -2.581492627298    -0.205451105604    -1.374326434016
    H           -1.239123114274    -1.360349151258    -1.422545443437

  Mulliken Charges: (a.u.)
   Center  Symbol    Alpha    Beta     Spin     Total
       1     O     4.26296  4.26296  0.00000 -0.52592
       2     C     2.73288  2.73288  0.00000  0.53425
       3     C     3.20539  3.20539  0.00000 -0.41078
       4     C     3.29227  3.29227  0.00000 -0.58453
       5     C     3.16269  3.16269  0.00000 -0.32539
       6     H     0.40602  0.40602  0.00000  0.18795
       7     H     0.39865  0.39865  0.00000  0.20270
       8     C     3.24006  3.24006  0.00000 -0.48012
       9     H     0.41828  0.41828  0.00000  0.16344
      10     H     0.41732  0.41732  0.00000  0.16537
      11     H     0.41559  0.41559  0.00000  0.16882
      12     H     0.41944  0.41944  0.00000  0.16112
      13     H     0.41742  0.41742  0.00000  0.16515
      14     H     0.40571  0.40571  0.00000  0.18857
      15     H     0.39555  0.39555  0.00000  0.20890
      16     H     0.40977  0.40977  0.00000  0.18047

   Total alpha = 24.00000, Total beta = 24.00000, Total charge = -0.00000
