  ==> Input File <==

--------------------------------------------------------------------------
set {
	reference rhf
	basis cc-pvtz
}

set_num_threads( 4 )
memory 2 gb

molecule MOL {
0 1

H	 -0.000105	 1.988529	 0.748933
O	 -0.000098	 1.879786	 -0.188206
C	 -0.000014	 0.545691	 -0.532416
C	 1.426669	 0.074262	 -0.818960
C	 -0.990250	 0.293876	 -1.670747
H	 -0.351529	 -0.017012	 0.319912
F	 2.164105	 0.251031	 0.249591
F	 1.477146	 -1.194660	 -1.136768
F	 1.971211	 0.764052	 -1.798265
F	 -2.191885	 0.646823	 -1.285572
F	 -1.034728	 -0.966415	 -2.022034
F	 -0.687192	 1.005620	 -2.735149

	symmetry c1
}
set optking {
	frozen_dihedral = ("
		6 3 2 1
	")
}

ee = optimize('scf')
oeprop('DIPOLE', 'QUADRUPOLE', 'MULLIKEN_CHARGES')
f=open( 'psi4out.xyz', 'w' )
f.write( "12  " )
f.write( str(ee) + "\n" )
f.write( MOL.save_string_xyz() )
f.close()
--------------------------------------------------------------------------

    Molecular point group: c1
  Charge       = 0
  Multiplicity = 1
  Basis Set: CC-PVTZ
  Basis Set:
  @DF-RHF Final Energy:  -786.58579140068207
    Total Energy =                       -786.5857914006821829
    Molecular point group: c1
  Basis Set: CC-PVTZ
  Basis Set:
  Basis Set: CC-PVTZ
  Basis Set:
  @DF-RHF Final Energy:  -786.58726722853669
    Total Energy =                       -786.5872672285370300
  Basis Set: CC-PVTZ
  Basis Set:
  Basis Set: CC-PVTZ
  Basis Set:
  @DF-RHF Final Energy:  -786.58757073989182
    Total Energy =                       -786.5875707398911345
  Basis Set: CC-PVTZ
  Basis Set:
  Basis Set: CC-PVTZ
  Basis Set:
  @DF-RHF Final Energy:  -786.58760327266100
    Total Energy =                       -786.5876032726619087
  Basis Set: CC-PVTZ
  Basis Set:
  Basis Set: CC-PVTZ
  Basis Set:
  @DF-RHF Final Energy:  -786.58760776496536
    Total Energy =                       -786.5876077649658100
  Basis Set: CC-PVTZ
  Basis Set:
  Charge       = 0
  Multiplicity = 1
  Basis Set: CC-PVTZ
  Basis Set:

    Orbital Energies (a.u.)
    -----------------------

    Doubly Occupied:

       1A    -26.352339     2A    -26.352266     3A    -26.351419
       4A    -26.350084     5A    -26.349073     6A    -26.348169
       7A    -20.609613     8A    -11.515258     9A    -11.514895
      10A    -11.351821    11A     -1.766346    12A     -1.760842
      13A     -1.660921    14A     -1.658968    15A     -1.656329
      16A     -1.655840    17A     -1.439400    18A     -1.103393
      19A     -0.997054    20A     -0.939200    21A     -0.867340
      22A     -0.861881    23A     -0.857304    24A     -0.846102
      25A     -0.835435    26A     -0.786109    27A     -0.770415
      28A     -0.732461    29A     -0.726395    30A     -0.723694
      31A     -0.719920    32A     -0.685624    33A     -0.681097
      34A     -0.673835    35A     -0.672641    36A     -0.662996
      37A     -0.657812    38A     -0.626577    39A     -0.622549
      40A     -0.559457    41A     -0.508903

  @DF-RHF Final Energy:  -786.58760870043864

   => Energetics <=

    Nuclear Repulsion Energy =            670.2153541537262527
    One-Electron Energy =               -2427.9823760584617958
    Two-Electron Energy =                 971.1794132042970205
    DFT Exchange-Correlation Energy =       0.0000000000000000
    Empirical Dispersion Energy =           0.0000000000000000
    PCM Polarization Energy =               0.0000000000000000
    EFP Energy =                            0.0000000000000000
    Total Energy =                       -786.5876087004384090
    Molecular point group: c1
  Basis Set: CC-PVTZ
  Basis Set:

  -Total Gradient:
     Atom            X                  Y                   Z
    ------   -----------------  -----------------  -----------------
       1       -0.000847983364     0.000026994899     0.000002090888
       2        0.001247129659    -0.000020625619     0.000109533798
       3       -0.001117089345     0.000228598598    -0.000326394260
       4        0.000018047176     0.000056576119    -0.000108785239
       5        0.000059410423     0.000123655456    -0.000064341184
       6        0.000739243848    -0.000058603503     0.000204345138
       7        0.000052412377     0.000014269085     0.000068725944
       8       -0.000029759601    -0.000095807925    -0.000053325092
       9       -0.000049121267    -0.000051375479     0.000093428492
      10       -0.000066281056     0.000052690724    -0.000001816894
      11        0.000035072945    -0.000158763604    -0.000095759901
      12       -0.000041081802    -0.000117608763     0.000172298319

  **** Optimization is complete! (in 6 steps) ****
    Final optimized geometry and variables:
    Molecular point group: c1

    Geometry (in Angstrom), charge = 0, multiplicity = 1:

    H           -0.230760152064     1.678391894749     1.938768490472
    O           -0.224587947058     1.547055471046     1.008560636012
    C           -0.225255523806     0.204029466366     0.690846098204
    C            1.204813311022    -0.247754204348     0.390676766593
    C           -1.207500460918     0.003407856725    -0.461515668598
    H           -0.573320618952    -0.421725883045     1.503229506553
    F            1.950920691385     0.004947960484     1.445546335982
    F            1.264958850802    -1.538710003110     0.164235567548
    F            1.729275820874     0.373255521893    -0.631674079760
    F           -2.414461660608     0.320353166136    -0.054139651719
    F           -1.234205923646    -1.250119361778    -0.850699224376
    F           -0.920774632452     0.746595736863    -1.496591689011

  Mulliken Charges: (a.u.)
   Center  Symbol    Alpha    Beta     Spin     Total
       1     H     0.38115  0.38115  0.00000  0.23770
       2     O     4.18655  4.18655  0.00000 -0.37311
       3     C     3.00158  3.00158  0.00000 -0.00315
       4     C     2.68014  2.68014  0.00000  0.63971
       5     C     2.67754  2.67754  0.00000  0.64493
       6     H     0.44463  0.44463  0.00000  0.11075
       7     F     4.61033  4.61033  0.00000 -0.22066
       8     F     4.60540  4.60540  0.00000 -0.21080
       9     F     4.60063  4.60063  0.00000 -0.20126
      10     F     4.60584  4.60584  0.00000 -0.21168
      11     F     4.60539  4.60539  0.00000 -0.21078
      12     F     4.60083  4.60083  0.00000 -0.20166

   Total alpha = 41.00000, Total beta = 41.00000, Total charge = -0.00000
