  ==> Input File <==

--------------------------------------------------------------------------
set {
	reference rhf
	basis 6-31G*
}

set_num_threads( 4 )
memory 2 gb

molecule MOL {
0 1

O	 3.225979	 0.970355	 -0.599647
C	 2.701189	 0.057885	 -0.047330
C	 1.245376	 -0.013843	 0.345420
O	 3.347903	 -1.046386	 0.304773
C	 0.455112	 1.231400	 -0.050772
H	 0.838542	 -0.913825	 -0.103701
H	 1.208210	 -0.175333	 1.419774
C	 -0.998893	 1.219485	 0.433193
H	 0.482531	 1.345121	 -1.130325
H	 0.957290	 2.103070	 0.354729
C	 -1.883438	 0.145884	 -0.207175
H	 -1.431207	 2.195402	 0.224832
H	 -1.019646	 1.105716	 1.516076
C	 -3.347647	 0.245583	 0.225435
H	 -1.822183	 0.231698	 -1.291012
H	 -1.510341	 -0.844814	 0.042401
C	 -3.798037	 1.678668	 0.514480
H	 -3.502798	 -0.364949	 1.113362
H	 -3.982157	 -0.179895	 -0.550494
C	 -5.260308	 1.769092	 0.949551
H	 -3.164386	 2.105695	 1.288932
H	 -3.647785	 2.289484	 -0.373275
H	 -5.549578	 2.796691	 1.146963
H	 -5.435805	 1.196279	 1.855796
H	 -5.922789	 1.380899	 0.180981
C	 4.728119	 -1.109107	 -0.004993
H	 4.882018	 -1.033965	 -1.071845
H	 5.068212	 -2.067527	 0.355250
H	 5.265056	 -0.311663	 0.488280

	symmetry c1
}
set optking {
	frozen_dihedral = ("
		17 14 11 15
	")
}

ee = optimize('scf')
oeprop('DIPOLE', 'QUADRUPOLE', 'MULLIKEN_CHARGES')
f=open( 'psi4out.xyz', 'w' )
f.write( "29  " )
f.write( str(ee) + "\n" )
f.write( MOL.save_string_xyz() )
f.close()
--------------------------------------------------------------------------

    Molecular point group: c1
  Charge       = 0
  Multiplicity = 1
  Basis Set: 6-31G*
  Basis Set:
  @DF-RHF Final Energy:  -501.03526799897872
    Total Energy =                       -501.0352679989773605
    Molecular point group: c1
  Basis Set: 6-31G*
  Basis Set:
  Basis Set: 6-31G*
  Basis Set:
  @DF-RHF Final Energy:  -501.03589956310054
    Total Energy =                       -501.0358995631004291
  Basis Set: 6-31G*
  Basis Set:
  Basis Set: 6-31G*
  Basis Set:
  @DF-RHF Final Energy:  -501.03826811952604
    Total Energy =                       -501.0382681195260375
  Basis Set: 6-31G*
  Basis Set:
  Basis Set: 6-31G*
  Basis Set:
  @DF-RHF Final Energy:  -501.03858200290176
    Total Energy =                       -501.0385820029019897
  Basis Set: 6-31G*
  Basis Set:
  @DF-RHF Final Energy:  -501.03858632868696
    Total Energy =                       -501.0385863286871881
  Basis Set: 6-31G*
  Basis Set:
  @DF-RHF Final Energy:  -501.03860187178384
    Total Energy =                       -501.0386018717840670
  Basis Set: 6-31G*
  Basis Set:
  Basis Set: 6-31G*
  Basis Set:
  @DF-RHF Final Energy:  -501.03861174810913
    Total Energy =                       -501.0386117481087922
  Basis Set: 6-31G*
  Basis Set:
  Basis Set: 6-31G*
  Basis Set:
  @DF-RHF Final Energy:  -501.03861313561129
    Total Energy =                       -501.0386131356116266
  Basis Set: 6-31G*
  Basis Set:
  Charge       = 0
  Multiplicity = 1
  Basis Set: 6-31G*
  Basis Set:

    Orbital Energies (a.u.)
    -----------------------

    Doubly Occupied:

       1A    -20.603388     2A    -20.545214     3A    -11.372047
       4A    -11.280676     5A    -11.234742     6A    -11.219254
       7A    -11.217700     8A    -11.216256     9A    -11.215368
      10A    -11.214783    11A    -11.208735    12A     -1.469092
      13A     -1.362531    14A     -1.097395    15A     -1.065178
      16A     -1.017494    17A     -0.976574    18A     -0.929397
      19A     -0.862609    20A     -0.819100    21A     -0.773586
      22A     -0.759528    23A     -0.700989    24A     -0.682118
      25A     -0.672163    26A     -0.642201    27A     -0.629076
      28A     -0.609834    29A     -0.593249    30A     -0.581318
      31A     -0.566419    32A     -0.554218    33A     -0.543251
      34A     -0.524629    35A     -0.522101    36A     -0.497834
      37A     -0.492612    38A     -0.486314    39A     -0.478299
      40A     -0.457048    41A     -0.450528    42A     -0.449207
      43A     -0.442323    44A     -0.437237

  @DF-RHF Final Energy:  -501.03861368654862

   => Energetics <=

    Nuclear Repulsion Energy =            614.2939046279716422
    One-Electron Energy =               -1899.7178015893798602
    Two-Electron Energy =                 784.3852832748590345
    DFT Exchange-Correlation Energy =       0.0000000000000000
    Empirical Dispersion Energy =           0.0000000000000000
    PCM Polarization Energy =               0.0000000000000000
    EFP Energy =                            0.0000000000000000
    Total Energy =                       -501.0386136865491835
    Molecular point group: c1
  Basis Set: 6-31G*
  Basis Set:

  -Total Gradient:
     Atom            X                  Y                   Z
    ------   -----------------  -----------------  -----------------
       1       -0.000002653586    -0.000010755424    -0.000023252064
       2        0.000017275412     0.000028340212     0.000058657611
       3       -0.000021310818    -0.000011877292    -0.000008050579
       4       -0.000006729599    -0.000000356329    -0.000009997862
       5        0.000009872924     0.000007550216     0.000026180589
       6       -0.000037446795    -0.000024333051    -0.000002769333
       7        0.000010727380     0.000003776297    -0.000017194725
       8       -0.000029136837     0.000002885265     0.000022624496
       9       -0.000001924297     0.000015017782    -0.000002870095
      10        0.000002541235    -0.000012989931     0.000007165855
      11        0.000871559767     0.007048545065     0.002456844934
      12       -0.000024533826     0.000012128091    -0.000014064262
      13       -0.000007482130     0.000028921459    -0.000003110329
      14       -0.002072455641    -0.000850628184    -0.006127265173
      15       -0.000204488894    -0.005854023741    -0.000462868791
      16        0.000052198738    -0.000007819970    -0.000037702311
      17        0.001408507455    -0.000394454483     0.004069958092
      18        0.000018142292     0.000011672551    -0.000003283159
      19       -0.000020031003    -0.000015549109     0.000018478349
      20        0.000000082988     0.000010118239     0.000017905870
      21        0.000025779916     0.000002256005     0.000019068621
      22        0.000006764186     0.000015727917     0.000014653050
      23       -0.000004459407     0.000000155897     0.000002960985
      24       -0.000003771356     0.000000421746     0.000006254593
      25        0.000014759151    -0.000000978314    -0.000000257128
      26       -0.000001993267    -0.000005007002    -0.000010907015
      27        0.000005224149    -0.000000567258     0.000000185180
      28       -0.000000057830     0.000000439559     0.000000789403
      29       -0.000004960321     0.000001383786     0.000001865197

  **** Optimization is complete! (in 9 steps) ****
    Final optimized geometry and variables:
    Molecular point group: c1

    Geometry (in Angstrom), charge = 0, multiplicity = 1:

    O            3.203599901419     0.426929988641    -0.808579346421
    C            2.642021055755    -0.440386966971    -0.220821934747
    C            1.185532148487    -0.435197447786     0.176125813832
    O            3.242148112074    -1.556909826372     0.172693471426
    C            0.448435664002     0.826763512662    -0.267461135787
    H            0.741046532246    -1.334899781671    -0.235865652543
    H            1.145138934829    -0.551958790903     1.256114019153
    C           -1.003976773183     0.903862604429     0.218394223762
    H            0.477950762079     0.898227848768    -1.350613373823
    H            0.990961411786     1.689512271827     0.103577458428
    C           -1.934088420232    -0.133168157437    -0.415566319763
    H           -1.372603052302     1.901208290619     0.000785632308
    H           -1.027744447508     0.801162364239     1.302582868346
    C           -3.396138826789    -0.128301652884     0.075418712539
    H           -1.913053443975    -0.043274162682    -1.500223492272
    H           -1.540168577915    -1.128265687569    -0.222634703890
    C           -3.998836095513     1.240447610514     0.406302570004
    H           -3.463220864634    -0.740699249926     0.973242676920
    H           -4.013606964303    -0.624346487881    -0.669098165412
    C           -5.472736297283     1.142811811677     0.800240814877
    H           -3.444521380930     1.700301486898     1.218521025184
    H           -3.900757767400     1.906850491748    -0.448762728298
    H           -5.879600937527     2.118864904799     1.046070398815
    H           -5.604780261294     0.501810396583     1.667615978330
    H           -6.069154111338     0.729635407986    -0.008227428679
    C            4.617543436810    -1.690318804056    -0.136154123970
    H            4.771458480027    -1.662885602235    -1.205298197687
    H            4.917530876874    -2.647804602598     0.260355726953
    H            5.189332686244    -0.898123124823     0.325386347295

  Mulliken Charges: (a.u.)
   Center  Symbol    Alpha    Beta     Spin     Total
       1     O     4.28597  4.28597  0.00000 -0.57194
       2     C     2.60471  2.60471  0.00000  0.79058
       3     C     3.20983  3.20983  0.00000 -0.41966
       4     O     4.30748  4.30748  0.00000 -0.61496
       5     C     3.15392  3.15392  0.00000 -0.30783
       6     H     0.39887  0.39887  0.00000  0.20225
       7     H     0.40126  0.40126  0.00000  0.19749
       8     C     3.15973  3.15973  0.00000 -0.31947
       9     H     0.41290  0.41290  0.00000  0.17420
      10     H     0.40859  0.40859  0.00000  0.18282
      11     C     3.15732  3.15732  0.00000 -0.31464
      12     H     0.41481  0.41481  0.00000  0.17038
      13     H     0.42420  0.42420  0.00000  0.15159
      14     C     3.15075  3.15075  0.00000 -0.30149
      15     H     0.42175  0.42175  0.00000  0.15649
      16     H     0.42251  0.42251  0.00000  0.15497
      17     C     3.15551  3.15551  0.00000 -0.31102
      18     H     0.42444  0.42444  0.00000  0.15113
      19     H     0.42097  0.42097  0.00000  0.15807
      20     C     3.23920  3.23920  0.00000 -0.47841
      21     H     0.42008  0.42008  0.00000  0.15984
      22     H     0.42312  0.42312  0.00000  0.15377
      23     H     0.41913  0.41913  0.00000  0.16174
      24     H     0.42209  0.42209  0.00000  0.15583
      25     H     0.42174  0.42174  0.00000  0.15652
      26     C     3.09240  3.09240  0.00000 -0.18480
      27     H     0.40908  0.40908  0.00000  0.18185
      28     H     0.40851  0.40851  0.00000  0.18298
      29     H     0.40913  0.40913  0.00000  0.18173

   Total alpha = 44.00000, Total beta = 44.00000, Total charge =  0.00000
