  ==> Input File <==

--------------------------------------------------------------------------
set {
	reference rhf
	basis 6-31G*
}

set_num_threads( 4 )
memory 2 gb

molecule MOL {
0 1

H	 3.628138	 0.648374	 1.037006
N	 2.797414	 0.088583	 1.045756
C	 1.865559	 0.531981	 0.018834
H	 2.390320	 0.189073	 1.956254
C	 0.645745	 -0.382037	 -0.029944
H	 2.382498	 0.491192	 -0.935089
H	 1.538519	 1.566034	 0.153664
C	 -0.679275	 0.379305	 0.025956
H	 0.698998	 -0.976915	 -0.937203
H	 0.693479	 -1.083846	 0.802235
C	 -1.903357	 -0.536963	 -0.023547
H	 -0.726309	 1.082987	 -0.803784
H	 -0.717680	 0.977832	 0.934877
C	 -3.225172	 0.228290	 0.028445
H	 -1.867824	 -1.134999	 -0.931459
H	 -1.860449	 -1.239604	 0.805977
H	 -3.313397	 0.915643	 -0.808262
H	 -4.073500	 -0.448134	 -0.008893
H	 -3.306061	 0.809945	 0.942516

	symmetry c1
}
set optking {
	frozen_dihedral = ("
		6 3 5 9
	")
}

ee = optimize('scf')
oeprop('DIPOLE', 'QUADRUPOLE', 'MULLIKEN_CHARGES')
f=open( 'psi4out.xyz', 'w' )
f.write( "19  " )
f.write( str(ee) + "\n" )
f.write( MOL.save_string_xyz() )
f.close()
--------------------------------------------------------------------------

    Molecular point group: c1
  Charge       = 0
  Multiplicity = 1
  Basis Set: 6-31G*
  Basis Set:
  @DF-RHF Final Energy:  -251.34548097292489
    Total Energy =                       -251.3454809729248609
    Molecular point group: c1
  Basis Set: 6-31G*
  Basis Set:
  Basis Set: 6-31G*
  Basis Set:
  @DF-RHF Final Energy:  -251.34581891059003
    Total Energy =                       -251.3458189105900829
  Basis Set: 6-31G*
  Basis Set:
  Basis Set: 6-31G*
  Basis Set:
  @DF-RHF Final Energy:  -251.34593525231756
    Total Energy =                       -251.3459352523173607
  Basis Set: 6-31G*
  Basis Set:
  Basis Set: 6-31G*
  Basis Set:
  @DF-RHF Final Energy:  -251.34593369988465
    Total Energy =                       -251.3459336998847107
  Basis Set: 6-31G*
  Basis Set:
  Basis Set: 6-31G*
  Basis Set:
  @DF-RHF Final Energy:  -251.34593709503764
    Total Energy =                       -251.3459370950377547
  Basis Set: 6-31G*
  Basis Set:
  Charge       = 0
  Multiplicity = 1
  Basis Set: 6-31G*
  Basis Set:

    Orbital Energies (a.u.)
    -----------------------

    Doubly Occupied:

       1A    -15.532353     2A    -11.239988     3A    -11.214097
       4A    -11.213110     5A    -11.209480     6A    -11.207982
       7A     -1.175196     8A     -1.072534     9A     -0.996532
      10A     -0.900267    11A     -0.814541    12A     -0.788736
      13A     -0.667249    14A     -0.636396    15A     -0.618777
      16A     -0.582338    17A     -0.568489    18A     -0.547817
      19A     -0.528636    20A     -0.502995    21A     -0.483528
      22A     -0.465353    23A     -0.460705    24A     -0.444290
      25A     -0.379834

  @DF-RHF Final Energy:  -251.34593725438552

   => Energetics <=

    Nuclear Repulsion Energy =            245.9355885705123512
    One-Electron Energy =                -826.0606025768429390
    Two-Electron Energy =                 328.7790767519451265
    DFT Exchange-Correlation Energy =       0.0000000000000000
    Empirical Dispersion Energy =           0.0000000000000000
    PCM Polarization Energy =               0.0000000000000000
    EFP Energy =                            0.0000000000000000
    Total Energy =                       -251.3459372543854897
    Molecular point group: c1
  Basis Set: 6-31G*
  Basis Set:

  -Total Gradient:
     Atom            X                  Y                   Z
    ------   -----------------  -----------------  -----------------
       1        0.000006337283    -0.000001465272     0.000005121638
       2       -0.000018109243     0.000012674265    -0.000008945131
       3       -0.001769081309     0.002422202965    -0.001153570672
       4        0.000002749320    -0.000000135162     0.000002801903
       5        0.001662087863    -0.002302623589     0.001499826382
       6        0.001212021401    -0.001667909946     0.000716051653
       7        0.000004138193    -0.000003485507     0.000004429665
       8        0.000008486382    -0.000004274744    -0.000000219669
       9       -0.001108855929     0.001553764835    -0.001060740517
      10       -0.000000391840    -0.000005827418     0.000005591294
      11       -0.000001025044    -0.000000050471    -0.000009133483
      12        0.000006758595    -0.000000907510    -0.000003641918
      13       -0.000003398851    -0.000003325483    -0.000003495812
      14       -0.000002674976    -0.000001049519     0.000009197819
      15       -0.000001081927     0.000001994235    -0.000002458454
      16        0.000002831021    -0.000000493044    -0.000003505776
      17        0.000000876145    -0.000002629516    -0.000001058061
      18       -0.000000147227     0.000000475406     0.000002941764
      19       -0.000001519856     0.000003065478     0.000000807374

  **** Optimization is complete! (in 6 steps) ****
    Final optimized geometry and variables:
    Molecular point group: c1

    Geometry (in Angstrom), charge = 0, multiplicity = 1:

    H            3.710980515785     0.586465920020     0.819470757833
    N            2.883722699952     0.021157248811     0.837682280524
    C            1.930408192106     0.473322186403    -0.169513956800
    H            2.492170217460     0.112185193410     1.756243711032
    C            0.694515520889    -0.446814710483    -0.210632043302
    H            2.447695337478     0.440284362762    -1.121882877319
    H            1.615067727994     1.507034369183    -0.016016203599
    C           -0.633793629348     0.313297192565    -0.169223308648
    H            0.718249288249    -1.051506666237    -1.112886667264
    H            0.744844872461    -1.139718458645     0.624000182522
    C           -1.856347902271    -0.603656980387    -0.223749134766
    H           -0.675576408259     1.015419061471    -1.000825905668
    H           -0.676892235278     0.916172716529     0.737197698666
    C           -3.179597117683     0.159584130462    -0.176372458232
    H           -1.817159470216    -1.201644905466    -1.131758333496
    H           -1.815342061826    -1.307030408354     0.605307311851
    H           -3.265890444497     0.847045704525    -1.013197527642
    H           -4.026828237292    -0.518062347437    -0.216809285132
    H           -3.264682551789     0.740892606117     0.737531622879

  Mulliken Charges: (a.u.)
   Center  Symbol    Alpha    Beta     Spin     Total
       1     H     0.33370  0.33370  0.00000  0.33260
       2     N     3.92092  3.92092  0.00000 -0.84184
       3     C     3.06439  3.06439  0.00000 -0.12878
       4     H     0.33614  0.33614  0.00000  0.32772
       5     C     3.15729  3.15729  0.00000 -0.31459
       6     H     0.41832  0.41832  0.00000  0.16337
       7     H     0.43100  0.43100  0.00000  0.13800
       8     C     3.15542  3.15542  0.00000 -0.31084
       9     H     0.41847  0.41847  0.00000  0.16306
      10     H     0.41450  0.41450  0.00000  0.17100
      11     C     3.15162  3.15162  0.00000 -0.30324
      12     H     0.42422  0.42422  0.00000  0.15156
      13     H     0.42604  0.42604  0.00000  0.14793
      14     C     3.23906  3.23906  0.00000 -0.47813
      15     H     0.42257  0.42257  0.00000  0.15487
      16     H     0.42273  0.42273  0.00000  0.15454
      17     H     0.42201  0.42201  0.00000  0.15599
      18     H     0.41931  0.41931  0.00000  0.16139
      19     H     0.42230  0.42230  0.00000  0.15540

   Total alpha = 25.00000, Total beta = 25.00000, Total charge =  0.00000
