                              Psi4 1.0.54 Driver

  ==> Input File <==

--------------------------------------------------------------------------
set {
	reference rhf
	basis cc-pvtz
}

set_num_threads( 4 )
memory 2 gb

molecule MOL {
0 1

O	 -1.067871	 1.141313	 2.593900
C	 -0.555697	 1.619749	 1.634625
C	 0.706600	 1.024075	 1.043163
C	 -1.141014	 2.828801	 0.944433
C	 0.376695	 -0.140025	 0.100361
H	 1.315416	 0.665734	 1.863557
H	 1.266801	 1.784067	 0.508885
C	 1.630207	 -0.772146	 -0.501001
H	 -0.190506	 -0.876393	 0.655586
H	 -0.266639	 0.210173	 -0.703244
C	 2.907848	 -0.545876	 0.309149
H	 1.772784	 -0.391628	 -1.509394
H	 1.468529	 -1.842059	 -0.599744
C	 3.373802	 0.906639	 0.372125
H	 3.699140	 -1.146831	 -0.127906
H	 2.764321	 -0.923458	 1.318191
H	 3.519798	 1.311927	 -0.623875
H	 4.316899	 0.983758	 0.900700
H	 2.661122	 1.540651	 0.885346
H	 -0.472868	 3.673734	 1.077353
H	 -2.107405	 3.064526	 1.362872
H	 -1.229534	 2.655378	 -0.122187

	symmetry c1
}
set optking {
	frozen_dihedral = ("
		3 5 8 12
	")
}

ee,wfn = optimize('scf', return_wfn=True)
oeprop( wfn, 'DIPOLE', 'QUADRUPOLE', 'MULLIKEN_CHARGES')
f=open( 'psi4out.xyz', 'w' )
f.write( "22  " )
f.write( str(ee) + "\n" )
f.write( MOL.save_string_xyz() )
f.close()
--------------------------------------------------------------------------

    Molecular point group: c1
  Charge       = 0
  Multiplicity = 1
  Basis Set: CC-PVTZ
  Basis Set:
  @DF-RHF Final Energy:  -348.18805244882009
    Total Energy =                       -348.1880524488200308
    Molecular point group: c1
  Basis Set: CC-PVTZ
  Basis Set:
  Basis Set: CC-PVTZ
  Basis Set:
  @DF-RHF Final Energy:  -348.20643418934117
    Total Energy =                       -348.2064341893414507
  Basis Set: CC-PVTZ
  Basis Set:
  Basis Set: CC-PVTZ
  Basis Set:
  @DF-RHF Final Energy:  -348.21151408451487
    Total Energy =                       -348.2115140845146470
  Basis Set: CC-PVTZ
  Basis Set:
  Basis Set: CC-PVTZ
  Basis Set:
  @DF-RHF Final Energy:  -348.21287827734579
    Total Energy =                       -348.2128782773453963
  Basis Set: CC-PVTZ
  Basis Set:
  @DF-RHF Final Energy:  -348.21232029599463
    Total Energy =                       -348.2123202959943455
  @DF-RHF Final Energy:  -348.21308224303840
    Total Energy =                       -348.2130822430382295
  Basis Set: CC-PVTZ
  Basis Set:
  @DF-RHF Final Energy:  -348.21350113749099
    Total Energy =                       -348.2135011374912210
  Basis Set: CC-PVTZ
  Basis Set:
  Basis Set: CC-PVTZ
  Basis Set:
  @DF-RHF Final Energy:  -348.21356978421466
    Total Energy =                       -348.2135697842142008
  Basis Set: CC-PVTZ
  Basis Set:
  Basis Set: CC-PVTZ
  Basis Set:
  @DF-RHF Final Energy:  -348.21360377945268
    Total Energy =                       -348.2136037794527397
  Basis Set: CC-PVTZ
  Basis Set:
  Charge       = 0
  Multiplicity = 1
  Basis Set: CC-PVTZ
  Basis Set:

    Orbital Energies (a.u.)
    -----------------------

    Doubly Occupied:

       1A    -20.536780     2A    -11.319116     3A    -11.229222
       4A    -11.227158     5A    -11.226799     6A    -11.221230
       7A    -11.220192     8A    -11.211316     9A     -1.396925
      10A     -1.093866    11A     -1.043411    12A     -0.999415
      13A     -0.946754    14A     -0.859870    15A     -0.782271
      16A     -0.735722    17A     -0.659019    18A     -0.657066
      19A     -0.621788    20A     -0.608303    21A     -0.604895
      22A     -0.590753    23A     -0.559597    24A     -0.549722
      25A     -0.537591    26A     -0.522488    27A     -0.504624
      28A     -0.491839    29A     -0.466756    30A     -0.459570
      31A     -0.456605    32A     -0.398671

  @DF-RHF Final Energy:  -348.21360488508338

   => Energetics <=

    Nuclear Repulsion Energy =            379.6578462536450047
    One-Electron Energy =               -1224.2642312499883701
    Two-Electron Energy =                 496.3927801112600378
    DFT Exchange-Correlation Energy =       0.0000000000000000
    Empirical Dispersion Energy =           0.0000000000000000
    PCM Polarization Energy =               0.0000000000000000
    EFP Energy =                            0.0000000000000000
    Total Energy =                       -348.2136048850833845
    Molecular point group: c1
  Basis Set: CC-PVTZ
  Basis Set:

  -Total Gradient:
     Atom            X                  Y                   Z
    ------   -----------------  -----------------  -----------------
       1       -0.000009415194    -0.000002275581    -0.000004637606
       2        0.000008266872     0.000014380659    -0.000034628071
       3        0.000372203663    -0.003085273631     0.003355737095
       4        0.000001505031     0.000001108933     0.000031573586
       5       -0.001311065490     0.003386210906    -0.005460972287
       6        0.000007397598     0.000012392295     0.000010042513
       7        0.000013623768    -0.000022715068     0.000003909627
       8        0.004175881665     0.004256363319     0.004443123228
       9        0.000011833530     0.000015287996     0.000013441603
      10       -0.000005600861     0.000011306796    -0.000005204872
      11       -0.000033185284    -0.000037358736     0.000059096282
      12       -0.003207003916    -0.004549365178    -0.002388371572
      13        0.000009378513     0.000005753505     0.000019882503
      14       -0.000003414519     0.000021194702    -0.000019261404
      15       -0.000007733945     0.000004825631    -0.000001768425
      16        0.000000783459    -0.000004434764     0.000012963407
      17       -0.000007681664     0.000017577645    -0.000003653630
      18       -0.000025521810     0.000000465985    -0.000002698102
      19        0.000004614341    -0.000029288107    -0.000019371375
      20        0.000001272821    -0.000002343255    -0.000003934241
      21        0.000001582853    -0.000003595322     0.000000430005
      22        0.000002278573    -0.000010218734    -0.000005698261

  **** Optimization is complete! (in 10 steps) ****
    Final optimized geometry and variables:
    Molecular point group: c1

    Geometry (in Angstrom), charge = 0, multiplicity = 1:

    O           -1.937973302543     0.128333373132     1.851206037919
    C           -1.521883331348     0.733797238960     0.917627859958
    C           -0.176482964237     0.397799227807     0.303845025471
    C           -2.311231339487     1.856522986293     0.287257063144
    C           -0.333845526547    -0.739994437692    -0.715825774679
    H            0.476442255300     0.092607842332     1.108492431852
    H            0.241419813695     1.280412454599    -0.166168939092
    C            0.950468765451    -1.299783059124    -1.369799433373
    H           -0.826231336901    -1.550973922827    -0.191363614315
    H           -1.015080724635    -0.432547594162    -1.502124737438
    C            2.270681680731    -1.232915825597    -0.594100801378
    H            1.074870911896    -0.871560669787    -2.360373404405
    H            0.744852719257    -2.347582785032    -1.565083782427
    C            3.036840457142     0.083981918128    -0.706505431152
    H            2.911962451409    -2.020614399974    -0.975733861656
    H            2.099486223318    -1.475012565172     0.450214984869
    H            3.244149182695     0.318374377653    -1.745397615442
    H            3.987212382921     0.016272172829    -0.189257301465
    H            2.496107494841     0.919324277271    -0.282847789184
    H           -1.804806333755     2.797458795175     0.477476566160
    H           -3.305268325959     1.892507557663     0.705738045775
    H           -2.364266017371     1.733004697166    -0.788465573393

  Mulliken Charges: (a.u.)
   Center  Symbol    Alpha    Beta     Spin     Total
       1     O     4.17716  4.17716  0.00000 -0.35433
       2     C     2.85705  2.85705  0.00000  0.28590
       3     C     3.10866  3.10866  0.00000 -0.21731
       4     C     3.15651  3.15651  0.00000 -0.31303
       5     C     3.10459  3.10459  0.00000 -0.20918
       6     H     0.43502  0.43502  0.00000  0.12996
       7     H     0.44843  0.44843  0.00000  0.10313
       8     C     3.09795  3.09795  0.00000 -0.19590
       9     H     0.44056  0.44056  0.00000  0.11888
      10     H     0.44633  0.44633  0.00000  0.10733
      11     C     3.10276  3.10276  0.00000 -0.20551
      12     H     0.45202  0.45202  0.00000  0.09597
      13     H     0.44511  0.44511  0.00000  0.10978
      14     C     3.14917  3.14917  0.00000 -0.29834
      15     H     0.44295  0.44295  0.00000  0.11410
      16     H     0.44794  0.44794  0.00000  0.10413
      17     H     0.45431  0.45431  0.00000  0.09137
      18     H     0.44616  0.44616  0.00000  0.10768
      19     H     0.45283  0.45283  0.00000  0.09435
      20     H     0.44833  0.44833  0.00000  0.10334
      21     H     0.43566  0.43566  0.00000  0.12869
      22     H     0.45051  0.45051  0.00000  0.09898

   Total alpha = 32.00000, Total beta = 32.00000, Total charge =  0.00000

*** Psi4 exiting successfully. Buy a developer a beer!
