  ==> Input File <==

--------------------------------------------------------------------------
set {
	reference rhf
	basis 6-31G*
}

set_num_threads( 1 )
memory 2 gb

molecule MOL {
0 1

H	 -3.135461	 -1.215070	 0.001379
O	 -2.310168	 -0.871793	 -0.309793
C	 -2.026376	 0.340750	 0.341611
C	 -0.673256	 0.843270	 -0.132153
H	 -2.792215	 1.080697	 0.115987
H	 -2.013526	 0.200402	 1.421792
C	 0.486613	 -0.083066	 0.235839
H	 -0.715586	 0.970948	 -1.210718
H	 -0.508072	 1.829858	 0.297090
C	 1.265848	 -0.576057	 -0.984640
H	 0.101145	 -0.932629	 0.790067
H	 1.165785	 0.442081	 0.906501
C	 2.428536	 -1.497090	 -0.616497
H	 0.588846	 -1.101472	 -1.654956
H	 1.645363	 0.277784	 -1.542643
H	 2.076937	 -2.378176	 -0.087389
H	 2.961141	 -1.832693	 -1.501170
H	 3.142303	 -0.989652	 0.026585

	symmetry c1
}
set optking {
	frozen_dihedral = ("
		14 10 7 11,
		2 3 4 8,
		1 2 3 4
	")
}

ee = energy('scf')
oeprop('DIPOLE', 'QUADRUPOLE', 'MULLIKEN_CHARGES')
f=open( 'psi4out.xyz', 'w' )
f.write( "18  " )
f.write( str(ee) + "\n" )
f.write( MOL.save_string_xyz() )
f.close()
--------------------------------------------------------------------------

    Molecular point group: c1

    Geometry (in Angstrom), charge = 0, multiplicity = 1:

       Center              X                  Y                   Z               Mass
    ------------   -----------------  -----------------  -----------------  -----------------
           H         -2.946581095431    -0.882598304177     0.242973133191     1.007825032070
           O         -2.121288095431    -0.539321304177    -0.068198866809    15.994914619560
           C         -1.837496095431     0.673221695823     0.583205133191    12.000000000000
           C         -0.484376095431     1.175741695823     0.109441133191    12.000000000000
           H         -2.603335095431     1.413168695823     0.357581133191     1.007825032070
           H         -1.824646095431     0.532873695823     1.663386133191     1.007825032070
           C          0.675492904569     0.249405695823     0.477433133191    12.000000000000
           H         -0.526706095431     1.303419695823    -0.969123866809     1.007825032070
           H         -0.319192095431     2.162329695823     0.538684133191     1.007825032070
           C          1.454727904569    -0.243585304177    -0.743045866809    12.000000000000
           H          0.290024904569    -0.600157304177     1.031661133191     1.007825032070
           H          1.354664904569     0.774552695823     1.148095133191     1.007825032070
           C          2.617415904569    -1.164618304177    -0.374902866809    12.000000000000
           H          0.777725904569    -0.769000304177    -1.413361866809     1.007825032070
           H          1.834242904569     0.610255695823    -1.301048866809     1.007825032070
           H          2.265816904569    -2.045704304177     0.154205133191     1.007825032070
           H          3.150020904569    -1.500221304177    -1.259575866809     1.007825032070
           H          3.331182904569    -0.657180304177     0.268179133191     1.007825032070

  Charge       = 0
  Multiplicity = 1
  Basis Set: 6-31G*
  Basis Set:

    Orbital Energies (a.u.)
    -----------------------

    Doubly Occupied:

       1A    -20.553913     2A    -11.268175     3A    -11.210519
       4A    -11.206943     5A    -11.205593     6A    -11.201451
       7A     -1.360482     8A     -1.073390     9A     -1.006716
      10A     -0.911885    11A     -0.817942    12A     -0.782174
      13A     -0.705333    14A     -0.641003    15A     -0.620536
      16A     -0.580887    17A     -0.569182    18A     -0.558845
      19A     -0.520670    20A     -0.500277    21A     -0.486845
      22A     -0.466266    23A     -0.451041    24A     -0.446269
      25A     -0.429650

  @DF-RHF Final Energy:  -271.17492676693689

   => Energetics <=

    Nuclear Repulsion Energy =            252.0308451759971149
    One-Electron Energy =                -867.2596558378913869
    Two-Electron Energy =                 344.0538838949577212
    DFT Exchange-Correlation Energy =       0.0000000000000000
    Empirical Dispersion Energy =           0.0000000000000000
    PCM Polarization Energy =               0.0000000000000000
    EFP Energy =                            0.0000000000000000
    Total Energy =                       -271.1749267669365508

  Mulliken Charges: (a.u.)
   Center  Symbol    Alpha    Beta     Spin     Total
       1     H     0.28044  0.28044  0.00000  0.43911
       2     O     4.36947  4.36947  0.00000 -0.73893
       3     C     3.00054  3.00054  0.00000 -0.00108
       4     C     3.16234  3.16234  0.00000 -0.32468
       5     H     0.42982  0.42982  0.00000  0.14036
       6     H     0.43241  0.43241  0.00000  0.13519
       7     C     3.15201  3.15201  0.00000 -0.30403
       8     H     0.41230  0.41230  0.00000  0.17541
       9     H     0.42153  0.42153  0.00000  0.15693
      10     C     3.15480  3.15480  0.00000 -0.30960
      11     H     0.41370  0.41370  0.00000  0.17260
      12     H     0.42518  0.42518  0.00000  0.14963
      13     C     3.24004  3.24004  0.00000 -0.48008
      14     H     0.41407  0.41407  0.00000  0.17187
      15     H     0.42544  0.42544  0.00000  0.14913
      16     H     0.42133  0.42133  0.00000  0.15734
      17     H     0.42064  0.42064  0.00000  0.15872
      18     H     0.42394  0.42394  0.00000  0.15212

   Total alpha = 25.00000, Total beta = 25.00000, Total charge = -0.00000
