  ==> Input File <==

--------------------------------------------------------------------------
set {
	reference rhf
	basis 6-31G*
}

set_num_threads( 4 )
memory 2 gb

molecule MOL {
0 1

O	 0.129845	 0.277966	 -1.928915
C	 -0.224835	 -0.411512	 -1.028806
C	 -1.585278	 -1.040673	 -0.902637
O	 0.550821	 -0.724572	 0.000672
H	 -1.486208	 -2.118406	 -0.844659
H	 -2.189888	 -0.769533	 -1.755175
H	 -2.060177	 -0.704841	 0.011840
C	 1.863949	 -0.193559	 -0.000319
H	 2.028859	 0.409284	 -0.881648
H	 2.526261	 -1.045082	 -0.000003
H	 2.029520	 0.410555	 0.880008

	symmetry c1
}
set optking {
	frozen_dihedral = ("
		2 4 8 9
	")
}

ee = optimize('scf')
oeprop('DIPOLE', 'QUADRUPOLE', 'MULLIKEN_CHARGES')
f=open( 'psi4out.xyz', 'w' )
f.write( "11  " )
f.write( str(ee) + "\n" )
f.write( MOL.save_string_xyz() )
f.close()
--------------------------------------------------------------------------

    Molecular point group: c1
  Charge       = 0
  Multiplicity = 1
  Basis Set: 6-31G*
  Basis Set:
  @DF-RHF Final Energy:  -266.83326758408214
    Total Energy =                       -266.8332675840819093
    Molecular point group: c1
  Basis Set: 6-31G*
  Basis Set:
  Basis Set: 6-31G*
  Basis Set:
  @DF-RHF Final Energy:  -266.83370342225714
    Total Energy =                       -266.8337034222572584
  Basis Set: 6-31G*
  Basis Set:
  Basis Set: 6-31G*
  Basis Set:
  @DF-RHF Final Energy:  -266.83428432138425
    Total Energy =                       -266.8342843213843594
  Basis Set: 6-31G*
  Basis Set:
  Basis Set: 6-31G*
  Basis Set:
  @DF-RHF Final Energy:  -266.83409819196459
    Total Energy =                       -266.8340981919646993
  Basis Set: 6-31G*
  Basis Set:
  Basis Set: 6-31G*
  Basis Set:
  @DF-RHF Final Energy:  -266.83429605911641
    Total Energy =                       -266.8342960591164683
  Basis Set: 6-31G*
  Basis Set:
  Charge       = 0
  Multiplicity = 1
  Basis Set: 6-31G*
  Basis Set:

    Orbital Energies (a.u.)
    -----------------------

    Doubly Occupied:

       1A    -20.604765     2A    -20.545691     3A    -11.377921
       4A    -11.280545     5A    -11.233994     6A     -1.468282
       7A     -1.364996     8A     -1.035958     9A     -0.953426
      10A     -0.777089    11A     -0.697011    12A     -0.678585
      13A     -0.676958    14A     -0.597450    15A     -0.591058
      16A     -0.560469    17A     -0.528987    18A     -0.518651
      19A     -0.453750    20A     -0.442649

  @DF-RHF Final Energy:  -266.83429645172970

   => Energetics <=

    Nuclear Repulsion Energy =            182.8262041696964957
    One-Electron Energy =                -726.5445310937117256
    Two-Electron Energy =                 276.8840304722859855
    DFT Exchange-Correlation Energy =       0.0000000000000000
    Empirical Dispersion Energy =           0.0000000000000000
    PCM Polarization Energy =               0.0000000000000000
    EFP Energy =                            0.0000000000000000
    Total Energy =                       -266.8342964517291875
    Molecular point group: c1
  Basis Set: 6-31G*
  Basis Set:

  -Total Gradient:
     Atom            X                  Y                   Z
    ------   -----------------  -----------------  -----------------
       1        0.000054054856     0.000003220410     0.000062476929
       2       -0.000017760357    -0.000026647763    -0.000038428827
       3       -0.000026949037    -0.000003250556     0.000001897217
       4        0.000016345050     0.000067803328     0.000006956461
       5       -0.000003530290     0.000000748059     0.000000498386
       6       -0.000004689267    -0.000004537603     0.000003935598
       7       -0.000005295104    -0.000002549347     0.000000050549
       8       -0.000018816776    -0.000060867055    -0.000024988202
       9       -0.000006923900     0.000012324897    -0.000009039454
      10        0.000035311530     0.000013265858     0.000001724007
      11       -0.000021746704     0.000000489770    -0.000005082669

  **** Optimization is complete! (in 6 steps) ****
    Final optimized geometry and variables:
    Molecular point group: c1

    Geometry (in Angstrom), charge = 0, multiplicity = 1:

    O           -0.072289778640     0.695390372274    -1.186526336971
    C           -0.395127201958     0.008521792621    -0.272962725314
    C           -1.748231893586    -0.629797814325    -0.113520841674
    O            0.395376582366    -0.298826135303     0.748694799728
    H           -1.639584632405    -1.706382168868    -0.051964222995
    H           -2.373448268119    -0.367607388557    -0.953797508600
    H           -2.204897958294    -0.292594057799     0.809732924686
    C            1.718995819040     0.209168177432     0.783331163882
    H            1.919610297867     0.817468429556    -0.082196587872
    H            2.397096644923    -0.631986567656     0.815883209754
    H            1.826422715580     0.794237033953     1.685850057841

  Mulliken Charges: (a.u.)
   Center  Symbol    Alpha    Beta     Spin     Total
       1     O     4.28167  4.28167  0.00000 -0.56335
       2     C     2.62204  2.62204  0.00000  0.75592
       3     C     3.28216  3.28216  0.00000 -0.56432
       4     O     4.30166  4.30166  0.00000 -0.60333
       5     H     0.40009  0.40009  0.00000  0.19981
       6     H     0.39683  0.39683  0.00000  0.20635
       7     H     0.40008  0.40008  0.00000  0.19983
       8     C     3.09885  3.09885  0.00000 -0.19770
       9     H     0.39278  0.39278  0.00000  0.21444
      10     H     0.41191  0.41191  0.00000  0.17618
      11     H     0.41191  0.41191  0.00000  0.17617

   Total alpha = 20.00000, Total beta = 20.00000, Total charge =  0.00000
