  ==> Input File <==

--------------------------------------------------------------------------
set {
	reference rhf
	basis cc-pvtz
}

set_num_threads( 4 )
memory 2 gb

molecule MOL {
0 1

O	 -1.278239	 1.034789	 -0.784693
C	 -1.204115	 0.062668	 -0.112312
C	 -2.386398	 -0.667698	 0.460323
O	 -0.068058	 -0.518372	 0.226882
H	 -2.382952	 -1.693172	 0.114333
H	 -3.296656	 -0.175702	 0.158400
H	 -2.312537	 -0.685191	 1.540100
C	 1.169086	 0.037484	 -0.230612
C	 0.860363	 0.741619	 -1.536751
C	 2.204807	 -1.062408	 -0.379360
H	 1.503756	 0.752181	 0.505793
H	 0.115353	 1.512871	 -1.388830
H	 1.757850	 1.203374	 -1.930463
H	 0.484958	 0.039910	 -2.272014
H	 3.138671	 -0.645030	 -0.737403
H	 2.392301	 -1.544262	 0.570014
H	 1.868320	 -1.807263	 -1.091577

	symmetry c1
}
set optking {
	frozen_dihedral = ("
		11 8 4 2
	")
}

ee = optimize('scf')
oeprop('DIPOLE', 'QUADRUPOLE', 'MULLIKEN_CHARGES')
f=open( 'psi4out.xyz', 'w' )
f.write( "17  " )
f.write( str(ee) + "\n" )
f.write( MOL.save_string_xyz() )
f.close()
--------------------------------------------------------------------------

    Molecular point group: c1
  Charge       = 0
  Multiplicity = 1
  Basis Set: CC-PVTZ
  Basis Set:
  @DF-RHF Final Energy:  -344.99310996607761
    Total Energy =                       -344.9931099660772702
    Molecular point group: c1
  Basis Set: CC-PVTZ
  Basis Set:
  Basis Set: CC-PVTZ
  Basis Set:
  @DF-RHF Final Energy:  -345.02513445676630
    Total Energy =                       -345.0251344567666365
  Basis Set: CC-PVTZ
  Basis Set:
  Basis Set: CC-PVTZ
  Basis Set:
  @DF-RHF Final Energy:  -345.03187197467105
    Total Energy =                       -345.0318719746711622
  Basis Set: CC-PVTZ
  Basis Set:
  Basis Set: CC-PVTZ
  Basis Set:
  @DF-RHF Final Energy:  -345.03030361931786
    Total Energy =                       -345.0303036193175785
  Basis Set: CC-PVTZ
  Basis Set:
  @DF-RHF Final Energy:  -345.03474688013580
    Total Energy =                       -345.0347468801360833
  @DF-RHF Final Energy:  -345.03502490151919
    Total Energy =                       -345.0350249015192503
  @DF-RHF Final Energy:  -345.03505154535287
    Total Energy =                       -345.0350515453529283
  @DF-RHF Final Energy:  -345.03505859911570
    Total Energy =                       -345.0350585991157004
  @DF-RHF Final Energy:  -345.03506119829922
    Total Energy =                       -345.0350611982989335
  @DF-RHF Final Energy:  -345.03506284508967
    Total Energy =                       -345.0350628450896693
  Basis Set: CC-PVTZ
  Basis Set:
  @DF-RHF Final Energy:  -345.03506401972930
    Total Energy =                       -345.0350640197296457
  Basis Set: CC-PVTZ
  Basis Set:
  Basis Set: CC-PVTZ
  Basis Set:
  @DF-RHF Final Energy:  -345.03504866217179
    Total Energy =                       -345.0350486621721871
  Basis Set: CC-PVTZ
  Basis Set:
  Basis Set: CC-PVTZ
  Basis Set:
  @DF-RHF Final Energy:  -345.03506417882716
    Total Energy =                       -345.0350641788270423
  Basis Set: CC-PVTZ
  Basis Set:
  Charge       = 0
  Multiplicity = 1
  Basis Set: CC-PVTZ
  Basis Set:

    Orbital Energies (a.u.)
    -----------------------

    Doubly Occupied:

       1A    -20.589329     2A    -20.529409     3A    -11.366707
       4A    -11.294412     5A    -11.228849     6A    -11.217552
       7A    -11.211648     8A     -1.463893     9A     -1.364430
      10A     -1.080955    11A     -1.004063    12A     -0.947077
      13A     -0.859280    14A     -0.750975    15A     -0.692543
      16A     -0.681267    17A     -0.659928    18A     -0.615925
      19A     -0.586766    20A     -0.579611    21A     -0.553222
      22A     -0.548301    23A     -0.544275    24A     -0.518369
      25A     -0.503185    26A     -0.486852    27A     -0.447805
      28A     -0.432230

  @DF-RHF Final Energy:  -345.03506441073642

   => Energetics <=

    Nuclear Repulsion Energy =            324.2221365753305804
    One-Electron Energy =               -1112.9966806361446743
    Two-Electron Energy =                 443.7394796500773282
    DFT Exchange-Correlation Energy =       0.0000000000000000
    Empirical Dispersion Energy =           0.0000000000000000
    PCM Polarization Energy =               0.0000000000000000
    EFP Energy =                            0.0000000000000000
    Total Energy =                       -345.0350644107368225
    Molecular point group: c1
  Basis Set: CC-PVTZ
  Basis Set:

  -Total Gradient:
     Atom            X                  Y                   Z
    ------   -----------------  -----------------  -----------------
       1        0.000004160367    -0.000026819150    -0.000011370172
       2       -0.000521471829    -0.003380169369    -0.004708493838
       3        0.000011956890    -0.000002166679    -0.000024543633
       4        0.001500783674     0.004104571744     0.007798684239
       5       -0.000000558831    -0.000006746148     0.000005311692
       6        0.000008147728     0.000005387697    -0.000000990367
       7       -0.000000107800     0.000003125306     0.000012247890
       8       -0.004040668374     0.003701085444    -0.005844148136
       9       -0.000110598830    -0.000027007933    -0.000008053857
      10       -0.000114181166    -0.000040236069     0.000029231691
      11        0.003168003045    -0.004359432536     0.002709186743
      12        0.000031775117     0.000017447187     0.000015813895
      13        0.000004207269     0.000011589857     0.000000598835
      14        0.000029460187     0.000019990878     0.000017302160
      15       -0.000004698982    -0.000005592884     0.000022216069
      16        0.000017132988    -0.000015931935    -0.000005081832
      17        0.000016658551     0.000000904594    -0.000007911379

  **** Optimization is complete! (in 14 steps) ****
    Final optimized geometry and variables:
    Molecular point group: c1

    Geometry (in Angstrom), charge = 0, multiplicity = 1:

    O           -1.363267374040     1.190489665416    -0.167705966764
    C           -1.145081827879     0.131466396415     0.312789608441
    C           -2.214642896719    -0.806899632528     0.802414327421
    O            0.054567755543    -0.377614409666     0.519831493626
    H           -2.178684537633    -1.725371963607     0.230274922019
    H           -3.180811558327    -0.341499965242     0.693828172709
    H           -2.033778372090    -1.058936472200     1.839003941571
    C            1.276970055593     0.150501744377    -0.017265075902
    C            1.168608101846     0.772893182576    -1.398737603712
    C            2.227278948454    -1.036837050204    -0.015536825653
    H            1.651101405205     0.864784221041     0.706266725389
    H            0.621455090384     1.698821462077    -1.395359615619
    H            2.173114930507     0.958587586362    -1.760936535062
    H            0.687203576977     0.088861092963    -2.088670529939
    H            3.226141270063    -0.714808585416    -0.283645363352
    H            2.264713919943    -1.491674168130     0.965546431614
    H            1.904314617338    -1.786679648904    -0.728242360353

  Mulliken Charges: (a.u.)
   Center  Symbol    Alpha    Beta     Spin     Total
       1     O     4.19875  4.19875  0.00000 -0.39750
       2     C     2.80770  2.80770  0.00000  0.38461
       3     C     3.13785  3.13785  0.00000 -0.27570
       4     O     4.16064  4.16064  0.00000 -0.32128
       5     H     0.44774  0.44774  0.00000  0.10452
       6     H     0.43864  0.43864  0.00000  0.12272
       7     H     0.44486  0.44486  0.00000  0.11027
       8     C     2.93123  2.93123  0.00000  0.13753
       9     C     3.16190  3.16190  0.00000 -0.32379
      10     C     3.13792  3.13792  0.00000 -0.27584
      11     H     0.44900  0.44900  0.00000  0.10201
      12     H     0.42648  0.42648  0.00000  0.14704
      13     H     0.45054  0.45054  0.00000  0.09891
      14     H     0.45173  0.45173  0.00000  0.09654
      15     H     0.45528  0.45528  0.00000  0.08943
      16     H     0.44587  0.44587  0.00000  0.10827
      17     H     0.45387  0.45387  0.00000  0.09226

   Total alpha = 28.00000, Total beta = 28.00000, Total charge = -0.00000
