  ==> Input File <==

--------------------------------------------------------------------------
set {
	reference rhf
	basis 6-31G*
}

set_num_threads( 4 )
memory 2 gb

molecule MOL {
0 1

H	 2.797192	 -0.602787	 -0.084129
O	 2.108297	 -0.031062	 -0.391119
C	 1.135793	 0.118896	 0.612333
C	 0.031547	 1.023609	 0.088541
H	 1.573487	 0.566369	 1.502884
H	 0.733485	 -0.849404	 0.901549
C	 -1.134819	 0.293262	 -0.585751
H	 0.474374	 1.714721	 -0.623187
H	 -0.338529	 1.620940	 0.920081
C	 -1.917817	 -0.639439	 0.339494
H	 -0.758119	 -0.268455	 -1.433105
H	 -1.813832	 1.041889	 -0.986690
H	 -2.777680	 -1.057197	 -0.174994
H	 -1.310268	 -1.471279	 0.680599
H	 -2.283753	 -0.111424	 1.216626

	symmetry c1
}
set optking {
	frozen_dihedral = ("
		2 3 4 8
	")
}

ee = optimize('scf')
oeprop('DIPOLE', 'QUADRUPOLE', 'MULLIKEN_CHARGES')
f=open( 'psi4out.xyz', 'w' )
f.write( "15  " )
f.write( str(ee) + "\n" )
f.write( MOL.save_string_xyz() )
f.close()
--------------------------------------------------------------------------

    Molecular point group: c1
  Charge       = 0
  Multiplicity = 1
  Basis Set: 6-31G*
  Basis Set:
  @DF-RHF Final Energy:  -232.13975804573116
    Total Energy =                       -232.1397580457309573
    Molecular point group: c1
  Basis Set: 6-31G*
  Basis Set:
  Basis Set: 6-31G*
  Basis Set:
  @DF-RHF Final Energy:  -232.14033481055586
    Total Energy =                       -232.1403348105556574
  Basis Set: 6-31G*
  Basis Set:
  Basis Set: 6-31G*
  Basis Set:
  @DF-RHF Final Energy:  -232.14068943285997
    Total Energy =                       -232.1406894328599719
  Basis Set: 6-31G*
  Basis Set:
  Basis Set: 6-31G*
  Basis Set:
  @DF-RHF Final Energy:  -232.14068379313721
    Total Energy =                       -232.1406837931370433
  Basis Set: 6-31G*
  Basis Set:
  Basis Set: 6-31G*
  Basis Set:
  @DF-RHF Final Energy:  -232.14071762698612
    Total Energy =                       -232.1407176269862589
  Basis Set: 6-31G*
  Basis Set:
  Basis Set: 6-31G*
  Basis Set:
  @DF-RHF Final Energy:  -232.14072302791584
    Total Energy =                       -232.1407230279156124
  Basis Set: 6-31G*
  Basis Set:
  Charge       = 0
  Multiplicity = 1
  Basis Set: 6-31G*
  Basis Set:

    Orbital Energies (a.u.)
    -----------------------

    Doubly Occupied:

       1A    -20.552230     2A    -11.267430     3A    -11.212823
       4A    -11.211427     5A    -11.208405     6A     -1.358367
       7A     -1.065554     8A     -0.969877     9A     -0.868064
      10A     -0.779940    11A     -0.703900    12A     -0.646396
      13A     -0.604150    14A     -0.581856    15A     -0.559358
      16A     -0.535991    17A     -0.508705    18A     -0.475208
      19A     -0.470926    20A     -0.453700    21A     -0.428792

  @DF-RHF Final Energy:  -232.14072312333258

   => Energetics <=

    Nuclear Repulsion Energy =            189.4615112394309335
    One-Electron Energy =                -690.2782676469314538
    Two-Electron Energy =                 268.6760332841678292
    DFT Exchange-Correlation Energy =       0.0000000000000000
    Empirical Dispersion Energy =           0.0000000000000000
    PCM Polarization Energy =               0.0000000000000000
    EFP Energy =                            0.0000000000000000
    Total Energy =                       -232.1407231233326911
    Molecular point group: c1
  Basis Set: 6-31G*
  Basis Set:

  -Total Gradient:
     Atom            X                  Y                   Z
    ------   -----------------  -----------------  -----------------
       1       -0.000011833355     0.000004658759     0.000008327785
       2        0.001690245405     0.002881739963     0.001347398672
       3       -0.002321538853    -0.004273387664    -0.002490282293
       4        0.001485068694     0.004195084089     0.004692761108
       5       -0.000013547124     0.000013025460     0.000001341406
       6       -0.000015927241    -0.000001552120     0.000006384670
       7       -0.000008131628     0.000028787989     0.000002308358
       8       -0.000849178827    -0.002852455932    -0.003575204850
       9       -0.000006606107     0.000005844032     0.000004323610
      10        0.000032893999    -0.000009698866     0.000006973126
      11       -0.000000271635    -0.000011534688     0.000014093975
      12        0.000010789411     0.000017499159    -0.000009274390
      13        0.000001496271     0.000008918438    -0.000010172718
      14       -0.000003601906    -0.000011671086     0.000008466812
      15        0.000010142896     0.000004742468    -0.000007445271

  **** Optimization is complete! (in 7 steps) ****
    Final optimized geometry and variables:
    Molecular point group: c1

    Geometry (in Angstrom), charge = 0, multiplicity = 1:

    H            2.703354378097    -0.692998363431    -0.253779508729
    O            2.012241865932    -0.082486944509    -0.467798594690
    C            1.080367454857    -0.035422269476     0.585875201162
    C           -0.079091358731     0.857407557109     0.149238546942
    H            1.552942333943     0.376190275555     1.475627518456
    H            0.734935376025    -1.035210970559     0.836913438370
    C           -1.201141506492     0.109753701088    -0.584218355121
    H            0.336431224329     1.590815710892    -0.533410980885
    H           -0.487573044769     1.386497677135     1.006051979173
    C           -2.086941112461    -0.743309606247     0.325472708760
    H           -0.760152558858    -0.511022214768    -1.359879721494
    H           -1.827617056676     0.836539582013    -1.094877970596
    H           -2.866016857252    -1.238787118863    -0.245703385520
    H           -1.522381326412    -1.515308430117     0.839589409684
    H           -2.571047628655    -0.131184855288     1.081739014530

  Mulliken Charges: (a.u.)
   Center  Symbol    Alpha    Beta     Spin     Total
       1     H     0.28148  0.28148  0.00000  0.43703
       2     O     4.37128  4.37128  0.00000 -0.74256
       3     C     2.99755  2.99755  0.00000  0.00490
       4     C     3.16283  3.16283  0.00000 -0.32567
       5     H     0.42947  0.42947  0.00000  0.14106
       6     H     0.43048  0.43048  0.00000  0.13904
       7     C     3.15813  3.15813  0.00000 -0.31627
       8     H     0.40561  0.40561  0.00000  0.18878
       9     H     0.42259  0.42259  0.00000  0.15482
      10     C     3.24129  3.24129  0.00000 -0.48257
      11     H     0.41439  0.41439  0.00000  0.17121
      12     H     0.42049  0.42049  0.00000  0.15901
      13     H     0.41847  0.41847  0.00000  0.16306
      14     H     0.42330  0.42330  0.00000  0.15340
      15     H     0.42262  0.42262  0.00000  0.15476

   Total alpha = 21.00000, Total beta = 21.00000, Total charge = -0.00000
