  ==> Input File <==

--------------------------------------------------------------------------
set {
	reference rhf
	basis cc-pvtz
}

set_num_threads( 4 )
memory 2 gb

molecule MOL {
0 1

H	 -0.497530	 -1.633399	 0.150027
N	 -0.625934	 -0.663929	 -0.000707
C	 -1.968505	 -0.173022	 -0.204689
C	 0.468494	 0.129045	 -0.002160
H	 -2.420425	 -0.630030	 -1.076985
H	 -1.921113	 0.892024	 -0.354775
H	 -2.592302	 -0.377852	 0.657262
C	 1.785715	 -0.615093	 0.000603
O	 0.413285	 1.323206	 0.000532
H	 1.866994	 -1.243310	 -0.878792
H	 2.591506	 0.100263	 0.006422
H	 1.860358	 -1.250360	 0.875522

	symmetry c1
}
set optking {
	frozen_dihedral = ("
		3 2 4 9
	")
}

ee = optimize('scf')
oeprop('DIPOLE', 'QUADRUPOLE', 'MULLIKEN_CHARGES')
f=open( 'psi4out.xyz', 'w' )
f.write( "12  " )
f.write( str(ee) + "\n" )
f.write( MOL.save_string_xyz() )
f.close()
--------------------------------------------------------------------------

    Molecular point group: c1
  Charge       = 0
  Multiplicity = 1
  Basis Set: CC-PVTZ
  Basis Set:
  @DF-RHF Final Energy:  -247.09991303139546
    Total Energy =                       -247.0999130313955447
    Molecular point group: c1
  Basis Set: CC-PVTZ
  Basis Set:
  Basis Set: CC-PVTZ
  Basis Set:
  @DF-RHF Final Energy:  -247.10029680862928
    Total Energy =                       -247.1002968086291389
  Basis Set: CC-PVTZ
  Basis Set:
  Basis Set: CC-PVTZ
  Basis Set:
  @DF-RHF Final Energy:  -247.10057040433745
    Total Energy =                       -247.1005704043374749
  Basis Set: CC-PVTZ
  Basis Set:
  Basis Set: CC-PVTZ
  Basis Set:
  @DF-RHF Final Energy:  -247.10070802462013
    Total Energy =                       -247.1007080246200189
  Basis Set: CC-PVTZ
  Basis Set:
  @DF-RHF Final Energy:  -247.10073195867588
    Total Energy =                       -247.1007319586757376
  @DF-RHF Final Energy:  -247.10090070086997
    Total Energy =                       -247.1009007008697722
  @DF-RHF Final Energy:  -247.10107369036328
    Total Energy =                       -247.1010736903633642
  @DF-RHF Final Energy:  -247.10124054173610
    Total Energy =                       -247.1012405417361606
  Basis Set: CC-PVTZ
  Basis Set:
  @DF-RHF Final Energy:  -247.10125443970441
    Total Energy =                       -247.1012544397044621
  Basis Set: CC-PVTZ
  Basis Set:
  Basis Set: CC-PVTZ
  Basis Set:
  @DF-RHF Final Energy:  -247.10131578783970
    Total Energy =                       -247.1013157878396100
  Basis Set: CC-PVTZ
  Basis Set:
  Basis Set: CC-PVTZ
  Basis Set:
  @DF-RHF Final Energy:  -247.10132365640158
    Total Energy =                       -247.1013236564016324
  Basis Set: CC-PVTZ
  Basis Set:
  Charge       = 0
  Multiplicity = 1
  Basis Set: CC-PVTZ
  Basis Set:

    Orbital Energies (a.u.)
    -----------------------

    Doubly Occupied:

       1A    -20.506584     2A    -15.576101     3A    -11.335851
       4A    -11.253808     5A    -11.228748     6A     -1.389131
       7A     -1.231341     8A     -1.016271     9A     -0.933485
      10A     -0.788411    11A     -0.690832    12A     -0.651971
      13A     -0.636040    14A     -0.586310    15A     -0.582900
      16A     -0.555965    17A     -0.547785    18A     -0.506394
      19A     -0.418184    20A     -0.392063

  @DF-RHF Final Energy:  -247.10132423850396

   => Energetics <=

    Nuclear Repulsion Energy =            181.8769171057162168
    One-Electron Energy =                -696.3001341153585599
    Two-Electron Energy =                 267.3218927711384367
    DFT Exchange-Correlation Energy =       0.0000000000000000
    Empirical Dispersion Energy =           0.0000000000000000
    PCM Polarization Energy =               0.0000000000000000
    EFP Energy =                            0.0000000000000000
    Total Energy =                       -247.1013242385039348
    Molecular point group: c1
  Basis Set: CC-PVTZ
  Basis Set:

  -Total Gradient:
     Atom            X                  Y                   Z
    ------   -----------------  -----------------  -----------------
       1        0.000018403866    -0.000004194810     0.000006290072
       2       -0.000042899962     0.001249810399     0.002068720916
       3        0.000043898942    -0.000615316756    -0.000958366380
       4       -0.000107691537    -0.001131929975    -0.002401573634
       5       -0.000007976719     0.000002168301    -0.000007175308
       6       -0.000008433974     0.000006465533     0.000013756326
       7        0.000020048085    -0.000004145825    -0.000004152130
       8        0.000016167955    -0.000007278894     0.000018230267
       9        0.000074407309     0.000525460300     0.001267048979
      10       -0.000005940293    -0.000003967249    -0.000000549586
      11       -0.000003765100    -0.000008834189    -0.000000674165
      12        0.000003781430    -0.000008236834    -0.000001555361

  **** Optimization is complete! (in 12 steps) ****
    Final optimized geometry and variables:
    Molecular point group: c1

    Geometry (in Angstrom), charge = 0, multiplicity = 1:

    H           -0.521280170078    -1.510451929717     0.652163306515
    N           -0.632035260118    -0.568228157360     0.371728527975
    C           -1.962845942748    -0.108524599014     0.043646817372
    C            0.466354736223     0.104486312339    -0.038045263547
    H           -2.173845587720    -0.197674746126    -1.015790674275
    H           -2.072224303892     0.927789355704     0.323098917273
    H           -2.680847728082    -0.698029149974     0.596255384176
    C            1.785825810240    -0.602329970549     0.173317779837
    O            0.405482983554     1.190709010079    -0.533392815777
    H            2.066292389336    -1.092381343614    -0.751904462665
    H            2.540249863808     0.133128051065     0.406715972939
    H            1.743008063183    -1.344712294846     0.959504389546

  Mulliken Charges: (a.u.)
   Center  Symbol    Alpha    Beta     Spin     Total
       1     H     0.41367  0.41367  0.00000  0.17266
       2     N     3.61336  3.61336  0.00000 -0.22672
       3     C     3.07806  3.07806  0.00000 -0.15612
       4     C     2.84119  2.84119  0.00000  0.31763
       5     H     0.45669  0.45669  0.00000  0.08663
       6     H     0.44029  0.44029  0.00000  0.11943
       7     H     0.45513  0.45513  0.00000  0.08974
       8     C     3.14715  3.14715  0.00000 -0.29430
       9     O     4.21722  4.21722  0.00000 -0.43444
      10     H     0.44472  0.44472  0.00000  0.11056
      11     H     0.43598  0.43598  0.00000  0.12804
      12     H     0.45656  0.45656  0.00000  0.08689

   Total alpha = 20.00000, Total beta = 20.00000, Total charge =  0.00000
