  ==> Input File <==

--------------------------------------------------------------------------
set {
	reference rhf
	basis 6-31G*
}

set_num_threads( 4 )
memory 2 gb

molecule MOL {
0 1

H	 -3.892951	 0.981613	 -0.358725
C	 -3.196921	 0.361773	 0.172313
C	 -2.076860	 -0.007332	 -0.404944
H	 -3.439953	 0.057760	 1.173024
O	 -1.272648	 -0.963891	 0.129002
H	 -1.739933	 0.407710	 -1.338441
C	 -0.027703	 -1.170602	 -0.444784
C	 1.015437	 -0.240179	 0.131816
H	 -0.042172	 -1.036322	 -1.520635
H	 0.273281	 -2.183795	 -0.222673
F	 2.191699	 -0.500698	 -0.419857
F	 0.729916	 1.028310	 -0.111584
F	 1.138242	 -0.381362	 1.435417

	symmetry c1
}
set optking {
	frozen_dihedral = ("
		6 3 2 1
	")
}

ee = optimize('scf')
oeprop('DIPOLE', 'QUADRUPOLE', 'MULLIKEN_CHARGES')
f=open( 'psi4out.xyz', 'w' )
f.write( "13  " )
f.write( str(ee) + "\n" )
f.write( MOL.save_string_xyz() )
f.close()
--------------------------------------------------------------------------

    Molecular point group: c1
  Charge       = 0
  Multiplicity = 1
  Basis Set: 6-31G*
  Basis Set:
  @DF-RHF Final Energy:  -527.53388007620288
    Total Energy =                       -527.5338800762029905
    Molecular point group: c1
  Basis Set: 6-31G*
  Basis Set:
  Basis Set: 6-31G*
  Basis Set:
  @DF-RHF Final Energy:  -527.53489582018824
    Total Energy =                       -527.5348958201882397
  Basis Set: 6-31G*
  Basis Set:
  Basis Set: 6-31G*
  Basis Set:
  @DF-RHF Final Energy:  -527.53518896927426
    Total Energy =                       -527.5351889692743725
  Basis Set: 6-31G*
  Basis Set:
  Basis Set: 6-31G*
  Basis Set:
  @DF-RHF Final Energy:  -527.53523682667583
    Total Energy =                       -527.5352368266757139
  Basis Set: 6-31G*
  Basis Set:
  Charge       = 0
  Multiplicity = 1
  Basis Set: 6-31G*
  Basis Set:

    Orbital Energies (a.u.)
    -----------------------

    Doubly Occupied:

       1A    -26.344562     2A    -26.343578     3A    -26.340527
       4A    -20.608479     5A    -11.503100     6A    -11.318863
       7A    -11.299561     8A    -11.215897     9A     -1.741682
      10A     -1.639786    11A     -1.638210    12A     -1.438316
      13A     -1.084117    14A     -1.016503    15A     -0.925282
      16A     -0.836581    17A     -0.830908    18A     -0.821176
      19A     -0.791973    20A     -0.721530    21A     -0.711263
      22A     -0.696092    23A     -0.675735    24A     -0.660530
      25A     -0.654617    26A     -0.643038    27A     -0.635307
      28A     -0.584039    29A     -0.563293    30A     -0.522765
      31A     -0.514137    32A     -0.351647

  @DF-RHF Final Energy:  -527.53523736871693

   => Energetics <=

    Nuclear Repulsion Energy =            413.8341844242976322
    One-Electron Energy =               -1551.3926630129722071
    Two-Electron Energy =                 610.0232412199571854
    DFT Exchange-Correlation Energy =       0.0000000000000000
    Empirical Dispersion Energy =           0.0000000000000000
    PCM Polarization Energy =               0.0000000000000000
    EFP Energy =                            0.0000000000000000
    Total Energy =                       -527.5352373687172758
    Molecular point group: c1
  Basis Set: 6-31G*
  Basis Set:

  -Total Gradient:
     Atom            X                  Y                   Z
    ------   -----------------  -----------------  -----------------
       1       -0.002379319745    -0.003629037712    -0.001685573640
       2        0.004568949814     0.006490095224     0.003412968535
       3       -0.004741208261    -0.006177997247    -0.004098553736
       4       -0.000019169317     0.000014936705    -0.000002870480
       5       -0.000033444220     0.000068398796     0.000009219900
       6        0.002607938613     0.003251458603     0.002374037978
       7       -0.000007306386    -0.000016708579    -0.000013141398
       8        0.000016852818    -0.000025284347    -0.000001661437
       9       -0.000010026039     0.000000488391     0.000006978309
      10       -0.000002268164    -0.000003496099    -0.000004696050
      11       -0.000000051284     0.000011281769     0.000007333172
      12       -0.000001280204     0.000009718295     0.000003533757
      13        0.000000332378     0.000006146204    -0.000007574911

  **** Optimization is complete! (in 5 steps) ****
    Final optimized geometry and variables:
    Molecular point group: c1

    Geometry (in Angstrom), charge = 0, multiplicity = 1:

    H           -3.802378510322     1.271730206082    -0.390602210894
    C           -3.131445555837     0.599961454256     0.108902105389
    C           -2.052079999455     0.173728117658    -0.506026143348
    H           -3.416703082132     0.214281735942     1.069749282993
    O           -1.241542049525    -0.772475671291     0.036784214401
    H           -1.714172924914     0.584476776144    -1.441230440482
    C            0.010316985708    -0.966532188693    -0.526400476220
    C            1.038106322276    -0.019462783877     0.050724200044
    H            0.001367057127    -0.838988154436    -1.603210112387
    H            0.322374567927    -1.974356743939    -0.295672158505
    F            2.221953628475    -0.272100669144    -0.488241981682
    F            0.741061419463     1.243511209376    -0.206860731402
    F            1.150829033154    -0.147550972406     1.356580998049

  Mulliken Charges: (a.u.)
   Center  Symbol    Alpha    Beta     Spin     Total
       1     H     0.40729  0.40729  0.00000  0.18542
       2     C     3.23436  3.23436  0.00000 -0.46872
       3     C     2.89625  2.89625  0.00000  0.20751
       4     H     0.40197  0.40197  0.00000  0.19606
       5     O     4.30123  4.30123  0.00000 -0.60247
       6     H     0.40693  0.40693  0.00000  0.18613
       7     C     3.06381  3.06381  0.00000 -0.12761
       8     C     2.45573  2.45573  0.00000  1.08854
       9     H     0.40568  0.40568  0.00000  0.18864
      10     H     0.38997  0.38997  0.00000  0.22006
      11     F     4.68280  4.68280  0.00000 -0.36560
      12     F     4.67952  4.67952  0.00000 -0.35905
      13     F     4.67446  4.67446  0.00000 -0.34893

   Total alpha = 32.00000, Total beta = 32.00000, Total charge = -0.00000
