                              Psi4 1.0.54 Driver

  ==> Input File <==

--------------------------------------------------------------------------
set {
	reference rhf
	basis cc-pvtz
}

set_num_threads( 4 )
memory 2 gb

molecule MOL {
0 1

H	 -3.034039	 -0.667848	 0.004703
O	 -2.240597	 -1.171748	 0.000934
C	 -1.159675	 -0.364500	 0.000370
C	 -0.325771	 -0.243328	 1.093227
C	 -0.906582	 0.356615	 -1.156346
H	 -0.521228	 -0.799892	 1.991610
C	 0.762993	 0.608085	 1.016317
H	 -1.575480	 0.241397	 -1.987150
C	 0.180913	 1.203368	 -1.232126
H	 1.412366	 0.707297	 1.865578
C	 1.019812	 1.327193	 -0.128992
C	 0.469714	 1.969559	 -2.498297
H	 1.867057	 1.985122	 -0.171027
H	 0.749087	 2.992522	 -2.278479
H	 -0.390722	 1.987109	 -3.153345
H	 1.291896	 1.515108	 -3.040638

	symmetry c1
}
set optking {
	frozen_dihedral = ("
		5 3 2 1
	")
}

ee,wfn = optimize('scf', return_wfn=True)
oeprop( wfn, 'DIPOLE', 'QUADRUPOLE', 'MULLIKEN_CHARGES')
f=open( 'psi4out.xyz', 'w' )
f.write( "16  " )
f.write( str(ee) + "\n" )
f.write( MOL.save_string_xyz() )
f.close()
--------------------------------------------------------------------------

    Molecular point group: c1
  Charge       = 0
  Multiplicity = 1
  Basis Set: CC-PVTZ
  Basis Set:
  @DF-RHF Final Energy:  -344.71547691974411
    Total Energy =                       -344.7154769197440487
    Molecular point group: c1
  Basis Set: CC-PVTZ
  Basis Set:
  Basis Set: CC-PVTZ
  Basis Set:
  @DF-RHF Final Energy:  -344.71662982154174
    Total Energy =                       -344.7166298215422557
  Basis Set: CC-PVTZ
  Basis Set:
  Basis Set: CC-PVTZ
  Basis Set:
  @DF-RHF Final Energy:  -344.71670117208350
    Total Energy =                       -344.7167011720833898
  Basis Set: CC-PVTZ
  Basis Set:
  Basis Set: CC-PVTZ
  Basis Set:
  @DF-RHF Final Energy:  -344.71670774588063
    Total Energy =                       -344.7167077458805124
  Basis Set: CC-PVTZ
  Basis Set:
  Basis Set: CC-PVTZ
  Basis Set:
  @DF-RHF Final Energy:  -344.71670921329314
    Total Energy =                       -344.7167092132931430
  Basis Set: CC-PVTZ
  Basis Set:
  Charge       = 0
  Multiplicity = 1
  Basis Set: CC-PVTZ
  Basis Set:

    Orbital Energies (a.u.)
    -----------------------

    Doubly Occupied:

       1A    -20.570602     2A    -11.287346     3A    -11.240927
       4A    -11.230757     5A    -11.221375     6A    -11.219586
       7A    -11.218341     8A    -11.217885     9A     -1.397707
      10A     -1.155004    11A     -1.047146    12A     -1.007117
      13A     -0.939768    14A     -0.835087    15A     -0.806528
      16A     -0.724653    17A     -0.680481    18A     -0.656935
      19A     -0.620601    20A     -0.594067    21A     -0.578798
      22A     -0.570245    23A     -0.553974    24A     -0.518659
      25A     -0.505170    26A     -0.485026    27A     -0.467855
      28A     -0.334073    29A     -0.320967

  @DF-RHF Final Energy:  -344.71670950505205

   => Energetics <=

    Nuclear Repulsion Energy =            345.8871142223610491
    One-Electron Energy =               -1153.1942910718721578
    Two-Electron Energy =                 462.5904673444592845
    DFT Exchange-Correlation Energy =       0.0000000000000000
    Empirical Dispersion Energy =           0.0000000000000000
    PCM Polarization Energy =               0.0000000000000000
    EFP Energy =                            0.0000000000000000
    Total Energy =                       -344.7167095050517673
    Molecular point group: c1
  Basis Set: CC-PVTZ
  Basis Set:

  -Total Gradient:
     Atom            X                  Y                   Z
    ------   -----------------  -----------------  -----------------
       1        0.000032861246     0.000074830702     0.001667156241
       2        0.000295545527    -0.000583467482    -0.002283044796
       3       -0.001024316855     0.001413455047     0.001059810629
       4        0.000005623316     0.000008504806     0.000002080266
       5        0.000687477207    -0.000893450777    -0.000437440548
       6       -0.000010984110    -0.000007682366    -0.000003505042
       7       -0.000001195326     0.000005101320    -0.000016233372
       8        0.000012901460     0.000001979025     0.000010340982
       9        0.000000361720    -0.000014763649    -0.000024441502
      10       -0.000002226178     0.000000835140     0.000000148866
      11        0.000006815954    -0.000017076124     0.000025868483
      12        0.000004598020     0.000001847419     0.000009172734
      13       -0.000003826428     0.000003618289    -0.000009811245
      14       -0.000006623660     0.000004914210     0.000002491559
      15       -0.000001021975    -0.000001644625    -0.000009760299
      16        0.000004010082     0.000002999063     0.000007167046

  **** Optimization is complete! (in 6 steps) ****
    Final optimized geometry and variables:
    Molecular point group: c1

    Geometry (in Angstrom), charge = 0, multiplicity = 1:

    H           -2.714523123915    -1.172346577269     0.426986732265
    O           -1.901278640985    -1.645431958082     0.432591778901
    C           -0.843602514947    -0.782853589933     0.379286701734
    C           -0.008897128550    -0.675844553372     1.470233590680
    C           -0.580348259999    -0.071351551856    -0.778397561806
    H           -0.221016766846    -1.243581504695     2.354605715683
    C            1.088692896218     0.162488656804     1.395042740635
    H           -1.235399889218    -0.192459021983    -1.620855311715
    C            0.512550547353     0.773613381818    -0.855536871570
    H            1.743266861151     0.254014658604     2.241032513252
    C            1.346668296379     0.884981477887     0.248976682485
    C            0.812669024474     1.535129064843    -2.122360650460
    H            2.200674271610     1.534951566039     0.208674094136
    H            1.099236686973     2.556505074142    -1.904112556040
    H           -0.045639829219     1.559473853733    -2.780385684144
    H            1.632157149333     1.073832552349    -2.662907802624

  Mulliken Charges: (a.u.)
   Center  Symbol    Alpha    Beta     Spin     Total
       1     H     0.38757  0.38757  0.00000  0.22486
       2     O     4.19067  4.19067  0.00000 -0.38134
       3     C     2.85636  2.85636  0.00000  0.28728
       4     C     3.12203  3.12203  0.00000 -0.24405
       5     C     3.14877  3.14877  0.00000 -0.29754
       6     H     0.41676  0.41676  0.00000  0.16647
       7     C     3.05826  3.05826  0.00000 -0.11652
       8     H     0.42283  0.42283  0.00000  0.15433
       9     C     2.94601  2.94601  0.00000  0.10798
      10     H     0.42233  0.42233  0.00000  0.15534
      11     C     3.10913  3.10913  0.00000 -0.21826
      12     C     3.14643  3.14643  0.00000 -0.29286
      13     H     0.42707  0.42707  0.00000  0.14586
      14     H     0.44804  0.44804  0.00000  0.10391
      15     H     0.45144  0.45144  0.00000  0.09712
      16     H     0.44630  0.44630  0.00000  0.10739

   Total alpha = 29.00000, Total beta = 29.00000, Total charge = -0.00000

*** Psi4 exiting successfully. Buy a developer a beer!
