                              Psi4 1.0.54 Driver

  ==> Input File <==

--------------------------------------------------------------------------
set {
	reference rhf
	basis cc-pvtz
}

set_num_threads( 4 )
memory 2 gb

molecule MOL {
0 1

H	 0.594310	 2.016370	 3.681153
O	 1.527275	 1.927019	 3.739660
C	 1.881679	 0.571132	 3.812059
C	 1.710129	 -0.171695	 2.495448
H	 2.922864	 0.553196	 4.104619
H	 1.317586	 0.072934	 4.598218
C	 0.262127	 -0.287167	 2.024487
H	 2.302854	 0.329702	 1.736215
H	 2.129412	 -1.167638	 2.616679
C	 0.126039	 -1.067016	 0.717524
H	 -0.153904	 0.706675	 1.897210
H	 -0.329391	 -0.777715	 2.795691
C	 -1.311023	 -1.277304	 0.237018
H	 0.694122	 -0.562225	 -0.060098
H	 0.590607	 -2.040639	 0.846771
C	 -2.041121	 -0.006551	 -0.194127
H	 -1.292226	 -1.966511	 -0.602725
H	 -1.881917	 -1.772028	 1.019632
C	 -3.489218	 0.042606	 0.286507
H	 -2.022185	 0.066287	 -1.279394
H	 -1.518764	 0.869305	 0.178730
C	 -4.219984	 1.311773	 -0.139038
H	 -4.022855	 -0.824300	 -0.093339
H	 -3.510372	 -0.038577	 1.370031
H	 -4.244251	 1.405725	 -1.219696
H	 -5.244345	 1.313233	 0.215630
H	 -3.732090	 2.196311	 0.257073

	symmetry c1
}
set optking {
	frozen_dihedral = ("
		10 13 16 20
	")
}

ee,wfn = optimize('scf', return_wfn=True)
oeprop( wfn, 'DIPOLE', 'QUADRUPOLE', 'MULLIKEN_CHARGES')
f=open( 'psi4out.xyz', 'w' )
f.write( "27  " )
f.write( str(ee) + "\n" )
f.write( MOL.save_string_xyz() )
f.close()
--------------------------------------------------------------------------

    Molecular point group: c1
  Charge       = 0
  Multiplicity = 1
  Basis Set: CC-PVTZ
  Basis Set:
  @DF-RHF Final Energy:  -388.42322571326753
    Total Energy =                       -388.4232257132680388
    Molecular point group: c1
  Basis Set: CC-PVTZ
  Basis Set:
  Basis Set: CC-PVTZ
  Basis Set:
  @DF-RHF Final Energy:  -388.41874993660059
    Total Energy =                       -388.4187499366005341
  Basis Set: CC-PVTZ
  Basis Set:
  Basis Set: CC-PVTZ
  Basis Set:
  @DF-RHF Final Energy:  -388.42352622708722
    Total Energy =                       -388.4235262270873363
  Basis Set: CC-PVTZ
  Basis Set:
  Basis Set: CC-PVTZ
  Basis Set:
  @DF-RHF Final Energy:  -388.42368554017668
    Total Energy =                       -388.4236855401770754
  Basis Set: CC-PVTZ
  Basis Set:
  Basis Set: CC-PVTZ
  Basis Set:
  @DF-RHF Final Energy:  -388.42373115917070
    Total Energy =                       -388.4237311591707567
  Basis Set: CC-PVTZ
  Basis Set:
  Basis Set: CC-PVTZ
  Basis Set:
  @DF-RHF Final Energy:  -388.42375753519411
    Total Energy =                       -388.4237575351938858
  Basis Set: CC-PVTZ
  Basis Set:
  Charge       = 0
  Multiplicity = 1
  Basis Set: CC-PVTZ
  Basis Set:

    Orbital Energies (a.u.)
    -----------------------

    Doubly Occupied:

       1A    -20.545664     2A    -11.265251     3A    -11.217135
       4A    -11.214837     5A    -11.214354     6A    -11.213481
       7A    -11.212898     8A    -11.211653     9A    -11.207178
      10A     -1.363539    11A     -1.095496    12A     -1.062021
      13A     -1.012280    14A     -0.948863    15A     -0.888591
      16A     -0.821962    17A     -0.798830    18A     -0.781406
      19A     -0.696908    20A     -0.649447    21A     -0.641811
      22A     -0.614248    23A     -0.600966    24A     -0.586955
      25A     -0.579432    26A     -0.554226    27A     -0.546750
      28A     -0.524665    29A     -0.507117    30A     -0.494869
      31A     -0.485794    32A     -0.477800    33A     -0.469258
      34A     -0.458948    35A     -0.450730    36A     -0.441511
      37A     -0.426345

  @DF-RHF Final Energy:  -388.42375752203333

   => Energetics <=

    Nuclear Repulsion Energy =            463.6817610845873219
    One-Electron Energy =               -1445.6446111989421297
    Two-Electron Energy =                 593.5390925923218219
    DFT Exchange-Correlation Energy =       0.0000000000000000
    Empirical Dispersion Energy =           0.0000000000000000
    PCM Polarization Energy =               0.0000000000000000
    EFP Energy =                            0.0000000000000000
    Total Energy =                       -388.4237575220329290
    Molecular point group: c1
  Basis Set: CC-PVTZ
  Basis Set:

  -Total Gradient:
     Atom            X                  Y                   Z
    ------   -----------------  -----------------  -----------------
       1        0.000012310805    -0.000010035070     0.000000954728
       2        0.000014165802     0.000009241860     0.000001658529
       3       -0.000024051143    -0.000023296629     0.000000735993
       4        0.000006652276     0.000029865118    -0.000010641337
       5       -0.000007042210     0.000011504078     0.000000599336
       6       -0.000001584561     0.000007555971     0.000000946284
       7       -0.000006692728    -0.000020876430     0.000016000545
       8        0.000004210993    -0.000002376816    -0.000006927138
       9       -0.000008717453     0.000005020063     0.000002199735
      10       -0.000714295911     0.000103865679     0.002133879733
      11        0.000032669978    -0.000020426293     0.000013957327
      12       -0.000000525150    -0.000007454898     0.000009114876
      13        0.000448951972    -0.000591525916    -0.003011676428
      14       -0.000014456648    -0.000002317815    -0.000008583492
      15       -0.000002067224    -0.000003097347     0.000003349434
      16        0.002779928988     0.002218511973     0.001078534843
      17        0.000013964558    -0.000019090286     0.000012910269
      18        0.000048961592    -0.000005354933     0.000005022264
      19       -0.000024737668     0.000008710288    -0.000091258334
      20       -0.002525705440    -0.001714281655    -0.000125103729
      21       -0.000042952764     0.000015701390    -0.000049966686
      22       -0.000008008203     0.000016851635     0.000042890276
      23        0.000000290449     0.000004141138    -0.000015616613
      24        0.000018992994    -0.000015320819    -0.000014340960
      25        0.000004416480    -0.000014709209     0.000008244722
      26       -0.000003531841     0.000012457888     0.000010414479
      27       -0.000001147934     0.000006737033    -0.000007298655

  **** Optimization is complete! (in 7 steps) ****
    Final optimized geometry and variables:
    Molecular point group: c1

    Geometry (in Angstrom), charge = 0, multiplicity = 1:

    H            0.964524104967     1.549267812203     2.537248665691
    O            1.898413388627     1.644776639552     2.519666388587
    C            2.510974534264     0.395597880134     2.336272548974
    C            2.367300020338    -0.148014591854     0.922696121285
    H            3.558275511786     0.543807864404     2.562412563781
    H            2.125144428608    -0.325063018464     3.054624689336
    C            0.930443190921    -0.467870232518     0.517140295614
    H            2.790675547381     0.573178614656     0.230247405251
    H            2.971307692384    -1.049192042374     0.848418074201
    C            0.827705901620    -1.075223012314    -0.880904911719
    H            0.332977333336     0.437048206654     0.565137191320
    H            0.499740293885    -1.163118367940     1.235286968544
    C           -0.604747088082    -1.369861399965    -1.332570316249
    H            1.304954162956    -0.412216568074    -1.598764252675
    H            1.399203209975    -1.999000705965    -0.897212572121
    C           -1.437555782860    -0.124167630793    -1.687962004998
    H           -0.577529778139    -2.036850721111    -2.187212909919
    H           -1.102869005270    -1.923766720875    -0.540988343087
    C           -2.883529675847    -0.201235308305    -1.200410645366
    H           -1.455149730557    -0.001878544401    -2.766895057725
    H           -0.977185016374     0.771122609842    -1.283875712280
    C           -3.720038508572     1.007188063628    -1.605981652188
    H           -3.344179352795    -1.105764061578    -1.588911520934
    H           -2.890924185643    -0.299150292031    -0.118036726888
    H           -3.766677274735     1.106480587434    -2.685361924819
    H           -4.736212082165     0.923966048660    -1.237777519485
    H           -3.299127943234     1.925551887865    -1.209778570182

  Mulliken Charges: (a.u.)
   Center  Symbol    Alpha    Beta     Spin     Total
       1     H     0.39218  0.39218  0.00000  0.21563
       2     O     4.20567  4.20567  0.00000 -0.41134
       3     C     2.98011  2.98011  0.00000  0.03978
       4     C     3.08903  3.08903  0.00000 -0.17807
       5     H     0.44861  0.44861  0.00000  0.10278
       6     H     0.46935  0.46935  0.00000  0.06131
       7     C     3.10281  3.10281  0.00000 -0.20561
       8     H     0.45050  0.45050  0.00000  0.09900
       9     H     0.45506  0.45506  0.00000  0.08989
      10     C     3.09712  3.09712  0.00000 -0.19423
      11     H     0.45640  0.45640  0.00000  0.08720
      12     H     0.45334  0.45334  0.00000  0.09331
      13     C     3.10151  3.10151  0.00000 -0.20303
      14     H     0.45187  0.45187  0.00000  0.09627
      15     H     0.44786  0.44786  0.00000  0.10428
      16     C     3.09826  3.09826  0.00000 -0.19652
      17     H     0.44460  0.44460  0.00000  0.11079
      18     H     0.45574  0.45574  0.00000  0.08852
      19     C     3.08219  3.08219  0.00000 -0.16438
      20     H     0.44766  0.44766  0.00000  0.10468
      21     H     0.45159  0.45159  0.00000  0.09683
      22     C     3.15011  3.15011  0.00000 -0.30022
      23     H     0.45357  0.45357  0.00000  0.09286
      24     H     0.45628  0.45628  0.00000  0.08744
      25     H     0.45481  0.45481  0.00000  0.09037
      26     H     0.44854  0.44854  0.00000  0.10291
      27     H     0.45523  0.45523  0.00000  0.08953

   Total alpha = 37.00000, Total beta = 37.00000, Total charge =  0.00000

*** Psi4 exiting successfully. Buy a developer a beer!
