  ==> Input File <==

--------------------------------------------------------------------------
set {
	reference rhf
	basis 6-31G*
}

set_num_threads( 1 )
memory 2 gb

molecule MOL {
0 1

H	 -2.129144	 0.952176	 -2.209459
N	 -1.154186	 0.841715	 -2.008883
C	 -0.788779	 -0.563695	 -1.988776
H	 -0.987550	 1.243255	 -1.106604
C	 0.678937	 -0.711441	 -1.646556
H	 -1.368368	 -1.157845	 -1.280917
H	 -0.956533	 -0.979970	 -2.977389
O	 0.874168	 -0.245412	 -0.342030
H	 0.979340	 -1.756456	 -1.719636
H	 1.277763	 -0.133703	 -2.347171
C	 2.202317	 -0.244239	 0.074611
H	 2.711377	 -1.041390	 -0.449894
H	 2.692099	 0.699270	 -0.159667
H	 2.283185	 -0.418429	 1.145558

	symmetry c1
}
set optking {
	frozen_dihedral = ("
		8 5 3 6,
		6 3 2 4,
		11 8 5 3
	")
}

ee = energy('scf')
oeprop('DIPOLE', 'QUADRUPOLE', 'MULLIKEN_CHARGES')
f=open( 'psi4out.xyz', 'w' )
f.write( "14  " )
f.write( str(ee) + "\n" )
f.write( MOL.save_string_xyz() )
f.close()
--------------------------------------------------------------------------

    Molecular point group: c1

    Geometry (in Angstrom), charge = 0, multiplicity = 1:

       Center              X                  Y                   Z               Mass
    ------------   -----------------  -----------------  -----------------  -----------------
           H         -2.495039424386     1.125146613097    -1.043562416031     1.007825032070
           N         -1.520081424386     1.014685613097    -0.842986416031    14.003074004780
           C         -1.154674424386    -0.390724386903    -0.822879416031    12.000000000000
           H         -1.353445424386     1.416225613097     0.059292583969     1.007825032070
           C          0.313041575614    -0.538470386903    -0.480659416031    12.000000000000
           H         -1.734263424386    -0.984874386903    -0.115020416031     1.007825032070
           H         -1.322428424386    -0.806999386903    -1.811492416031     1.007825032070
           O          0.508272575614    -0.072441386903     0.823866583969    15.994914619560
           H          0.613444575614    -1.583485386903    -0.553739416031     1.007825032070
           H          0.911867575614     0.039267613097    -1.181274416031     1.007825032070
           C          1.836421575614    -0.071268386903     1.240507583969    12.000000000000
           H          2.345481575614    -0.868419386903     0.716002583969     1.007825032070
           H          2.326203575614     0.872240613097     1.006229583969     1.007825032070
           H          1.917289575614    -0.245458386903     2.311454583969     1.007825032070

  Charge       = 0
  Multiplicity = 1
  Basis Set: 6-31G*
  Basis Set:

    Orbital Energies (a.u.)
    -----------------------

    Doubly Occupied:

       1A    -20.555137     2A    -15.528354     3A    -11.266497
       4A    -11.266077     5A    -11.240888     6A     -1.380716
       7A     -1.173553     8A     -0.998334     9A     -0.907328
      10A     -0.816395    11A     -0.684574    12A     -0.672722
      13A     -0.642227    14A     -0.612809    15A     -0.605779
      16A     -0.539544    17A     -0.532509    18A     -0.496870
      19A     -0.472147    20A     -0.414608    21A     -0.380092

  @DF-RHF Final Energy:  -248.12214543807485

   => Energetics <=

    Nuclear Repulsion Energy =            194.7424218976061354
    One-Electron Energy =                -723.3547862337981087
    Two-Electron Energy =                 280.4902188981169502
    DFT Exchange-Correlation Energy =       0.0000000000000000
    Empirical Dispersion Energy =           0.0000000000000000
    PCM Polarization Energy =               0.0000000000000000
    EFP Energy =                            0.0000000000000000
    Total Energy =                       -248.1221454380749947

  Mulliken Charges: (a.u.)
   Center  Symbol    Alpha    Beta     Spin     Total
       1     H     0.33288  0.33288  0.00000  0.33425
       2     N     3.92529  3.92529  0.00000 -0.85057
       3     C     3.06868  3.06868  0.00000 -0.13737
       4     H     0.32356  0.32356  0.00000  0.35289
       5     C     2.99164  2.99164  0.00000  0.01673
       6     H     0.42653  0.42653  0.00000  0.14694
       7     H     0.42049  0.42049  0.00000  0.15902
       8     O     4.31140  4.31140  0.00000 -0.62279
       9     H     0.43020  0.43020  0.00000  0.13960
      10     H     0.42227  0.42227  0.00000  0.15546
      11     C     3.07609  3.07609  0.00000 -0.15219
      12     H     0.43067  0.43067  0.00000  0.13865
      13     H     0.42463  0.42463  0.00000  0.15074
      14     H     0.41568  0.41568  0.00000  0.16864

   Total alpha = 21.00000, Total beta = 21.00000, Total charge =  0.00000
