  ==> Input File <==

--------------------------------------------------------------------------
set {
	reference rhf
	basis 6-31G*
}

set_num_threads( 4 )
memory 2 gb

molecule MOL {
0 1

H	 -1.748661	 -2.220942	 -0.005015
C	 -1.343207	 -1.225221	 -0.013879
N	 -0.055091	 -1.100174	 -0.261126
C	 -2.150779	 -0.125890	 0.222726
C	 0.449969	 0.122615	 -0.277109
H	 -3.200618	 -0.238980	 0.422496
N	 -1.660212	 1.097703	 0.209594
C	 -0.371804	 1.219904	 -0.038265
C	 1.928147	 0.267347	 -0.541394
H	 0.029131	 2.217482	 -0.051283
C	 2.529427	 -0.978454	 -1.200525
H	 2.075852	 1.125037	 -1.189017
H	 2.443846	 0.476447	 0.390542
H	 3.585773	 -0.830795	 -1.401345
H	 2.030980	 -1.190437	 -2.139191
H	 2.427641	 -1.848138	 -0.558964

	symmetry c1
}
set optking {
	frozen_dihedral = ("
		12 9 5 3
	")
}

ee = optimize('scf')
oeprop('DIPOLE', 'QUADRUPOLE', 'MULLIKEN_CHARGES')
f=open( 'psi4out.xyz', 'w' )
f.write( "16  " )
f.write( str(ee) + "\n" )
f.write( MOL.save_string_xyz() )
f.close()
--------------------------------------------------------------------------

    Molecular point group: c1
  Charge       = 0
  Multiplicity = 1
  Basis Set: 6-31G*
  Basis Set:
  @DF-RHF Final Energy:  -340.75657610749357
    Total Energy =                       -340.7565761074934017
    Molecular point group: c1
  Basis Set: 6-31G*
  Basis Set:
  Basis Set: 6-31G*
  Basis Set:
  @DF-RHF Final Energy:  -340.75707265552376
    Total Energy =                       -340.7570726555240412
  Basis Set: 6-31G*
  Basis Set:
  Basis Set: 6-31G*
  Basis Set:
  @DF-RHF Final Energy:  -340.75718605234499
    Total Energy =                       -340.7571860523446503
  Basis Set: 6-31G*
  Basis Set:
  Basis Set: 6-31G*
  Basis Set:
  @DF-RHF Final Energy:  -340.75722136013036
    Total Energy =                       -340.7572213601304156
  Basis Set: 6-31G*
  Basis Set:
  Basis Set: 6-31G*
  Basis Set:
  @DF-RHF Final Energy:  -340.75723210335650
    Total Energy =                       -340.7572321033565004
  Basis Set: 6-31G*
  Basis Set:
  Basis Set: 6-31G*
  Basis Set:
  @DF-RHF Final Energy:  -340.75723318122709
    Total Energy =                       -340.7572331812273205
  Basis Set: 6-31G*
  Basis Set:
  Basis Set: 6-31G*
  Basis Set:
  @DF-RHF Final Energy:  -340.75723460355221
    Total Energy =                       -340.7572346035523765
  Basis Set: 6-31G*
  Basis Set:
  Charge       = 0
  Multiplicity = 1
  Basis Set: 6-31G*
  Basis Set:

    Orbital Energies (a.u.)
    -----------------------

    Doubly Occupied:

       1A    -15.586643     2A    -15.581686     3A    -11.283233
       4A    -11.274916     5A    -11.272762     6A    -11.270564
       7A    -11.234702     8A    -11.212240     9A     -1.313263
      10A     -1.221911    11A     -1.083173    12A     -1.013493
      13A     -0.910104    14A     -0.888451    15A     -0.823934
      16A     -0.717801    17A     -0.705287    18A     -0.657561
      19A     -0.627003    20A     -0.603070    21A     -0.566358
      22A     -0.559017    23A     -0.521211    24A     -0.503089
      25A     -0.500621    26A     -0.484462    27A     -0.430371
      28A     -0.394528    29A     -0.344176

  @DF-RHF Final Energy:  -340.75723466496925

   => Energetics <=

    Nuclear Repulsion Energy =            349.6931370453323780
    One-Electron Energy =               -1153.7294798127486501
    Two-Electron Energy =                 463.2791081024469122
    DFT Exchange-Correlation Energy =       0.0000000000000000
    Empirical Dispersion Energy =           0.0000000000000000
    PCM Polarization Energy =               0.0000000000000000
    EFP Energy =                            0.0000000000000000
    Total Energy =                       -340.7572346649693600
    Molecular point group: c1
  Basis Set: 6-31G*
  Basis Set:

  -Total Gradient:
     Atom            X                  Y                   Z
    ------   -----------------  -----------------  -----------------
       1        0.000003481033     0.000000700508    -0.000021624615
       2        0.000007550502     0.000007702087     0.000035683165
       3       -0.000062345700     0.000015473505    -0.000289122807
       4        0.000012549867    -0.000014582839     0.000040210155
       5        0.000065678194    -0.000084382036     0.000362037200
       6       -0.000008001589     0.000005649835    -0.000026723291
       7        0.000024833810     0.000007048054     0.000000449001
       8       -0.000024673868    -0.000000070716    -0.000044576290
       9        0.000027232937     0.000228389117     0.000180448277
      10        0.000005131915     0.000007405672     0.000010990951
      11       -0.000012335885    -0.000016881819     0.000005120847
      12       -0.000028941564    -0.000169980855    -0.000249978192
      13       -0.000012178176    -0.000001554864    -0.000002504229
      14       -0.000000737670     0.000011620107     0.000005169099
      15        0.000000471093    -0.000000544573     0.000002643529
      16        0.000002285105     0.000004008816    -0.000008222800

  **** Optimization is complete! (in 8 steps) ****
    Final optimized geometry and variables:
    Molecular point group: c1

    Geometry (in Angstrom), charge = 0, multiplicity = 1:

    H           -1.767566584336    -2.099039509744     0.247215109942
    C           -1.345025532140    -1.110599608268     0.241638691607
    N           -0.051880579978    -1.009634405898    -0.022535866287
    C           -2.123778645447    -0.002753373109     0.497435560520
    C            0.476954813324     0.195664275727    -0.034261657764
    H           -3.172901074121    -0.093336050963     0.710891029427
    N           -1.606064476652     1.215971377609     0.485314280752
    C           -0.324924348096     1.312285523464     0.221568413561
    C            1.956354559502     0.357856952417    -0.310114750321
    H            0.098376997816     2.301454317666     0.206677747198
    C            2.617421313003    -0.861425918440    -0.947557119831
    H            2.095318396487     1.226505423075    -0.948006388534
    H            2.455605438141     0.592982032757     0.627749273745
    H            3.667286455528    -0.657633267195    -1.131913115402
    H            2.148722132553    -1.111172557694    -1.892833447070
    H            2.544318204520    -1.729165846135    -0.305162055469

  Mulliken Charges: (a.u.)
   Center  Symbol    Alpha    Beta     Spin     Total
       1     H     0.39399  0.39399  0.00000  0.21201
       2     C     2.98885  2.98885  0.00000  0.02229
       3     N     3.75992  3.75992  0.00000 -0.51983
       4     C     2.99987  2.99987  0.00000  0.00025
       5     C     2.86984  2.86984  0.00000  0.26032
       6     H     0.39423  0.39423  0.00000  0.21154
       7     N     3.72954  3.72954  0.00000 -0.45909
       8     C     2.99509  2.99509  0.00000  0.00982
       9     C     3.17482  3.17482  0.00000 -0.34964
      10     H     0.39506  0.39506  0.00000  0.20988
      11     C     3.23576  3.23576  0.00000 -0.47151
      12     H     0.41211  0.41211  0.00000  0.17578
      13     H     0.40753  0.40753  0.00000  0.18494
      14     H     0.42012  0.42012  0.00000  0.15975
      15     H     0.41531  0.41531  0.00000  0.16938
      16     H     0.40795  0.40795  0.00000  0.18410

   Total alpha = 29.00000, Total beta = 29.00000, Total charge = -0.00000
