                              Psi4 1.0.54 Driver

  ==> Input File <==

--------------------------------------------------------------------------
set {
	reference rhf
	basis cc-pvtz
}

set_num_threads( 4 )
memory 2 gb

molecule MOL {
0 1

H	 2.193378	 1.777557	 1.305291
N	 1.330669	 1.279933	 1.244517
C	 1.263552	 0.494993	 0.021953
H	 0.597275	 1.957136	 1.273931
C	 -0.016533	 -0.325589	 -0.026925
H	 2.117645	 -0.173874	 0.010339
H	 1.332476	 1.106074	 -0.879055
C	 -1.280353	 0.525521	 0.047747
H	 -0.016686	 -0.912532	 -0.939714
H	 -0.014099	 -1.037598	 0.796369
C	 -2.560681	 -0.301323	 -0.007747
H	 -1.279957	 1.241025	 -0.770189
H	 -1.270445	 1.110526	 0.963468
H	 -2.617064	 -0.872870	 -0.928010
H	 -3.439525	 0.331102	 0.043462
H	 -2.609427	 -1.002736	 0.818585

	symmetry c1
}
set optking {
	frozen_dihedral = ("
		6 3 5 9
	")
}

ee,wfn = optimize('scf', return_wfn=True)
oeprop( wfn, 'DIPOLE', 'QUADRUPOLE', 'MULLIKEN_CHARGES')
f=open( 'psi4out.xyz', 'w' )
f.write( "16  " )
f.write( str(ee) + "\n" )
f.write( MOL.save_string_xyz() )
f.close()
--------------------------------------------------------------------------

    Molecular point group: c1
  Charge       = 0
  Multiplicity = 1
  Basis Set: CC-PVTZ
  Basis Set:
  @DF-RHF Final Energy:  -212.39853230628310
    Total Energy =                       -212.3985323062829593
    Molecular point group: c1
  Basis Set: CC-PVTZ
  Basis Set:
  Basis Set: CC-PVTZ
  Basis Set:
  @DF-RHF Final Energy:  -212.39897038726519
    Total Energy =                       -212.3989703872650807
  Basis Set: CC-PVTZ
  Basis Set:
  Basis Set: CC-PVTZ
  Basis Set:
  @DF-RHF Final Energy:  -212.39923812624301
    Total Energy =                       -212.3992381262427216
  Basis Set: CC-PVTZ
  Basis Set:
  Basis Set: CC-PVTZ
  Basis Set:
  @DF-RHF Final Energy:  -212.39925562281962
    Total Energy =                       -212.3992556228197373
  Basis Set: CC-PVTZ
  Basis Set:
  Basis Set: CC-PVTZ
  Basis Set:
  @DF-RHF Final Energy:  -212.39925768367291
    Total Energy =                       -212.3992576836727721
  Basis Set: CC-PVTZ
  Basis Set:
  Charge       = 0
  Multiplicity = 1
  Basis Set: CC-PVTZ
  Basis Set:

    Orbital Energies (a.u.)
    -----------------------

    Doubly Occupied:

       1A    -15.526630     2A    -11.238675     3A    -11.211847
       4A    -11.207405     5A    -11.205296     6A     -1.178483
       7A     -1.057742     8A     -0.961510     9A     -0.851589
      10A     -0.780206    11A     -0.665612    12A     -0.649377
      13A     -0.595810    14A     -0.586572    15A     -0.549102
      16A     -0.525298    17A     -0.514912    18A     -0.471705
      19A     -0.466859    20A     -0.453091    21A     -0.383911

  @DF-RHF Final Energy:  -212.39925799369274

   => Energetics <=

    Nuclear Repulsion Energy =            189.2674128435916145
    One-Electron Energy =                -661.1700863343953642
    Two-Electron Energy =                 259.5034154971109501
    DFT Exchange-Correlation Energy =       0.0000000000000000
    Empirical Dispersion Energy =           0.0000000000000000
    PCM Polarization Energy =               0.0000000000000000
    EFP Energy =                            0.0000000000000000
    Total Energy =                       -212.3992579936927996
    Molecular point group: c1
  Basis Set: CC-PVTZ
  Basis Set:

  -Total Gradient:
     Atom            X                  Y                   Z
    ------   -----------------  -----------------  -----------------
       1       -0.000019751235     0.000002936211    -0.000000965391
       2       -0.000010578817     0.000020827148     0.000022186092
       3       -0.000165329193     0.000251288488    -0.001622009650
       4       -0.000000843581     0.000016553771     0.000018082609
       5        0.000730406616    -0.001147400059     0.000918164643
       6        0.000049553781    -0.000076141988     0.001194489420
       7       -0.000002010278    -0.000012804767     0.000002506237
       8        0.000000349671     0.000015775345    -0.000028970365
       9       -0.000589573792     0.000930075908    -0.000516885995
      10        0.000015340840    -0.000007463757     0.000000668698
      11       -0.000009491576    -0.000004681299     0.000012884570
      12       -0.000007631072    -0.000000430058     0.000008158644
      13       -0.000003253463    -0.000004363208    -0.000011570608
      14        0.000006214753     0.000014939731     0.000009040317
      15        0.000001621778    -0.000003658686     0.000004003624
      16        0.000004975567     0.000004547218    -0.000009782844

  **** Optimization is complete! (in 6 steps) ****
    Final optimized geometry and variables:
    Molecular point group: c1

    Geometry (in Angstrom), charge = 0, multiplicity = 1:

    H            2.579442637490     1.290355994293     0.988551737472
    N            1.659093381731     0.909072005769     0.936091546084
    C            1.485046310100     0.148588505817    -0.293584677938
    H            1.023682258891     1.676549803518     0.983565184779
    C            0.197034635429    -0.665681615070    -0.285433232523
    H            2.323121219578    -0.534752018006    -0.367099907168
    H            1.507499331404     0.776612603212    -1.185341281082
    C           -1.076242348138     0.168725333561    -0.161286647363
    H            0.149996805784    -1.231535343436    -1.212659945838
    H            0.239856115824    -1.382032888570     0.528824275454
    C           -2.344576081695    -0.674156213662    -0.248226523123
    H           -1.091692764193     0.922530909347    -0.945379538140
    H           -1.073418134514     0.701690218418     0.783700258379
    H           -2.404952084097    -1.194262636704    -1.198461418802
    H           -3.232582842685    -0.060226430408    -0.150058064893
    H           -2.370127765593    -1.420877112747     0.538245104660

  Mulliken Charges: (a.u.)
   Center  Symbol    Alpha    Beta     Spin     Total
       1     H     0.42901  0.42901  0.00000  0.14199
       2     N     3.69118  3.69118  0.00000 -0.38235
       3     C     3.03930  3.03930  0.00000 -0.07860
       4     H     0.42887  0.42887  0.00000  0.14226
       5     C     3.07742  3.07742  0.00000 -0.15483
       6     H     0.45196  0.45196  0.00000  0.09608
       7     H     0.46448  0.46448  0.00000  0.07103
       8     C     3.09189  3.09189  0.00000 -0.18377
       9     H     0.45615  0.45615  0.00000  0.08770
      10     H     0.45317  0.45317  0.00000  0.09367
      11     C     3.14938  3.14938  0.00000 -0.29876
      12     H     0.45565  0.45565  0.00000  0.08871
      13     H     0.45321  0.45321  0.00000  0.09359
      14     H     0.45549  0.45549  0.00000  0.08901
      15     H     0.44920  0.44920  0.00000  0.10160
      16     H     0.45366  0.45366  0.00000  0.09269

   Total alpha = 21.00000, Total beta = 21.00000, Total charge =  0.00000

*** Psi4 exiting successfully. Buy a developer a beer!
