                              Psi4 1.0.54 Driver

  ==> Input File <==

--------------------------------------------------------------------------
set {
	reference rhf
	basis cc-pvtz
}

set_num_threads( 4 )
memory 2 gb

molecule MOL {
0 1

H	 -3.239814	 2.015200	 -0.580845
O	 -2.543503	 1.428647	 -0.811717
C	 -2.302264	 0.528872	 0.237390
C	 -1.175688	 -0.398187	 -0.171891
H	 -2.029878	 1.065307	 1.143931
H	 -3.197297	 -0.049925	 0.455884
C	 0.196029	 0.106276	 0.266738
H	 -1.201873	 -0.515469	 -1.250677
H	 -1.365975	 -1.378728	 0.252664
C	 1.330220	 -0.826136	 -0.155230
H	 0.359542	 1.097229	 -0.145561
H	 0.212134	 0.218135	 1.348778
C	 2.719700	 -0.407669	 0.328325
H	 1.339388	 -0.911200	 -1.239363
H	 1.119001	 -1.821953	 0.224128
C	 3.241564	 0.893452	 -0.276737
H	 3.418299	 -1.204729	 0.093035
H	 2.711776	 -0.323368	 1.411960
H	 3.254204	 0.841071	 -1.360784
H	 2.634460	 1.745075	 0.005842
H	 4.254264	 1.092401	 0.054971

	symmetry c1
}
set optking {
	frozen_dihedral = ("
		2 3 4 8
	")
}

ee,wfn = optimize('scf', return_wfn=True)
oeprop( wfn, 'DIPOLE', 'QUADRUPOLE', 'MULLIKEN_CHARGES')
f=open( 'psi4out.xyz', 'w' )
f.write( "21  " )
f.write( str(ee) + "\n" )
f.write( MOL.save_string_xyz() )
f.close()
--------------------------------------------------------------------------

    Molecular point group: c1
  Charge       = 0
  Multiplicity = 1
  Basis Set: CC-PVTZ
  Basis Set:
  @DF-RHF Final Energy:  -310.32990677383611
    Total Energy =                       -310.3299067738358872
    Molecular point group: c1
  Basis Set: CC-PVTZ
  Basis Set:
  Basis Set: CC-PVTZ
  Basis Set:
  @DF-RHF Final Energy:  -310.33029864058716
    Total Energy =                       -310.3302986405875004
  Basis Set: CC-PVTZ
  Basis Set:
  Basis Set: CC-PVTZ
  Basis Set:
  @DF-RHF Final Energy:  -310.33038721541692
    Total Energy =                       -310.3303872154169767
  Basis Set: CC-PVTZ
  Basis Set:
  Basis Set: CC-PVTZ
  Basis Set:
  @DF-RHF Final Energy:  -310.33039176544708
    Total Energy =                       -310.3303917654471320
  Basis Set: CC-PVTZ
  Basis Set:
  Charge       = 0
  Multiplicity = 1
  Basis Set: CC-PVTZ
  Basis Set:

    Orbital Energies (a.u.)
    -----------------------

    Doubly Occupied:

       1A    -20.545971     2A    -11.265475     3A    -11.210620
       4A    -11.209532     5A    -11.208333     6A    -11.207467
       7A    -11.202988     8A     -1.363063     9A     -1.083774
      10A     -1.031408    11A     -0.953840    12A     -0.875927
      13A     -0.804853    14A     -0.775586    15A     -0.707931
      16A     -0.640230    17A     -0.628348    18A     -0.602239
      19A     -0.592323    20A     -0.563890    21A     -0.541442
      22A     -0.519382    23A     -0.505507    24A     -0.493754
      25A     -0.476968    26A     -0.459380    27A     -0.456235
      28A     -0.446582    29A     -0.425729

  @DF-RHF Final Energy:  -310.33039177980129

   => Energetics <=

    Nuclear Repulsion Energy =            316.0813661538935548
    One-Electron Energy =               -1047.2259637542156270
    Two-Electron Energy =                 420.8142058205206695
    DFT Exchange-Correlation Energy =       0.0000000000000000
    Empirical Dispersion Energy =           0.0000000000000000
    PCM Polarization Energy =               0.0000000000000000
    EFP Energy =                            0.0000000000000000
    Total Energy =                       -310.3303917798014027
    Molecular point group: c1
  Basis Set: CC-PVTZ
  Basis Set:

  -Total Gradient:
     Atom            X                  Y                   Z
    ------   -----------------  -----------------  -----------------
       1       -0.000055747079     0.000104964638    -0.000041736546
       2       -0.002391658915    -0.002311571519    -0.001347335684
       3        0.003766163834     0.003627613090     0.001775239639
       4       -0.004192978868    -0.005245440265     0.000077709146
       5       -0.000017511867     0.000041148080    -0.000038473858
       6       -0.000020582840     0.000017290044    -0.000005237449
       7        0.000006904297     0.000047544067     0.000015312357
       8        0.002861427747     0.003650974093    -0.000438750696
       9        0.000001765861     0.000058320546     0.000004486471
      10       -0.000020582137     0.000033616054    -0.000020982256
      11       -0.000024279434    -0.000041395281    -0.000001931658
      12        0.000004112090     0.000017437456     0.000015984773
      13       -0.000000433247    -0.000002402696     0.000040843696
      14        0.000005762990     0.000010644493    -0.000001537184
      15        0.000011024055    -0.000002941910    -0.000022157757
      16        0.000024066071     0.000009986307    -0.000014717247
      17        0.000010526054    -0.000005082542     0.000019850653
      18       -0.000009609310     0.000008431154     0.000003076970
      19       -0.000002985033     0.000008788642    -0.000015454595
      20        0.000045349602    -0.000017824642     0.000003498680
      21       -0.000000733866    -0.000010099809    -0.000007687454

  **** Optimization is complete! (in 5 steps) ****
    Final optimized geometry and variables:
    Molecular point group: c1

    Geometry (in Angstrom), charge = 0, multiplicity = 1:

    H           -3.321506157068     1.802067690646    -0.469086106839
    O           -2.688021736809     1.151605615366    -0.710048473389
    C           -2.470159955971     0.267436647702     0.361064064907
    C           -1.330290311625    -0.672818741543    -0.009102328367
    H           -2.231857728714     0.815089409566     1.269396173824
    H           -3.375355247265    -0.303247801915     0.551485841598
    C            0.045413575578    -0.136757001564     0.387586202407
    H           -1.350041865080    -0.795159452009    -1.086218809347
    H           -1.492078172754    -1.644593171993     0.444983184154
    C            1.188598733451    -1.035044434524    -0.079046673155
    H            0.159072830572     0.859552436186    -0.025444607165
    H            0.092688314057    -0.032075379123     1.469589013465
    C            2.580848266332    -0.591220856245     0.373397256167
    H            1.170429301124    -1.102997950358    -1.164307925033
    H            1.012188204687    -2.042352725713     0.289509724880
    C            3.055912057675     0.728637531897    -0.229475842716
    H            3.291463213629    -1.368945456598     0.110540369005
    H            2.599327459926    -0.519405026214     1.457853371319
    H            3.041575082059     0.688410276727    -1.313932150142
    H            2.435325517948     1.561569407906     0.077754611757
    H            4.071822450332     0.948328205774     0.078738819648

  Mulliken Charges: (a.u.)
   Center  Symbol    Alpha    Beta     Spin     Total
       1     H     0.39529  0.39529  0.00000  0.20941
       2     O     4.19955  4.19955  0.00000 -0.39909
       3     C     2.97033  2.97033  0.00000  0.05933
       4     C     3.08982  3.08982  0.00000 -0.17965
       5     H     0.47475  0.47475  0.00000  0.05049
       6     H     0.46744  0.46744  0.00000  0.06512
       7     C     3.09579  3.09579  0.00000 -0.19158
       8     H     0.44948  0.44948  0.00000  0.10103
       9     H     0.45082  0.45082  0.00000  0.09835
      10     C     3.09591  3.09591  0.00000 -0.19181
      11     H     0.44679  0.44679  0.00000  0.10641
      12     H     0.45816  0.45816  0.00000  0.08368
      13     C     3.08995  3.08995  0.00000 -0.17989
      14     H     0.45267  0.45267  0.00000  0.09466
      15     H     0.45116  0.45116  0.00000  0.09768
      16     C     3.15165  3.15165  0.00000 -0.30329
      17     H     0.44909  0.44909  0.00000  0.10183
      18     H     0.45571  0.45571  0.00000  0.08858
      19     H     0.45453  0.45453  0.00000  0.09094
      20     H     0.45364  0.45364  0.00000  0.09272
      21     H     0.44746  0.44746  0.00000  0.10507

   Total alpha = 29.00000, Total beta = 29.00000, Total charge =  0.00000

*** Psi4 exiting successfully. Buy a developer a beer!
