  ==> Input File <==

--------------------------------------------------------------------------
set {
	reference rhf
	basis 6-31G*
}

set_num_threads( 1 )
memory 2 gb

molecule MOL {
0 1

H	 -2.294596	 0.113574	 2.577986
C	 -2.733160	 -0.280860	 1.652942
C	 -2.647883	 0.641372	 0.463477
O	 -3.228242	 -1.360894	 1.639884
C	 -1.220012	 1.144545	 0.209990
H	 -3.047109	 0.123021	 -0.400606
H	 -3.295751	 1.492103	 0.671272
C	 -0.252658	 0.041456	 -0.226725
H	 -1.257511	 1.914920	 -0.554471
H	 -0.842673	 1.628891	 1.109312
C	 1.180775	 0.282413	 0.250794
H	 -0.266029	 -0.034465	 -1.312038
H	 -0.597733	 -0.921000	 0.146291
C	 2.148627	 -0.814315	 -0.201312
H	 1.516199	 1.249228	 -0.115937
H	 1.192670	 0.346017	 1.338083
C	 3.580890	 -0.659131	 0.322722
H	 2.166869	 -0.852443	 -1.289387
H	 1.762857	 -1.776509	 0.128956
C	 4.324889	 0.564933	 -0.213704
H	 4.142010	 -1.551473	 0.056605
H	 3.564836	 -0.624694	 1.410140
H	 4.342616	 0.565491	 -1.300421
H	 3.866655	 1.493402	 0.110242
H	 5.353900	 0.572371	 0.132816

	symmetry c1
}
set optking {
	frozen_dihedral = ("
		6 3 5 8,
		6 3 2 4,
		12 8 11 14,
		8 11 14 18,
		20 17 14 18
	")
}

ee = energy('scf')
oeprop('DIPOLE', 'QUADRUPOLE', 'MULLIKEN_CHARGES')
f=open( 'psi4out.xyz', 'w' )
f.write( "25  " )
f.write( str(ee) + "\n" )
f.write( MOL.save_string_xyz() )
f.close()
--------------------------------------------------------------------------

    Molecular point group: c1

    Geometry (in Angstrom), charge = 0, multiplicity = 1:

       Center              X                  Y                   Z               Mass
    ------------   -----------------  -----------------  -----------------  -----------------
           H         -2.430226343931     0.167856966911     2.140443056089     1.007825032070
           C         -2.868790343931    -0.226577033089     1.215399056089    12.000000000000
           C         -2.783513343931     0.695654966911     0.025934056089    12.000000000000
           O         -3.363872343931    -1.306611033089     1.202341056089    15.994914619560
           C         -1.355642343931     1.198827966911    -0.227552943911    12.000000000000
           H         -3.182739343931     0.177303966911    -0.838148943911     1.007825032070
           H         -3.431381343931     1.546385966911     0.233729056089     1.007825032070
           C         -0.388288343931     0.095738966911    -0.664267943911    12.000000000000
           H         -1.393141343931     1.969202966911    -0.992013943911     1.007825032070
           H         -0.978303343931     1.683173966911     0.671769056089     1.007825032070
           C          1.045144656069     0.336695966911    -0.186748943911    12.000000000000
           H         -0.401659343931     0.019817966911    -1.749580943911     1.007825032070
           H         -0.733363343931    -0.866717033089    -0.291251943911     1.007825032070
           C          2.012996656069    -0.760032033089    -0.638854943911    12.000000000000
           H          1.380568656069     1.303510966911    -0.553479943911     1.007825032070
           H          1.057039656069     0.400299966911     0.900540056089     1.007825032070
           C          3.445259656069    -0.604848033089    -0.114820943911    12.000000000000
           H          2.031238656069    -0.798160033089    -1.726929943911     1.007825032070
           H          1.627226656069    -1.722226033089    -0.308586943911     1.007825032070
           C          4.189258656069     0.619215966911    -0.651246943911    12.000000000000
           H          4.006379656069    -1.497190033089    -0.380937943911     1.007825032070
           H          3.429205656069    -0.570411033089     0.972597056089     1.007825032070
           H          4.206985656069     0.619773966911    -1.737963943911     1.007825032070
           H          3.731024656069     1.547684966911    -0.327300943911     1.007825032070
           H          5.218269656069     0.626653966911    -0.304726943911     1.007825032070

  Charge       = 0
  Multiplicity = 1
  Basis Set: 6-31G*
  Basis Set:

    Orbital Energies (a.u.)
    -----------------------

    Doubly Occupied:

       1A    -20.562974     2A    -11.326673     3A    -11.234984
       4A    -11.234036     5A    -11.222575     6A    -11.219838
       7A    -11.217602     8A    -11.216394     9A    -11.210475
      10A     -1.402879    11A     -1.103956    12A     -1.069369
      13A     -1.012926    14A     -0.942402    15A     -0.875680
      16A     -0.819501    17A     -0.789239    18A     -0.780669
      19A     -0.664541    20A     -0.660507    21A     -0.636200
      22A     -0.623414    23A     -0.608245    24A     -0.587645
      25A     -0.573767    26A     -0.555616    27A     -0.533197
      28A     -0.524245    29A     -0.508912    30A     -0.497779
      31A     -0.487776    32A     -0.477868    33A     -0.464203
      34A     -0.458214    35A     -0.440725    36A     -0.410219

  @DF-RHF Final Energy:  -387.11893406622158

   => Energetics <=

    Nuclear Repulsion Energy =            441.8761258408515573
    One-Electron Energy =               -1400.0795921556214125
    Two-Electron Energy =                 571.0845322485492943
    DFT Exchange-Correlation Energy =       0.0000000000000000
    Empirical Dispersion Energy =           0.0000000000000000
    PCM Polarization Energy =               0.0000000000000000
    EFP Energy =                            0.0000000000000000
    Total Energy =                       -387.1189340662206178

  Mulliken Charges: (a.u.)
   Center  Symbol    Alpha    Beta     Spin     Total
       1     H     0.43246  0.43246  0.00000  0.13509
       2     C     2.83009  2.83009  0.00000  0.33982
       3     C     3.20838  3.20838  0.00000 -0.41676
       4     O     4.23817  4.23817  0.00000 -0.47634
       5     C     3.16750  3.16750  0.00000 -0.33501
       6     H     0.39971  0.39971  0.00000  0.20058
       7     H     0.40749  0.40749  0.00000  0.18502
       8     C     3.15884  3.15884  0.00000 -0.31768
       9     H     0.41126  0.41126  0.00000  0.17748
      10     H     0.41856  0.41856  0.00000  0.16288
      11     C     3.15558  3.15558  0.00000 -0.31116
      12     H     0.41715  0.41715  0.00000  0.16569
      13     H     0.41456  0.41456  0.00000  0.17088
      14     C     3.15356  3.15356  0.00000 -0.30712
      15     H     0.42066  0.42066  0.00000  0.15867
      16     H     0.42408  0.42408  0.00000  0.15185
      17     C     3.15273  3.15273  0.00000 -0.30547
      18     H     0.42355  0.42355  0.00000  0.15289
      19     H     0.41979  0.41979  0.00000  0.16042
      20     C     3.24126  3.24126  0.00000 -0.48252
      21     H     0.41997  0.41997  0.00000  0.16006
      22     H     0.42308  0.42308  0.00000  0.15384
      23     H     0.42209  0.42209  0.00000  0.15581
      24     H     0.42079  0.42079  0.00000  0.15843
      25     H     0.41868  0.41868  0.00000  0.16264

   Total alpha = 36.00000, Total beta = 36.00000, Total charge =  0.00000
