  ==> Input File <==

--------------------------------------------------------------------------
set {
	reference rhf
	basis 6-31G*
}

set_num_threads( 4 )
memory 2 gb

molecule MOL {
0 1

O	 0.395960	 0.772879	 0.889045
C	 0.028650	 0.075053	 -0.000277
C	 -1.233602	 -0.752807	 0.000328
O	 0.698758	 -0.069699	 -1.136016
C	 -2.501530	 0.091881	 0.000126
H	 -1.193807	 -1.406641	 -0.865785
H	 -1.193516	 -1.405779	 0.867015
H	 -2.545121	 0.729328	 -0.874513
H	 -3.377167	 -0.548497	 0.000561
H	 -2.544818	 0.730135	 0.874258
C	 1.908083	 0.655794	 -1.265559
H	 1.723431	 1.717864	 -1.192582
H	 2.296548	 0.409849	 -2.241504
H	 2.610441	 0.363657	 -0.498213

	symmetry c1
}
set optking {
	frozen_dihedral = ("
		4 2 3 6
	")
}

ee = optimize('scf')
oeprop('DIPOLE', 'QUADRUPOLE', 'MULLIKEN_CHARGES')
f=open( 'psi4out.xyz', 'w' )
f.write( "14  " )
f.write( str(ee) + "\n" )
f.write( MOL.save_string_xyz() )
f.close()
--------------------------------------------------------------------------

    Molecular point group: c1
  Charge       = 0
  Multiplicity = 1
  Basis Set: 6-31G*
  Basis Set:
  @DF-RHF Final Energy:  -305.86961209944582
    Total Energy =                       -305.8696120994459307
    Molecular point group: c1
  Basis Set: 6-31G*
  Basis Set:
  Basis Set: 6-31G*
  Basis Set:
  @DF-RHF Final Energy:  -305.86991594147798
    Total Energy =                       -305.8699159414779842
  Basis Set: 6-31G*
  Basis Set:
  Basis Set: 6-31G*
  Basis Set:
  @DF-RHF Final Energy:  -305.86899629724576
    Total Energy =                       -305.8689962972458716
  Basis Set: 6-31G*
  Basis Set:
  Basis Set: 6-31G*
  Basis Set:
  @DF-RHF Final Energy:  -305.87029905977948
    Total Energy =                       -305.8702990597797111
  Basis Set: 6-31G*
  Basis Set:
  Basis Set: 6-31G*
  Basis Set:
  @DF-RHF Final Energy:  -305.87030491289920
    Total Energy =                       -305.8703049128990870
  Basis Set: 6-31G*
  Basis Set:
  Charge       = 0
  Multiplicity = 1
  Basis Set: 6-31G*
  Basis Set:

    Orbital Energies (a.u.)
    -----------------------

    Doubly Occupied:

       1A    -20.606828     2A    -20.543003     3A    -11.372202
       4A    -11.281443     5A    -11.237160     6A    -11.224976
       7A     -1.470425     8A     -1.362258     9A     -1.065492
      10A     -0.979483    11A     -0.881308    12A     -0.773001
      13A     -0.698564    14A     -0.679780    15A     -0.672868
      16A     -0.616720    17A     -0.600958    18A     -0.562798
      19A     -0.540447    20A     -0.519182    21A     -0.509497
      22A     -0.502097    23A     -0.455216    24A     -0.435686

  @DF-RHF Final Energy:  -305.87030540311491

   => Energetics <=

    Nuclear Repulsion Energy =            247.5181444019400203
    One-Electron Energy =                -907.5941139332355760
    Two-Electron Energy =                 354.2056641281805014
    DFT Exchange-Correlation Energy =       0.0000000000000000
    Empirical Dispersion Energy =           0.0000000000000000
    PCM Polarization Energy =               0.0000000000000000
    EFP Energy =                            0.0000000000000000
    Total Energy =                       -305.8703054031150259
    Molecular point group: c1
  Basis Set: 6-31G*
  Basis Set:

  -Total Gradient:
     Atom            X                  Y                   Z
    ------   -----------------  -----------------  -----------------
       1        0.000001083983    -0.000038831269    -0.000058037147
       2        0.000188741278    -0.000306375717     0.000301619047
       3       -0.000249675449     0.000381150694    -0.000286363700
       4       -0.000107324465     0.000213473693    -0.000135534880
       5        0.000022482649     0.000009829885     0.000005026307
       6        0.000164978172    -0.000248476669     0.000197121307
       7       -0.000001943807    -0.000006397686    -0.000017411842
       8       -0.000001322221    -0.000000879123     0.000008078676
       9       -0.000003776681    -0.000013603148     0.000001893469
      10        0.000002160333     0.000008702004    -0.000010119312
      11       -0.000043973335    -0.000006232943    -0.000005260903
      12        0.000011401088     0.000005085628    -0.000002319791
      13        0.000010981478     0.000003330844    -0.000001012435
      14        0.000006186974    -0.000000776195     0.000002321205

  **** Optimization is complete! (in 6 steps) ****
    Final optimized geometry and variables:
    Molecular point group: c1

    Geometry (in Angstrom), charge = 0, multiplicity = 1:

    O            0.463442562455     0.607824805914     1.148636888470
    C            0.122478834008    -0.093324370376     0.249973314053
    C           -1.139614385552    -0.922443816950     0.256156964561
    O            0.806170459397    -0.211821441725    -0.878624457848
    C           -2.383244957676    -0.027218485048     0.266289102324
    H           -1.144921549359    -1.586504312439    -0.597774438286
    H           -1.118690769423    -1.525948573945     1.156921010581
    H           -2.437827056716     0.577345820114    -0.633261629687
    H           -3.280769449068    -0.633488447848     0.316162827436
    H           -2.368645749364     0.635665634413     1.122560084803
    C            1.998808472702     0.544715186095    -0.987971238896
    H            1.786209408520     1.601124880386    -0.909656757831
    H            2.405498415664     0.315251022982    -1.960471458816
    H            2.697744884166     0.264526439193    -0.213233810216

  Mulliken Charges: (a.u.)
   Center  Symbol    Alpha    Beta     Spin     Total
       1     O     4.28630  4.28630  0.00000 -0.57259
       2     C     2.61241  2.61241  0.00000  0.77518
       3     C     3.19975  3.19975  0.00000 -0.39951
       4     O     4.30238  4.30238  0.00000 -0.60476
       5     C     3.24916  3.24916  0.00000 -0.49831
       6     H     0.40096  0.40096  0.00000  0.19809
       7     H     0.40025  0.40025  0.00000  0.19950
       8     H     0.41410  0.41410  0.00000  0.17181
       9     H     0.41296  0.41296  0.00000  0.17407
      10     H     0.40304  0.40304  0.00000  0.19391
      11     C     3.09354  3.09354  0.00000 -0.18709
      12     H     0.40854  0.40854  0.00000  0.18292
      13     H     0.40837  0.40837  0.00000  0.18326
      14     H     0.40824  0.40824  0.00000  0.18352

   Total alpha = 24.00000, Total beta = 24.00000, Total charge =  0.00000
