  ==> Input File <==

--------------------------------------------------------------------------
set {
	reference rhf
	basis 6-31G*
}

set_num_threads( 1 )
memory 2 gb

molecule MOL {
0 1

H	 -2.698709	 -0.000305	 0.034435
C	 -1.693833	 0.000034	 0.434417
O	 -0.828952	 -0.000968	 -0.659236
H	 -1.574200	 0.882896	 1.055746
H	 -1.574147	 -0.881698	 1.057355
C	 -1.034357	 0.945646	 -1.682092
C	 -2.367600	 0.750204	 -2.401247
C	 -0.840600	 2.381469	 -1.198533
H	 -0.241711	 0.723012	 -2.386491
H	 -2.493078	 -0.289136	 -2.685108
H	 -2.395391	 1.355017	 -3.302171
H	 -3.212978	 1.042327	 -1.786297
H	 0.090426	 2.471053	 -0.649331
H	 -0.801417	 3.056848	 -2.047528
H	 -1.650808	 2.711772	 -0.556424

	symmetry c1
}
set optking {
	frozen_dihedral = ("
		9 6 3 2
	")
}

ee = energy('scf')
oeprop('DIPOLE', 'QUADRUPOLE', 'MULLIKEN_CHARGES')
f=open( 'psi4out.xyz', 'w' )
f.write( "15  " )
f.write( str(ee) + "\n" )
f.write( MOL.save_string_xyz() )
f.close()
--------------------------------------------------------------------------

    Molecular point group: c1

    Geometry (in Angstrom), charge = 0, multiplicity = 1:

       Center              X                  Y                   Z               Mass
    ------------   -----------------  -----------------  -----------------  -----------------
           H         -1.332799637576    -0.811275829336     1.115364280591     1.007825032070
           C         -0.327923637576    -0.810936829336     1.515346280591    12.000000000000
           O          0.536957362424    -0.811938829336     0.421693280591    15.994914619560
           H         -0.208290637576     0.071925170664     2.136675280591     1.007825032070
           H         -0.208237637576    -1.692668829336     2.138284280591     1.007825032070
           C          0.331552362424     0.134675170664    -0.601162719409    12.000000000000
           C         -1.001690637576    -0.060766829336    -1.320317719409    12.000000000000
           C          0.525309362424     1.570498170664    -0.117603719409    12.000000000000
           H          1.124198362424    -0.087958829336    -1.305561719409     1.007825032070
           H         -1.127168637576    -1.100106829336    -1.604178719409     1.007825032070
           H         -1.029481637576     0.544046170664    -2.221241719409     1.007825032070
           H         -1.847068637576     0.231356170664    -0.705367719409     1.007825032070
           H          1.456335362424     1.660082170664     0.431598280591     1.007825032070
           H          0.564492362424     2.245877170664    -0.966598719409     1.007825032070
           H         -0.284898637576     1.900801170664     0.524505280591     1.007825032070

  Charge       = 0
  Multiplicity = 1
  Basis Set: 6-31G*
  Basis Set:

    Orbital Energies (a.u.)
    -----------------------

    Doubly Occupied:

       1A    -20.546366     2A    -11.275306     3A    -11.261206
       4A    -11.210942     5A    -11.210636     6A     -1.369783
       7A     -1.050330     8A     -0.940052     9A     -0.931286
      10A     -0.781375    11A     -0.674033    12A     -0.641202
      13A     -0.633066    14A     -0.576448    15A     -0.565936
      16A     -0.550454    17A     -0.533766    18A     -0.500357
      19A     -0.496503    20A     -0.440290    21A     -0.405020

  @DF-RHF Final Energy:  -232.13497144925265

   => Energetics <=

    Nuclear Repulsion Energy =            198.9306047542694955
    One-Electron Energy =                -708.9423542081818823
    Two-Electron Energy =                 277.8767780046600819
    DFT Exchange-Correlation Energy =       0.0000000000000000
    Empirical Dispersion Energy =           0.0000000000000000
    PCM Polarization Energy =               0.0000000000000000
    EFP Energy =                            0.0000000000000000
    Total Energy =                       -232.1349714492523049

  Mulliken Charges: (a.u.)
   Center  Symbol    Alpha    Beta     Spin     Total
       1     H     0.43073  0.43073  0.00000  0.13854
       2     C     3.08049  3.08049  0.00000 -0.16097
       3     O     4.31327  4.31327  0.00000 -0.62655
       4     H     0.42897  0.42897  0.00000  0.14206
       5     H     0.41257  0.41257  0.00000  0.17487
       6     C     2.90897  2.90897  0.00000  0.18206
       7     C     3.25477  3.25477  0.00000 -0.50954
       8     C     3.25307  3.25307  0.00000 -0.50614
       9     H     0.41452  0.41452  0.00000  0.17097
      10     H     0.41106  0.41106  0.00000  0.17788
      11     H     0.41868  0.41868  0.00000  0.16264
      12     H     0.42082  0.42082  0.00000  0.15837
      13     H     0.41122  0.41122  0.00000  0.17756
      14     H     0.41947  0.41947  0.00000  0.16106
      15     H     0.42140  0.42140  0.00000  0.15719

   Total alpha = 21.00000, Total beta = 21.00000, Total charge = -0.00000
