  ==> Input File <==

--------------------------------------------------------------------------
set {
	reference rhf
	basis cc-pvtz
}

set_num_threads( 4 )
memory 2 gb

molecule MOL {
0 1

H	 2.539627	 -0.333470	 -1.387914
O	 1.717494	 0.116400	 -1.326515
C	 1.362648	 0.293034	 0.020667
C	 0.027642	 1.012027	 0.090274
H	 2.113265	 0.888222	 0.534566
H	 1.307137	 -0.666599	 0.527110
C	 -1.138737	 0.285728	 -0.581921
H	 0.148092	 1.987101	 -0.370410
H	 -0.203761	 1.185879	 1.138340
C	 -1.933983	 -0.631436	 0.343653
H	 -0.763151	 -0.285569	 -1.422081
H	 -1.808359	 1.035291	 -0.992333
H	 -2.789188	 -1.049673	 -0.174718
H	 -1.335629	 -1.461368	 0.700418
H	 -2.305435	 -0.092167	 1.209725

	symmetry c1
}
set optking {
	frozen_dihedral = ("
		8 4 7 11
	")
}

ee = optimize('scf')
oeprop('DIPOLE', 'QUADRUPOLE', 'MULLIKEN_CHARGES')
f=open( 'psi4out.xyz', 'w' )
f.write( "15  " )
f.write( str(ee) + "\n" )
f.write( MOL.save_string_xyz() )
f.close()
--------------------------------------------------------------------------

    Molecular point group: c1
  Charge       = 0
  Multiplicity = 1
  Basis Set: CC-PVTZ
  Basis Set:
  @DF-RHF Final Energy:  -232.23549187458681
    Total Energy =                       -232.2354918745870123
    Molecular point group: c1
  Basis Set: CC-PVTZ
  Basis Set:
  Basis Set: CC-PVTZ
  Basis Set:
  @DF-RHF Final Energy:  -232.23604414122073
    Total Energy =                       -232.2360441412208729
  Basis Set: CC-PVTZ
  Basis Set:
  Basis Set: CC-PVTZ
  Basis Set:
  @DF-RHF Final Energy:  -232.23609685299047
    Total Energy =                       -232.2360968529907268
  Basis Set: CC-PVTZ
  Basis Set:
  Basis Set: CC-PVTZ
  Basis Set:
  @DF-RHF Final Energy:  -232.23610141067098
    Total Energy =                       -232.2361014106708694
  Basis Set: CC-PVTZ
  Basis Set:
  Charge       = 0
  Multiplicity = 1
  Basis Set: CC-PVTZ
  Basis Set:

    Orbital Energies (a.u.)
    -----------------------

    Doubly Occupied:

       1A    -20.546542     2A    -11.266409     3A    -11.210566
       4A    -11.207601     5A    -11.204358     6A     -1.364526
       7A     -1.065509     8A     -0.972945     9A     -0.864581
      10A     -0.781908    11A     -0.706731    12A     -0.650774
      13A     -0.606108    14A     -0.579160    15A     -0.564022
      16A     -0.535766    17A     -0.506470    18A     -0.476621
      19A     -0.469476    20A     -0.454906    21A     -0.432655

  @DF-RHF Final Energy:  -232.23610220708639

   => Energetics <=

    Nuclear Repulsion Energy =            190.3571849750194929
    One-Electron Energy =                -692.2513069008593902
    Two-Electron Energy =                 269.6580197187536214
    DFT Exchange-Correlation Energy =       0.0000000000000000
    Empirical Dispersion Energy =           0.0000000000000000
    PCM Polarization Energy =               0.0000000000000000
    EFP Energy =                            0.0000000000000000
    Total Energy =                       -232.2361022070862759
    Molecular point group: c1
  Basis Set: CC-PVTZ
  Basis Set:

  -Total Gradient:
     Atom            X                  Y                   Z
    ------   -----------------  -----------------  -----------------
       1        0.000005219667     0.000006574487     0.000008362995
       2       -0.000037657047     0.000018727562     0.000039535475
       3        0.000018131118     0.000004847798    -0.000015868546
       4        0.002432749780    -0.002102671412    -0.002106502552
       5        0.000036298878    -0.000030000220    -0.000028262674
       6        0.000007233086     0.000007909568     0.000014894635
       7       -0.000957959848     0.003271609387    -0.001720594235
       8       -0.001872039936     0.001240177307     0.002004429972
       9       -0.000021310340    -0.000006612221    -0.000007499174
      10       -0.000023931464    -0.000057188318    -0.000004279010
      11        0.000418032706    -0.002346146585     0.001832663775
      12       -0.000002759133    -0.000002363061    -0.000017260295
      13       -0.000005819163    -0.000017043684     0.000018951189
      14       -0.000007110338    -0.000002668334     0.000002510530
      15        0.000010922034     0.000014847725    -0.000021082086

  **** Optimization is complete! (in 5 steps) ****
    Final optimized geometry and variables:
    Molecular point group: c1

    Geometry (in Angstrom), charge = 0, multiplicity = 1:

    H            2.480360473504    -0.542335588764    -1.069882986253
    O            1.691762652576    -0.035871100246    -1.010224433934
    C            1.274588096985     0.053413158515     0.327511873793
    C           -0.034748094075     0.816512099668     0.384964689197
    H            2.022576121415     0.572041607119     0.921609769831
    H            1.150230252328    -0.940226550397     0.752640735757
    C           -1.215373358237     0.096520646416    -0.280593422500
    H            0.112188215759     1.791969929521    -0.065180797535
    H           -0.267457662318     1.004070842217     1.430256838423
    C           -1.965485194604    -0.835179325472     0.669925815431
    H           -0.848796957104    -0.482017341065    -1.119866668277
    H           -1.909105821040     0.828176098253    -0.678620595029
    H           -2.765432024152    -1.356077048001     0.156005374674
    H           -1.306968325812    -1.586570067869     1.093397625389
    H           -2.405719904985    -0.282700158656     1.493585091050

  Mulliken Charges: (a.u.)
   Center  Symbol    Alpha    Beta     Spin     Total
       1     H     0.39544  0.39544  0.00000  0.20911
       2     O     4.19888  4.19888  0.00000 -0.39776
       3     C     2.97262  2.97262  0.00000  0.05475
       4     C     3.09254  3.09254  0.00000 -0.18509
       5     H     0.46441  0.46441  0.00000  0.07118
       6     H     0.47351  0.47351  0.00000  0.05298
       7     C     3.09091  3.09091  0.00000 -0.18182
       8     H     0.44679  0.44679  0.00000  0.10643
       9     H     0.45705  0.45705  0.00000  0.08589
      10     C     3.14923  3.14923  0.00000 -0.29847
      11     H     0.44621  0.44621  0.00000  0.10758
      12     H     0.44975  0.44975  0.00000  0.10051
      13     H     0.44849  0.44849  0.00000  0.10302
      14     H     0.45753  0.45753  0.00000  0.08494
      15     H     0.45663  0.45663  0.00000  0.08673

   Total alpha = 21.00000, Total beta = 21.00000, Total charge = -0.00000
