                              Psi4 1.0.54 Driver

  ==> Input File <==

--------------------------------------------------------------------------
set {
	reference rhf
	basis cc-pvtz
}

set_num_threads( 4 )
memory 2 gb

molecule MOL {
0 1

H	 2.231887	 0.051150	 0.651574
O	 1.470224	 -0.507696	 0.683607
C	 0.489979	 0.078084	 0.002623
C	 -0.763662	 -0.754014	 0.000816
O	 0.629431	 1.124380	 -0.530039
C	 -2.038001	 0.074705	 -0.000833
H	 -0.712945	 -1.405886	 -0.864342
H	 -0.715137	 -1.405770	 0.866182
H	 -2.087267	 0.710831	 -0.874232
H	 -2.903419	 -0.576199	 -0.001922
H	 -2.089467	 0.710909	 0.872389

	symmetry c1
}
set optking {
	frozen_dihedral = ("
		2 3 4 7
	")
}

ee,wfn = optimize('scf', return_wfn=True)
oeprop( wfn, 'DIPOLE', 'QUADRUPOLE', 'MULLIKEN_CHARGES')
f=open( 'psi4out.xyz', 'w' )
f.write( "11  " )
f.write( str(ee) + "\n" )
f.write( MOL.save_string_xyz() )
f.close()
--------------------------------------------------------------------------

    Molecular point group: c1
  Charge       = 0
  Multiplicity = 1
  Basis Set: CC-PVTZ
  Basis Set:
  @DF-RHF Final Energy:  -266.95201284734611
    Total Energy =                       -266.9520128473461114
    Molecular point group: c1
  Basis Set: CC-PVTZ
  Basis Set:
  Basis Set: CC-PVTZ
  Basis Set:
  @DF-RHF Final Energy:  -266.95234151835490
    Total Energy =                       -266.9523415183548991
  Basis Set: CC-PVTZ
  Basis Set:
  Basis Set: CC-PVTZ
  Basis Set:
  @DF-RHF Final Energy:  -266.95234000063368
    Total Energy =                       -266.9523400006335123
  Basis Set: CC-PVTZ
  Basis Set:
  Basis Set: CC-PVTZ
  Basis Set:
  @DF-RHF Final Energy:  -266.95234998754086
    Total Energy =                       -266.9523499875409129
  Basis Set: CC-PVTZ
  Basis Set:
  Charge       = 0
  Multiplicity = 1
  Basis Set: CC-PVTZ
  Basis Set:

    Orbital Energies (a.u.)
    -----------------------

    Doubly Occupied:

       1A    -20.606458     2A    -20.540242     3A    -11.374604
       4A    -11.242558     5A    -11.220765     6A     -1.479155
       7A     -1.369945     8A     -1.066335     9A     -0.917826
      10A     -0.806980    11A     -0.706675    12A     -0.693015
      13A     -0.660165    14A     -0.603612    15A     -0.596642
      16A     -0.534629    17A     -0.526715    18A     -0.508440
      19A     -0.482631    20A     -0.447824

  @DF-RHF Final Energy:  -266.95237680656493

   => Energetics <=

    Nuclear Repulsion Energy =            180.1034893526060046
    One-Electron Energy =                -721.3413034578107954
    Two-Electron Energy =                 274.2854372986398062
    DFT Exchange-Correlation Energy =       0.0000000000000000
    Empirical Dispersion Energy =           0.0000000000000000
    PCM Polarization Energy =               0.0000000000000000
    EFP Energy =                            0.0000000000000000
    Total Energy =                       -266.9523768065649278
    Molecular point group: c1
  Basis Set: CC-PVTZ
  Basis Set:

  -Total Gradient:
     Atom            X                  Y                   Z
    ------   -----------------  -----------------  -----------------
       1        0.000005696305     0.000000427016    -0.000002730801
       2       -0.000196800826     0.000527189275     0.000995995064
       3        0.000163463579    -0.000501964083    -0.001545887968
       4        0.000658629591    -0.000912146988     0.001203510272
       5        0.000054675668    -0.000042638500     0.000080941438
       6       -0.000010298987    -0.000026673091    -0.000010002200
       7       -0.000643112309     0.000902532420    -0.000702724457
       8       -0.000018855803     0.000052565893    -0.000047662028
       9        0.000007008129    -0.000026532516     0.000023842824
      10       -0.000004519184     0.000023290213     0.000001918363
      11       -0.000015886162     0.000003950359     0.000002799493

  **** Optimization is complete! (in 5 steps) ****
    Final optimized geometry and variables:
    Molecular point group: c1

    Geometry (in Angstrom), charge = 0, multiplicity = 1:

    H            2.270894008767     0.097259598149     0.498823749987
    O            1.524756861988    -0.477064370759     0.586916320695
    C            0.492429612692     0.078013646948    -0.038892805830
    C           -0.738023640810    -0.790457370097    -0.002713236140
    O            0.570715986560     1.132218444211    -0.569228083967
    C           -2.029941468828     0.016824405419    -0.016522497574
    H           -0.685982946242    -1.418255064874    -0.887498097356
    H           -0.681086862528    -1.445531254114     0.854978242115
    H           -2.070960061776     0.662710511357    -0.881775631567
    H           -2.883451106370    -0.648970617607    -0.040407947498
    H           -2.111676459687     0.637636293089     0.867281093416

  Mulliken Charges: (a.u.)
   Center  Symbol    Alpha    Beta     Spin     Total
       1     H     0.38067  0.38067  0.00000  0.23865
       2     O     4.15927  4.15927  0.00000 -0.31855
       3     C     2.80482  2.80482  0.00000  0.39037
       4     C     3.09544  3.09544  0.00000 -0.19088
       5     O     4.19408  4.19408  0.00000 -0.38815
       6     C     3.14136  3.14136  0.00000 -0.28271
       7     H     0.44395  0.44395  0.00000  0.11210
       8     H     0.43680  0.43680  0.00000  0.12640
       9     H     0.44236  0.44236  0.00000  0.11528
      10     H     0.44929  0.44929  0.00000  0.10142
      11     H     0.45196  0.45196  0.00000  0.09608

   Total alpha = 20.00000, Total beta = 20.00000, Total charge = -0.00000

*** Psi4 exiting successfully. Buy a developer a beer!
