  ==> Input File <==

--------------------------------------------------------------------------
set {
	reference rhf
	basis 6-31G*
}

set_num_threads( 4 )
memory 2 gb

molecule MOL {
0 1

H	 -1.836216	 1.387520	 -0.000064
C	 -1.301823	 0.443321	 -0.000031
O	 -0.003969	 0.658512	 0.000451
O	 -1.829879	 -0.616434	 -0.000857
C	 0.539226	 1.390376	 1.098859
C	 2.031437	 1.505247	 0.874292
H	 0.310151	 0.864448	 2.015507
H	 0.063254	 2.360391	 1.141486
H	 2.490036	 0.524218	 0.826307
H	 2.485086	 2.057079	 1.690943
H	 2.242114	 2.027384	 -0.051923

	symmetry c1
}
set optking {
	frozen_dihedral = ("
		5 3 2 4
	")
}

ee = optimize('scf')
oeprop('DIPOLE', 'QUADRUPOLE', 'MULLIKEN_CHARGES')
f=open( 'psi4out.xyz', 'w' )
f.write( "11  " )
f.write( str(ee) + "\n" )
f.write( MOL.save_string_xyz() )
f.close()
--------------------------------------------------------------------------

    Molecular point group: c1
  Charge       = 0
  Multiplicity = 1
  Basis Set: 6-31G*
  Basis Set:
  @DF-RHF Final Energy:  -266.81068444855310
    Total Energy =                       -266.8106844485530473
    Molecular point group: c1
  Basis Set: 6-31G*
  Basis Set:
  Basis Set: 6-31G*
  Basis Set:
  @DF-RHF Final Energy:  -266.81164121228562
    Total Energy =                       -266.8116412122857355
  Basis Set: 6-31G*
  Basis Set:
  Basis Set: 6-31G*
  Basis Set:
  @DF-RHF Final Energy:  -266.81174780511458
    Total Energy =                       -266.8117478051146918
  Basis Set: 6-31G*
  Basis Set:
  Basis Set: 6-31G*
  Basis Set:
  @DF-RHF Final Energy:  -266.81199195525244
    Total Energy =                       -266.8119919552526653
  Basis Set: 6-31G*
  Basis Set:
  Basis Set: 6-31G*
  Basis Set:
  @DF-RHF Final Energy:  -266.81200154850717
    Total Energy =                       -266.8120015485072827
  Basis Set: 6-31G*
  Basis Set:
  Basis Set: 6-31G*
  Basis Set:
  @DF-RHF Final Energy:  -266.81200322937445
    Total Energy =                       -266.8120032293743407
  Basis Set: 6-31G*
  Basis Set:
  Charge       = 0
  Multiplicity = 1
  Basis Set: 6-31G*
  Basis Set:

    Orbital Energies (a.u.)
    -----------------------

    Doubly Occupied:

       1A    -20.599424     2A    -20.567444     3A    -11.381163
       4A    -11.305143     5A    -11.231379     6A     -1.468985
       7A     -1.381582     8A     -1.051647     9A     -0.886743
      10A     -0.839026    11A     -0.741133    12A     -0.690505
      13A     -0.655206    14A     -0.629957    15A     -0.566841
      16A     -0.545983    17A     -0.537516    18A     -0.507420
      19A     -0.464608    20A     -0.452842

  @DF-RHF Final Energy:  -266.81200336267523

   => Energetics <=

    Nuclear Repulsion Energy =            176.5501949341326906
    One-Electron Energy =                -713.7153004669161191
    Two-Electron Energy =                 270.3531021701081158
    DFT Exchange-Correlation Energy =       0.0000000000000000
    Empirical Dispersion Energy =           0.0000000000000000
    PCM Polarization Energy =               0.0000000000000000
    EFP Energy =                            0.0000000000000000
    Total Energy =                       -266.8120033626752843
    Molecular point group: c1
  Basis Set: 6-31G*
  Basis Set:

  -Total Gradient:
     Atom            X                  Y                   Z
    ------   -----------------  -----------------  -----------------
       1        0.000008919517     0.000011217681    -0.000001349014
       2        0.000407782473    -0.002185644415    -0.006834297087
       3       -0.000404820675     0.005138233054    -0.000793440966
       4       -0.000183827289     0.000419136515     0.005313336077
       5        0.000175481223    -0.003384847617     0.002318518645
       6       -0.000010292307    -0.000008380225    -0.000009346439
       7        0.000009401184     0.000009847773     0.000008295313
       8       -0.000002287566    -0.000000579379    -0.000003861284
       9        0.000004195224     0.000001213891    -0.000001030971
      10       -0.000004782798     0.000000802338     0.000002639617
      11        0.000000231016    -0.000000999616     0.000000536109

  **** Optimization is complete! (in 7 steps) ****
    Final optimized geometry and variables:
    Molecular point group: c1

    Geometry (in Angstrom), charge = 0, multiplicity = 1:

    H           -1.699748467696     0.756024313744    -0.508837868083
    C           -1.190713051142    -0.204363339920    -0.424555566247
    O            0.138502000425    -0.093268867754    -0.372652123804
    O           -1.768237600389    -1.228372139033    -0.372950991651
    C            0.666541583875     0.674734646092     0.698998914055
    C            2.150514525019     0.851821536136     0.461209373974
    H            0.478776209189     0.151063160443     1.629119351787
    H            0.162866943697     1.637241119599     0.742563090818
    H            2.641006681945    -0.112536283269     0.408136035776
    H            2.591709044226     1.421695240988     1.272253467850
    H            2.325888060479     1.378790657284    -0.469262493972

  Mulliken Charges: (a.u.)
   Center  Symbol    Alpha    Beta     Spin     Total
       1     H     0.42850  0.42850  0.00000  0.14300
       2     C     2.73037  2.73037  0.00000  0.53926
       3     O     4.29508  4.29508  0.00000 -0.59016
       4     O     4.22981  4.22981  0.00000 -0.45962
       5     C     3.00705  3.00705  0.00000 -0.01409
       6     C     3.24672  3.24672  0.00000 -0.49344
       7     H     0.41100  0.41100  0.00000  0.17800
       8     H     0.42164  0.42164  0.00000  0.15672
       9     H     0.40478  0.40478  0.00000  0.19045
      10     H     0.41584  0.41584  0.00000  0.16832
      11     H     0.40922  0.40922  0.00000  0.18156

   Total alpha = 20.00000, Total beta = 20.00000, Total charge =  0.00000
