  ==> Input File <==

--------------------------------------------------------------------------
set {
	reference rhf
	basis cc-pvtz
}

set_num_threads( 4 )
memory 2 gb

molecule MOL {
0 1

H	 -2.816458	 -0.841657	 -0.064679
N	 -1.878861	 -0.711874	 0.250184
C	 -1.341419	 0.551458	 -0.220231
H	 -1.333674	 -1.468530	 -0.105118
C	 -1.427955	 1.600886	 0.864140
H	 -0.306099	 0.485166	 -0.552287
H	 -1.932919	 0.887392	 -1.064818
O	 -0.600823	 1.223377	 1.922936
H	 -1.113842	 2.566361	 0.469979
H	 -2.456924	 1.690232	 1.204975
C	 -0.643287	 2.075209	 3.019202
H	 0.032791	 1.687752	 3.767653
H	 -0.329145	 3.082199	 2.752777
H	 -1.643130	 2.127940	 3.443581

	symmetry c1
}
set optking {
	frozen_dihedral = ("
		6 3 2 4
	")
}

ee = optimize('scf')
oeprop('DIPOLE', 'QUADRUPOLE', 'MULLIKEN_CHARGES')
f=open( 'psi4out.xyz', 'w' )
f.write( "14  " )
f.write( str(ee) + "\n" )
f.write( MOL.save_string_xyz() )
f.close()
--------------------------------------------------------------------------

    Molecular point group: c1
  Charge       = 0
  Multiplicity = 1
  Basis Set: CC-PVTZ
  Basis Set:
  @DF-RHF Final Energy:  -248.21888450208439
    Total Energy =                       -248.2188845020841654
    Molecular point group: c1
  Basis Set: CC-PVTZ
  Basis Set:
  Basis Set: CC-PVTZ
  Basis Set:
  @DF-RHF Final Energy:  -248.22052584745509
    Total Energy =                       -248.2205258474548941
  Basis Set: CC-PVTZ
  Basis Set:
  Basis Set: CC-PVTZ
  Basis Set:
  @DF-RHF Final Energy:  -248.22078454799609
    Total Energy =                       -248.2207845479960611
  Basis Set: CC-PVTZ
  Basis Set:
  Basis Set: CC-PVTZ
  Basis Set:
  @DF-RHF Final Energy:  -248.22080306980143
    Total Energy =                       -248.2208030698012635
  Basis Set: CC-PVTZ
  Basis Set:
  Charge       = 0
  Multiplicity = 1
  Basis Set: CC-PVTZ
  Basis Set:

    Orbital Energies (a.u.)
    -----------------------

    Doubly Occupied:

       1A    -20.541880     2A    -15.525002     3A    -11.259493
       4A    -11.257396     5A    -11.241543     6A     -1.377691
       7A     -1.175456     8A     -0.998596     9A     -0.902113
      10A     -0.815834    11A     -0.682618    12A     -0.670072
      13A     -0.640735    14A     -0.626953    15A     -0.599995
      16A     -0.535050    17A     -0.520425    18A     -0.506251
      19A     -0.466763    20A     -0.412355    21A     -0.382089

  @DF-RHF Final Energy:  -248.22080476231673

   => Energetics <=

    Nuclear Repulsion Energy =            193.2991814711411394
    One-Electron Energy =                -720.7633563347285417
    Two-Electron Energy =                 279.2433701012707274
    DFT Exchange-Correlation Energy =       0.0000000000000000
    Empirical Dispersion Energy =           0.0000000000000000
    PCM Polarization Energy =               0.0000000000000000
    EFP Energy =                            0.0000000000000000
    Total Energy =                       -248.2208047623167317
    Molecular point group: c1
  Basis Set: CC-PVTZ
  Basis Set:

  -Total Gradient:
     Atom            X                  Y                   Z
    ------   -----------------  -----------------  -----------------
       1        0.000001073916     0.000011793242    -0.000013806437
       2       -0.000558884811    -0.000063594262    -0.000821001489
       3        0.000303765183     0.000258413247     0.000862549785
       4        0.000400472314     0.000007433158     0.000569344166
       5       -0.000047177637    -0.000088843032     0.000075938917
       6       -0.000123829680    -0.000143207739    -0.000600020088
       7        0.000005170813    -0.000038802487     0.000027491777
       8       -0.000006329692     0.000032330129    -0.000111130935
       9        0.000047842930     0.000002785833     0.000044213153
      10       -0.000030963451     0.000007085285    -0.000030005654
      11        0.000021590475     0.000035316879    -0.000003173381
      12       -0.000006792884    -0.000007768587    -0.000008130195
      13       -0.000001766564    -0.000000178530     0.000014832194
      14       -0.000004170906    -0.000012763134    -0.000007101808

  **** Optimization is complete! (in 5 steps) ****
    Final optimized geometry and variables:
    Molecular point group: c1

    Geometry (in Angstrom), charge = 0, multiplicity = 1:

    H           -1.684115898205    -1.777035933745    -1.309384207573
    N           -0.753649893965    -1.672941127892    -0.969697707917
    C           -0.161821482722    -0.407420290743    -1.373825602517
    H           -0.219898708320    -2.452520118789    -1.281674452800
    C           -0.248923913883     0.640688300221    -0.283182352566
    H            0.883868163264    -0.559473748661    -1.610556021512
    H           -0.630623406938    -0.003630748078    -2.269035941215
    O            0.636143023211     0.323646485222     0.740874146588
    H           -0.003504316987     1.619394045037    -0.697893763969
    H           -1.269012701499     0.689000032899     0.096286546835
    C            0.552168635723     1.151090262934     1.851152670588
    H            1.287538727866     0.818187068912     2.569388441045
    H            0.759654202309     2.188781468561     1.595162980026
    H           -0.432384151087     1.101906571686     2.311167814524

  Mulliken Charges: (a.u.)
   Center  Symbol    Alpha    Beta     Spin     Total
       1     H     0.42946  0.42946  0.00000  0.14109
       2     N     3.69179  3.69179  0.00000 -0.38357
       3     C     3.03887  3.03887  0.00000 -0.07773
       4     H     0.42455  0.42455  0.00000  0.15089
       5     C     2.94707  2.94707  0.00000  0.10586
       6     H     0.45341  0.45341  0.00000  0.09317
       7     H     0.46244  0.46244  0.00000  0.07513
       8     O     4.17070  4.17070  0.00000 -0.34140
       9     H     0.47612  0.47612  0.00000  0.04776
      10     H     0.48048  0.48048  0.00000  0.03904
      11     C     3.03153  3.03153  0.00000 -0.06305
      12     H     0.44790  0.44790  0.00000  0.10420
      13     H     0.47441  0.47441  0.00000  0.05118
      14     H     0.47128  0.47128  0.00000  0.05743

   Total alpha = 21.00000, Total beta = 21.00000, Total charge = -0.00000
