                              Psi4 1.0.54 Driver

  ==> Input File <==

--------------------------------------------------------------------------
set {
	reference rhf
	basis cc-pvtz
}

set_num_threads( 4 )
memory 2 gb

molecule MOL {
0 1

H	 -2.644180	 -0.653737	 1.272255
C	 -2.092774	 -0.380414	 0.391915
O	 -0.808934	 -0.154049	 0.752536
F	 -2.163230	 -1.351640	 -0.507133
F	 -2.627232	 0.691260	 -0.169301
C	 -0.029970	 -1.228868	 1.123050
C	 0.748757	 -0.820498	 2.371287
Cl	 1.092099	 -1.684823	 -0.172559
H	 -0.614322	 -2.099794	 1.363189
F	 1.501547	 -1.807952	 2.785127
F	 -0.100358	 -0.530917	 3.328608
F	 1.503615	 0.223326	 2.164229

	symmetry c1
}
set optking {
	frozen_dihedral = ("
		6 3 2 4
	")
}

ee,wfn = optimize('scf', return_wfn=True)
oeprop( wfn, 'DIPOLE', 'QUADRUPOLE', 'MULLIKEN_CHARGES')
f=open( 'psi4out.xyz', 'w' )
f.write( "12  " )
f.write( str(ee) + "\n" )
f.write( MOL.save_string_xyz() )
f.close()
--------------------------------------------------------------------------

    Molecular point group: c1
  Charge       = 0
  Multiplicity = 1
  Basis Set: CC-PVTZ
  Basis Set:
  @DF-RHF Final Energy: -1146.61397082911344
    Total Energy =                      -1146.6139708291129864
    Molecular point group: c1
  Basis Set: CC-PVTZ
  Basis Set:
  Basis Set: CC-PVTZ
  Basis Set:
  @DF-RHF Final Energy: -1146.61581498501846
    Total Energy =                      -1146.6158149850182326
  Basis Set: CC-PVTZ
  Basis Set:
  Basis Set: CC-PVTZ
  Basis Set:
  @DF-RHF Final Energy: -1146.61630286668833
    Total Energy =                      -1146.6163028666890114
  Basis Set: CC-PVTZ
  Basis Set:
  Basis Set: CC-PVTZ
  Basis Set:
  @DF-RHF Final Energy: -1146.61634637533098
    Total Energy =                      -1146.6163463753309770
  Basis Set: CC-PVTZ
  Basis Set:
  @DF-RHF Final Energy: -1146.61634976536880
    Total Energy =                      -1146.6163497653687955
  @DF-RHF Final Energy: -1146.61635486118212
    Total Energy =                      -1146.6163548611812075
  Basis Set: CC-PVTZ
  Basis Set:
  @DF-RHF Final Energy: -1146.61635927647785
    Total Energy =                      -1146.6163592764778514
  Basis Set: CC-PVTZ
  Basis Set:
  Basis Set: CC-PVTZ
  Basis Set:
  @DF-RHF Final Energy: -1146.61636133263119
    Total Energy =                      -1146.6163613326305040
  Basis Set: CC-PVTZ
  Basis Set:
  Basis Set: CC-PVTZ
  Basis Set:
  @DF-RHF Final Energy: -1146.61636268438542
    Total Energy =                      -1146.6163626843845122
  Basis Set: CC-PVTZ
  Basis Set:
  Charge       = 0
  Multiplicity = 1
  Basis Set: CC-PVTZ
  Basis Set:

    Orbital Energies (a.u.)
    -----------------------

    Doubly Occupied:

       1A   -104.858282     2A    -26.359444     3A    -26.358964
       4A    -26.356735     5A    -26.344779     6A    -26.344177
       7A    -20.639781     8A    -11.523724     9A    -11.486473
      10A    -11.405412    11A    -10.583777    12A     -8.050574
      13A     -8.048569    14A     -8.048496    15A     -1.771946
      16A     -1.726653    17A     -1.666915    18A     -1.665788
      19A     -1.649489    20A     -1.487044    21A     -1.178948
      22A     -1.052979    23A     -0.991153    24A     -0.934092
      25A     -0.866261    26A     -0.859771    27A     -0.850226
      28A     -0.841986    29A     -0.823871    30A     -0.795161
      31A     -0.738379    32A     -0.735888    33A     -0.709374
      34A     -0.703818    35A     -0.689428    36A     -0.684878
      37A     -0.669651    38A     -0.668569    39A     -0.651816
      40A     -0.638974    41A     -0.617418    42A     -0.575043
      43A     -0.517921    44A     -0.479404    45A     -0.471515

  @DF-RHF Final Energy: -1146.61636290499769

   => Energetics <=

    Nuclear Repulsion Energy =            730.6186177035874607
    One-Electron Energy =               -3044.2228657198193105
    Two-Electron Energy =                1166.9878851112339362
    DFT Exchange-Correlation Energy =       0.0000000000000000
    Empirical Dispersion Energy =           0.0000000000000000
    PCM Polarization Energy =               0.0000000000000000
    EFP Energy =                            0.0000000000000000
    Total Energy =                      -1146.6163629049979136
    Molecular point group: c1
  Basis Set: CC-PVTZ
  Basis Set:

  -Total Gradient:
     Atom            X                  Y                   Z
    ------   -----------------  -----------------  -----------------
       1       -0.000000936440    -0.000000002451    -0.000001465580
       2        0.000231306698     0.000998311289    -0.001732065535
       3       -0.000469104254    -0.000108816399     0.002032632820
       4       -0.000063442370    -0.000802446637     0.000878967929
       5        0.000001686926     0.000015231788    -0.000002465542
       6        0.000261247486    -0.000089055338    -0.001140594123
       7        0.000048841744    -0.000008040116    -0.000007428927
       8        0.000014146718    -0.000009266155    -0.000019138559
       9        0.000005612876    -0.000005078262    -0.000007201514
      10       -0.000029819204     0.000011088037     0.000005082467
      11        0.000001837005    -0.000013924872    -0.000004127056
      12       -0.000001377183     0.000011999081    -0.000002196473

  **** Optimization is complete! (in 10 steps) ****
    Final optimized geometry and variables:
    Molecular point group: c1

    Geometry (in Angstrom), charge = 0, multiplicity = 1:

    H           -2.536475582361     0.125584832988     0.179287199408
    C           -1.937958737099     0.412664234159    -0.672515406001
    O           -0.639093353694     0.648053214393    -0.338033511137
    F           -2.019353988821    -0.545265009519    -1.583542445511
    F           -2.402458497799     1.520875098319    -1.188366488899
    C            0.149524647448    -0.424622901808    -0.005777561657
    C            0.892822612472    -0.071926396916     1.280268097708
    CL           1.301552121511    -0.803789172556    -1.298154168206
    H           -0.420266032204    -1.320422949504     0.179072904110
    F            1.649517333181    -1.067695158760     1.664643019407
    F            0.006145822227     0.148422080376     2.226999108838
    F            1.631089475081     0.993900613872     1.155032356865

  Mulliken Charges: (a.u.)
   Center  Symbol    Alpha    Beta     Spin     Total
       1     H     0.47500  0.47500  0.00000  0.05000
       2     C     2.74591  2.74591  0.00000  0.50818
       3     O     4.14692  4.14692  0.00000 -0.29385
       4     F     4.61491  4.61491  0.00000 -0.22983
       5     F     4.59756  4.59756  0.00000 -0.19513
       6     C     2.93653  2.93653  0.00000  0.12694
       7     C     2.66728  2.66728  0.00000  0.66545
       8    CL     8.57217  8.57217  0.00000 -0.14434
       9     H     0.43488  0.43488  0.00000  0.13024
      10     F     4.60200  4.60200  0.00000 -0.20400
      11     F     4.60889  4.60889  0.00000 -0.21778
      12     F     4.59794  4.59794  0.00000 -0.19589

   Total alpha = 45.00000, Total beta = 45.00000, Total charge = -0.00000

*** Psi4 exiting successfully. Buy a developer a beer!
