  ==> Input File <==

--------------------------------------------------------------------------
set {
	reference rhf
	basis 6-31G*
}

set_num_threads( 4 )
memory 2 gb

molecule MOL {
0 1

H	 5.268524	 0.192471	 1.070992
C	 4.673736	 -0.214914	 0.259335
C	 3.185378	 -0.203514	 0.605509
H	 4.871837	 0.380453	 -0.627026
H	 5.025590	 -1.224632	 0.065769
C	 2.317601	 -0.778379	 -0.516234
H	 2.874655	 0.814325	 0.817774
H	 3.023650	 -0.778480	 1.515976
C	 0.953090	 -1.280131	 -0.043348
H	 2.169925	 -0.026560	 -1.283439
H	 2.843886	 -1.608052	 -0.982825
C	 -0.015652	 -0.177439	 0.357718
H	 0.470656	 -1.840850	 -0.842486
H	 1.061093	 -1.979643	 0.782602
C	 -1.220609	 -0.571254	 1.194199
O	 0.148911	 0.954952	 0.015646
C	 -2.169225	 -1.551600	 0.488357
H	 -1.745218	 0.343099	 1.444116
H	 -0.866819	 -1.017255	 2.121884
C	 -3.419192	 -1.850089	 1.318477
H	 -2.466388	 -1.134585	 -0.471543
H	 -1.652577	 -2.484064	 0.276090
C	 -4.371232	 -2.824656	 0.626565
H	 -3.941735	 -0.919730	 1.526908
H	 -3.121573	 -2.257144	 2.282388
H	 -4.711742	 -2.430104	 -0.326381
H	 -3.887207	 -3.778285	 0.435711
H	 -5.247723	 -3.015428	 1.237505

	symmetry c1
}
set optking {
	frozen_dihedral = ("
		10 6 3 2
	")
}

ee = optimize('scf')
oeprop('DIPOLE', 'QUADRUPOLE', 'MULLIKEN_CHARGES')
f=open( 'psi4out.xyz', 'w' )
f.write( "28  " )
f.write( str(ee) + "\n" )
f.write( MOL.save_string_xyz() )
f.close()
--------------------------------------------------------------------------

    Molecular point group: c1
  Charge       = 0
  Multiplicity = 1
  Basis Set: 6-31G*
  Basis Set:
  @DF-RHF Final Energy:  -426.16757953012723
    Total Energy =                       -426.1675795301271137
    Molecular point group: c1
  Basis Set: 6-31G*
  Basis Set:
  Basis Set: 6-31G*
  Basis Set:
  @DF-RHF Final Energy:  -426.16772192796270
    Total Energy =                       -426.1677219279625888
  Basis Set: 6-31G*
  Basis Set:
  Basis Set: 6-31G*
  Basis Set:
  @DF-RHF Final Energy:  -426.16766735373255
    Total Energy =                       -426.1676673537319857
  Basis Set: 6-31G*
  Basis Set:
  Basis Set: 6-31G*
  Basis Set:
  @DF-RHF Final Energy:  -426.16779882401306
    Total Energy =                       -426.1677988240132890
  Basis Set: 6-31G*
  Basis Set:
  Basis Set: 6-31G*
  Basis Set:
  @DF-RHF Final Energy:  -426.16778876792171
    Total Energy =                       -426.1677887679220476
  Basis Set: 6-31G*
  Basis Set:
  Basis Set: 6-31G*
  Basis Set:
  @DF-RHF Final Energy:  -426.16779998965103
    Total Energy =                       -426.1677999896508027
  Basis Set: 6-31G*
  Basis Set:
  Basis Set: 6-31G*
  Basis Set:
  @DF-RHF Final Energy:  -426.16780448928114
    Total Energy =                       -426.1678044892810249
  Basis Set: 6-31G*
  Basis Set:
  Charge       = 0
  Multiplicity = 1
  Basis Set: 6-31G*
  Basis Set:

    Orbital Energies (a.u.)
    -----------------------

    Doubly Occupied:

       1A    -20.548122     2A    -11.322054     3A    -11.232396
       4A    -11.229658     5A    -11.228760     6A    -11.226093
       7A    -11.216564     8A    -11.216334     9A    -11.211842
      10A    -11.206557    11A     -1.393153    12A     -1.095097
      13A     -1.076813    14A     -1.022446    15A     -0.990777
      16A     -0.907315    17A     -0.873055    18A     -0.809240
      19A     -0.800079    20A     -0.722517    21A     -0.668139
      22A     -0.653187    23A     -0.630409    24A     -0.620061
      25A     -0.606259    26A     -0.585418    27A     -0.579496
      28A     -0.576164    29A     -0.542457    30A     -0.534314
      31A     -0.518666    32A     -0.505460    33A     -0.500450
      34A     -0.485081    35A     -0.479964    36A     -0.476183
      37A     -0.471679    38A     -0.463153    39A     -0.454785
      40A     -0.392105

  @DF-RHF Final Energy:  -426.16780471484128

   => Energetics <=

    Nuclear Repulsion Energy =            531.0777628485892592
    One-Electron Energy =               -1630.3465270988713200
    Two-Electron Energy =                 673.1009595354407793
    DFT Exchange-Correlation Energy =       0.0000000000000000
    Empirical Dispersion Energy =           0.0000000000000000
    PCM Polarization Energy =               0.0000000000000000
    EFP Energy =                            0.0000000000000000
    Total Energy =                       -426.1678047148411679
    Molecular point group: c1
  Basis Set: 6-31G*
  Basis Set:

  -Total Gradient:
     Atom            X                  Y                   Z
    ------   -----------------  -----------------  -----------------
       1       -0.000000107917    -0.000000369576    -0.000002267492
       2        0.000272726910    -0.002301078426     0.001054238471
       3       -0.001058394197     0.003430298167    -0.001068968377
       4       -0.000004864009    -0.000002862638     0.000005031767
       5        0.000008555447    -0.000003932407     0.000000491716
       6        0.003726556948    -0.002198329214    -0.001603350562
       7       -0.000000503623     0.000012715015     0.000007272593
       8        0.000000760047     0.000002525307    -0.000007432689
       9       -0.000002598762    -0.000019780326     0.000037120337
      10       -0.002927857412     0.001065076189     0.001629824566
      11       -0.000004977379    -0.000006504335    -0.000009520650
      12       -0.000027470921    -0.000006018014     0.000003831410
      13       -0.000006190546     0.000001261418    -0.000014705548
      14        0.000011857316     0.000011975935    -0.000015403494
      15        0.000008494378     0.000017769507     0.000004188571
      16       -0.000002106250     0.000007125594    -0.000013971684
      17       -0.000000306022    -0.000001500085    -0.000003139561
      18        0.000000437612     0.000000807607     0.000000936221
      19        0.000001078437     0.000000379967    -0.000003697822
      20        0.000003987529    -0.000010056986     0.000002309336
      21       -0.000003602313    -0.000003660916    -0.000002442177
      22        0.000007829176     0.000000785180     0.000001066495
      23       -0.000006005321     0.000007394850    -0.000002835344
      24        0.000004071658    -0.000000877486     0.000003579153
      25        0.000000279213    -0.000004519782    -0.000000528100
      26        0.000000229640    -0.000001852007    -0.000003000273
      27        0.000000162962     0.000001164975     0.000003217647
      28       -0.000002042598     0.000002062490    -0.000001844512

  **** Optimization is complete! (in 8 steps) ****
    Final optimized geometry and variables:
    Molecular point group: c1

    Geometry (in Angstrom), charge = 0, multiplicity = 1:

    H            5.222648803551     1.143219976870     0.634622530505
    C            4.649584264051     0.680561693650    -0.162956702914
    C            3.157803833506     0.656992909448     0.169598167065
    H            4.841717290366     1.240736700756    -1.074013809163
    H            5.032969923992    -0.325569577924    -0.307159239120
    C            2.310426774123     0.043609258690    -0.952764955353
    H            2.805903081965     1.659981471411     0.382252662601
    H            3.019367891392     0.079437832706     1.082712293343
    C            0.939861988979    -0.450914467275    -0.485953749884
    H            2.150212881227     0.782398635573    -1.729962766641
    H            2.840171900517    -0.795220633405    -1.396417620508
    C           -0.014365415969     0.657257185965    -0.066236206022
    H            0.450284576660    -0.992160125651    -1.294384553347
    H            1.040778291570    -1.164711878680     0.328294745146
    C           -1.219331714207     0.267697214771     0.771920270703
    O            0.161359767731     1.791547686816    -0.396694828857
    C           -2.181835574710    -0.694201660105     0.059511104057
    H           -1.732651361269     1.184813822145     1.034765123775
    H           -0.865930289780    -0.192702729122     1.692685534345
    C           -3.430096693953    -0.990390910226     0.892984038906
    H           -2.480116300568    -0.262334380752    -0.893434783207
    H           -1.675794837989    -1.629077377082    -0.167236952671
    C           -4.397035263432    -1.944599450064     0.193394521616
    H           -3.940976921952    -0.057300473531     1.117474422902
    H           -3.131318277145    -1.414123351612     1.849331990665
    H           -4.738399588096    -1.533237729877    -0.752107323289
    H           -3.924949083418    -2.900920433259    -0.013216027010
    H           -5.272196528437    -2.133817748768     0.806755761876

  Mulliken Charges: (a.u.)
   Center  Symbol    Alpha    Beta     Spin     Total
       1     H     0.41937  0.41937  0.00000  0.16126
       2     C     3.24015  3.24015  0.00000 -0.48030
       3     C     3.15806  3.15806  0.00000 -0.31612
       4     H     0.42020  0.42020  0.00000  0.15960
       5     H     0.42360  0.42360  0.00000  0.15280
       6     C     3.14915  3.14915  0.00000 -0.29830
       7     H     0.40591  0.40591  0.00000  0.18817
       8     H     0.42848  0.42848  0.00000  0.14305
       9     C     3.21259  3.21259  0.00000 -0.42517
      10     H     0.40635  0.40635  0.00000  0.18730
      11     H     0.42116  0.42116  0.00000  0.15768
      12     C     2.73130  2.73130  0.00000  0.53739
      13     H     0.40339  0.40339  0.00000  0.19322
      14     H     0.41337  0.41337  0.00000  0.17326
      15     C     3.20142  3.20142  0.00000 -0.40285
      16     O     4.26689  4.26689  0.00000 -0.53379
      17     C     3.16388  3.16388  0.00000 -0.32776
      18     H     0.39983  0.39983  0.00000  0.20034
      19     H     0.41287  0.41287  0.00000  0.17426
      20     C     3.15180  3.15180  0.00000 -0.30360
      21     H     0.41380  0.41380  0.00000  0.17240
      22     H     0.41857  0.41857  0.00000  0.16286
      23     C     3.24033  3.24033  0.00000 -0.48065
      24     H     0.41839  0.41839  0.00000  0.16321
      25     H     0.42143  0.42143  0.00000  0.15713
      26     H     0.41961  0.41961  0.00000  0.16078
      27     H     0.42120  0.42120  0.00000  0.15760
      28     H     0.41688  0.41688  0.00000  0.16624

   Total alpha = 40.00000, Total beta = 40.00000, Total charge =  0.00000
