                              Psi4 1.0.54 Driver

  ==> Input File <==

--------------------------------------------------------------------------
set {
	reference rhf
	basis cc-pvtz
}

set_num_threads( 4 )
memory 2 gb

molecule MOL {
0 1

O	 -1.751771	 -1.985239	 -1.146026
C	 -0.773166	 -1.593579	 -0.606782
C	 0.531007	 -2.345461	 -0.519237
O	 -0.695554	 -0.422406	 0.000602
C	 0.494091	 -3.701869	 -1.204631
H	 0.776289	 -2.441106	 0.532732
H	 1.298023	 -1.708347	 -0.945510
H	 -0.261105	 -4.339792	 -0.765369
H	 1.454790	 -4.193061	 -1.109046
H	 0.265364	 -3.600390	 -2.257063
C	 -1.852370	 0.402254	 0.000718
C	 -3.063338	 -0.501097	 -0.000437
H	 -1.831732	 1.039442	 -0.872158
H	 -1.832493	 1.038301	 0.874430
H	 -3.071944	 -1.133732	 -0.879113
H	 -3.966302	 0.097976	 -0.000483
H	 -3.072764	 -1.134834	 0.877435

	symmetry c1
}
set optking {
	frozen_dihedral = ("
		2 4 11 13
	")
}

ee,wfn = optimize('scf', return_wfn=True)
oeprop( wfn, 'DIPOLE', 'QUADRUPOLE', 'MULLIKEN_CHARGES')
f=open( 'psi4out.xyz', 'w' )
f.write( "17  " )
f.write( str(ee) + "\n" )
f.write( MOL.save_string_xyz() )
f.close()
--------------------------------------------------------------------------

    Molecular point group: c1
  Charge       = 0
  Multiplicity = 1
  Basis Set: CC-PVTZ
  Basis Set:
  @DF-RHF Final Energy:  -344.98984311100332
    Total Energy =                       -344.9898431110029833
    Molecular point group: c1
  Basis Set: CC-PVTZ
  Basis Set:
  Basis Set: CC-PVTZ
  Basis Set:
  @DF-RHF Final Energy:  -345.02151353825792
    Total Energy =                       -345.0215135382580343
  Basis Set: CC-PVTZ
  Basis Set:
  Basis Set: CC-PVTZ
  Basis Set:
  @DF-RHF Final Energy:  -345.02899419853856
    Total Energy =                       -345.0289941985382711
  Basis Set: CC-PVTZ
  Basis Set:
  Basis Set: CC-PVTZ
  Basis Set:
  @DF-RHF Final Energy:  -344.98596020165832
    Total Energy =                       -344.9859602016582585
  Basis Set: CC-PVTZ
  Basis Set:
  @DF-RHF Final Energy:  -345.02879048046617
    Total Energy =                       -345.0287904804662844
  @DF-RHF Final Energy:  -345.02991546269203
    Total Energy =                       -345.0299154626920881
  @DF-RHF Final Energy:  -345.03216436563497
    Total Energy =                       -345.0321643656349124
  @DF-RHF Final Energy:  -345.03231610591399
    Total Energy =                       -345.0323161059141057
  Basis Set: CC-PVTZ
  Basis Set:
  @DF-RHF Final Energy:  -345.03234061200646
    Total Energy =                       -345.0323406120065215
  Basis Set: CC-PVTZ
  Basis Set:
  Basis Set: CC-PVTZ
  Basis Set:
  @DF-RHF Final Energy:  -345.03234647425779
    Total Energy =                       -345.0323464742578494
  Basis Set: CC-PVTZ
  Basis Set:
  Basis Set: CC-PVTZ
  Basis Set:
  @DF-RHF Final Energy:  -345.03234748978525
    Total Energy =                       -345.0323474897854794
  Basis Set: CC-PVTZ
  Basis Set:
  Charge       = 0
  Multiplicity = 1
  Basis Set: CC-PVTZ
  Basis Set:

    Orbital Energies (a.u.)
    -----------------------

    Doubly Occupied:

       1A    -20.591012     2A    -20.530744     3A    -11.364177
       4A    -11.287346     5A    -11.234181     6A    -11.214600
       7A    -11.212643     8A     -1.465522     9A     -1.364510
      10A     -1.068640    11A     -1.028740    12A     -0.920064
      13A     -0.858550    14A     -0.746706    15A     -0.699316
      16A     -0.683072    17A     -0.667571    18A     -0.628130
      19A     -0.608301    20A     -0.567885    21A     -0.546370
      22A     -0.530957    23A     -0.522052    24A     -0.517766
      25A     -0.494935    26A     -0.492208    27A     -0.451400
      28A     -0.432238

  @DF-RHF Final Energy:  -345.03234765395007

   => Energetics <=

    Nuclear Repulsion Energy =            319.6305595856612172
    One-Electron Energy =               -1103.8665490232742741
    Two-Electron Energy =                 439.2036417836626470
    DFT Exchange-Correlation Energy =       0.0000000000000000
    Empirical Dispersion Energy =           0.0000000000000000
    PCM Polarization Energy =               0.0000000000000000
    EFP Energy =                            0.0000000000000000
    Total Energy =                       -345.0323476539504099
    Molecular point group: c1
  Basis Set: CC-PVTZ
  Basis Set:

  -Total Gradient:
     Atom            X                  Y                   Z
    ------   -----------------  -----------------  -----------------
       1        0.000003450245    -0.000012473821     0.000015510169
       2       -0.002446034693    -0.003487357794     0.003703896021
       3        0.000015734661    -0.000027645023     0.000029119149
       4        0.004128881559     0.006226840172    -0.004524646559
       5       -0.000019140386    -0.000008257433    -0.000032377347
       6        0.000017369382     0.000013865018    -0.000022512903
       7       -0.000046179975    -0.000038712006    -0.000024798389
       8        0.000036785019     0.000037962191     0.000008687528
       9        0.000005905911    -0.000008230740    -0.000001293878
      10       -0.000010918955    -0.000011897441     0.000041138494
      11       -0.003275365678    -0.006313505556    -0.003765448208
      12       -0.000009944262    -0.000024794311    -0.000134682169
      13        0.001708541178     0.003603153518     0.004596529220
      14       -0.000038771828    -0.000014331026     0.000005789362
      15       -0.000028117989     0.000034494689     0.000079447155
      16       -0.000040789091     0.000022638787     0.000017009468
      17       -0.000001405101     0.000008250777     0.000008632884

  **** Optimization is complete! (in 12 steps) ****
    Final optimized geometry and variables:
    Molecular point group: c1

    Geometry (in Angstrom), charge = 0, multiplicity = 1:

    O           -0.251034263980    -0.437701904296    -1.108794642814
    C            0.342091170322    -0.131672640267    -0.131337000404
    C            1.565026719653    -0.846871613156     0.390083502448
    O            0.039340440954     0.896844116042     0.639348301352
    C            2.026364431758    -1.987206550780    -0.502934213796
    H            1.326942548145    -1.200058382590     1.387627418131
    H            2.343766698667    -0.103757924487     0.517476984224
    H            1.251870188559    -2.734157241108    -0.612638617170
    H            2.902199911461    -2.461889416785    -0.077343422526
    H            2.278920966836    -1.629613166699    -1.492253055041
    C           -1.174523070162     1.635343628925     0.519850031968
    C           -2.437513086045     0.851283931462     0.221035536226
    H           -1.010282187479     2.446005004462    -0.178618465597
    H           -1.270570417625     2.092523897635     1.494555286250
    H           -2.478549437951     0.493891400121    -0.793056736526
    H           -3.280803200748     1.509948351124     0.398926442371
    H           -2.531164899969     0.005025769125     0.891681989495

  Mulliken Charges: (a.u.)
   Center  Symbol    Alpha    Beta     Spin     Total
       1     O     4.19911  4.19911  0.00000 -0.39822
       2     C     2.80182  2.80182  0.00000  0.39636
       3     C     3.09401  3.09401  0.00000 -0.18802
       4     O     4.15459  4.15459  0.00000 -0.30918
       5     C     3.13988  3.13988  0.00000 -0.27976
       6     H     0.44354  0.44354  0.00000  0.11291
       7     H     0.44027  0.44027  0.00000  0.11945
       8     H     0.44849  0.44849  0.00000  0.10302
       9     H     0.45079  0.45079  0.00000  0.09842
      10     H     0.44897  0.44897  0.00000  0.10206
      11     C     2.98307  2.98307  0.00000  0.03385
      12     C     3.15538  3.15538  0.00000 -0.31075
      13     H     0.45519  0.45519  0.00000  0.08962
      14     H     0.44914  0.44914  0.00000  0.10172
      15     H     0.43249  0.43249  0.00000  0.13503
      16     H     0.45049  0.45049  0.00000  0.09902
      17     H     0.45277  0.45277  0.00000  0.09447

   Total alpha = 28.00000, Total beta = 28.00000, Total charge =  0.00000

*** Psi4 exiting successfully. Buy a developer a beer!
