                              Psi4 1.0.54 Driver

  ==> Input File <==

--------------------------------------------------------------------------
set {
	reference rhf
	basis cc-pvtz
}

set_num_threads( 4 )
memory 2 gb

molecule MOL {
0 1

H	 -1.835082	 1.385983	 0.000069
C	 -1.300516	 0.441153	 -0.000028
O	 -0.006604	 0.654344	 -0.000106
O	 -1.828920	 -0.612308	 0.000113
C	 0.445080	 1.987670	 -0.219305
C	 1.954573	 1.976365	 -0.174544
H	 0.027901	 2.627820	 0.544977
H	 0.076702	 2.328303	 -1.176504
H	 2.309127	 1.629677	 0.787781
H	 2.331348	 2.978901	 -0.338303
H	 2.358177	 1.328629	 -0.942341

	symmetry c1
}
set optking {
	frozen_dihedral = ("
		5 3 2 4
	")
}

ee,wfn = optimize('scf', return_wfn=True)
oeprop( wfn, 'DIPOLE', 'QUADRUPOLE', 'MULLIKEN_CHARGES')
f=open( 'psi4out.xyz', 'w' )
f.write( "11  " )
f.write( str(ee) + "\n" )
f.write( MOL.save_string_xyz() )
f.close()
--------------------------------------------------------------------------

    Molecular point group: c1
  Charge       = 0
  Multiplicity = 1
  Basis Set: CC-PVTZ
  Basis Set:
  @DF-RHF Final Energy:  -266.92231610405872
    Total Energy =                       -266.9223161040586092
    Molecular point group: c1
  Basis Set: CC-PVTZ
  Basis Set:
  Basis Set: CC-PVTZ
  Basis Set:
  @DF-RHF Final Energy:  -266.92329058647135
    Total Energy =                       -266.9232905864713530
  Basis Set: CC-PVTZ
  Basis Set:
  Basis Set: CC-PVTZ
  Basis Set:
  @DF-RHF Final Energy:  -266.92327928936675
    Total Energy =                       -266.9232792893667465
  Basis Set: CC-PVTZ
  Basis Set:
  Basis Set: CC-PVTZ
  Basis Set:
  @DF-RHF Final Energy:  -266.92347936645604
    Total Energy =                       -266.9234793664560357
  Basis Set: CC-PVTZ
  Basis Set:
  Basis Set: CC-PVTZ
  Basis Set:
  @DF-RHF Final Energy:  -266.92349343238851
    Total Energy =                       -266.9234934323883977
  Basis Set: CC-PVTZ
  Basis Set:
  Basis Set: CC-PVTZ
  Basis Set:
  @DF-RHF Final Energy:  -266.92349646249033
    Total Energy =                       -266.9234964624901068
  Basis Set: CC-PVTZ
  Basis Set:
  Charge       = 0
  Multiplicity = 1
  Basis Set: CC-PVTZ
  Basis Set:

    Orbital Energies (a.u.)
    -----------------------

    Doubly Occupied:

       1A    -20.605284     2A    -20.544276     3A    -11.371634
       4A    -11.304575     5A    -11.232065     6A     -1.476819
       7A     -1.383131     8A     -1.056670     9A     -0.889819
      10A     -0.848499    11A     -0.739972    12A     -0.698549
      13A     -0.671243    14A     -0.604107    15A     -0.577945
      16A     -0.565354    17A     -0.533050    18A     -0.522737
      19A     -0.460249    20A     -0.453400

  @DF-RHF Final Energy:  -266.92349660409445

   => Energetics <=

    Nuclear Repulsion Energy =            176.6701947192957505
    One-Electron Energy =                -714.1086214352571915
    Two-Electron Energy =                 270.5149301118669882
    DFT Exchange-Correlation Energy =       0.0000000000000000
    Empirical Dispersion Energy =           0.0000000000000000
    PCM Polarization Energy =               0.0000000000000000
    EFP Energy =                            0.0000000000000000
    Total Energy =                       -266.9234966040944528
    Molecular point group: c1
  Basis Set: CC-PVTZ
  Basis Set:

  -Total Gradient:
     Atom            X                  Y                   Z
    ------   -----------------  -----------------  -----------------
       1       -0.000003033099     0.000014921124     0.000005457909
       2        0.000129771675    -0.000254769487     0.001636382923
       3        0.000145740968     0.000219568189     0.001056093418
       4       -0.000142133187     0.000143664398    -0.001509148909
       5       -0.000129679063    -0.000103756734    -0.001187615815
       6        0.000007079777    -0.000009289502    -0.000002800317
       7       -0.000001731866    -0.000003233435     0.000001786039
       8       -0.000002161504    -0.000002150132    -0.000002105153
       9       -0.000000108221    -0.000001468631     0.000001363578
      10       -0.000006967679    -0.000002898921     0.000000769819
      11        0.000003222195    -0.000000586873    -0.000000183493

  **** Optimization is complete! (in 7 steps) ****
    Final optimized geometry and variables:
    Molecular point group: c1

    Geometry (in Angstrom), charge = 0, multiplicity = 1:

    H           -1.740663398134     0.477335610266     0.270216273785
    C           -1.164842048162    -0.438967837147     0.130773030429
    O            0.130997236525    -0.238481042488    -0.003340580239
    O           -1.658375754366    -1.502459090990     0.104215696370
    C            0.590668031266     1.091222215608    -0.170711161505
    C            2.097215266501     1.086614055504    -0.062000964982
    H            0.153053046880     1.726795883723     0.591014994280
    H            0.276729643815     1.456901279802    -1.141328497250
    H            2.407761724557     0.724183375773     0.909255173925
    H            2.478471700790     2.091826682133    -0.195678878597
    H            2.530661514257     0.448531909028    -0.820669009482

  Mulliken Charges: (a.u.)
   Center  Symbol    Alpha    Beta     Spin     Total
       1     H     0.47562  0.47562  0.00000  0.04876
       2     C     2.84573  2.84573  0.00000  0.30855
       3     O     4.12432  4.12432  0.00000 -0.24863
       4     O     4.17574  4.17574  0.00000 -0.35148
       5     C     2.97784  2.97784  0.00000  0.04433
       6     C     3.13316  3.13316  0.00000 -0.26631
       7     H     0.46194  0.46194  0.00000  0.07611
       8     H     0.45707  0.45707  0.00000  0.08587
       9     H     0.44762  0.44762  0.00000  0.10476
      10     H     0.45531  0.45531  0.00000  0.08937
      11     H     0.44566  0.44566  0.00000  0.10868

   Total alpha = 20.00000, Total beta = 20.00000, Total charge = -0.00000

*** Psi4 exiting successfully. Buy a developer a beer!
