                              Psi4 1.0.54 Driver

  ==> Input File <==

--------------------------------------------------------------------------
set {
	reference rhf
	basis cc-pvtz
}

set_num_threads( 4 )
memory 2 gb

molecule MOL {
0 1

H	 2.429705	 2.338218	 -0.734986
N	 1.656153	 1.712023	 -0.806492
C	 1.860978	 0.530248	 0.016256
H	 1.565861	 1.464305	 -1.769732
C	 0.644130	 -0.381765	 -0.031064
H	 2.020673	 0.860860	 1.037089
H	 2.746723	 -0.038141	 -0.270702
C	 -0.678115	 0.376691	 0.025731
H	 0.693998	 -0.977147	 -0.936845
H	 0.693309	 -1.082142	 0.800523
C	 -1.900706	 -0.535531	 -0.022488
H	 -0.725296	 1.079516	 -0.802982
H	 -0.715474	 0.974884	 0.933278
C	 -3.220513	 0.226854	 0.028039
H	 -1.865036	 -1.134397	 -0.928236
H	 -1.857948	 -1.236381	 0.806820
H	 -3.309098	 0.911849	 -0.808725
H	 -4.066838	 -0.449485	 -0.008086
H	 -3.301685	 0.809374	 0.939860

	symmetry c1
}
set optking {
	frozen_dihedral = ("
		6 3 5 9
	")
}

ee,wfn = optimize('scf', return_wfn=True)
oeprop( wfn, 'DIPOLE', 'QUADRUPOLE', 'MULLIKEN_CHARGES')
f=open( 'psi4out.xyz', 'w' )
f.write( "19  " )
f.write( str(ee) + "\n" )
f.write( MOL.save_string_xyz() )
f.close()
--------------------------------------------------------------------------

    Molecular point group: c1
  Charge       = 0
  Multiplicity = 1
  Basis Set: CC-PVTZ
  Basis Set:
  @DF-RHF Final Energy:  -251.44423632228651
    Total Energy =                       -251.4442363222867698
    Molecular point group: c1
  Basis Set: CC-PVTZ
  Basis Set:
  Basis Set: CC-PVTZ
  Basis Set:
  @DF-RHF Final Energy:  -251.34219378982212
    Total Energy =                       -251.3421937898223177
  Basis Set: CC-PVTZ
  Basis Set:
  Basis Set: CC-PVTZ
  Basis Set:
  @DF-RHF Final Energy:  -251.42813505836355
    Total Energy =                       -251.4281350583632957
  Basis Set: CC-PVTZ
  Basis Set:
  Basis Set: CC-PVTZ
  Basis Set:
  @DF-RHF Final Energy:  -251.44528684477120
    Total Energy =                       -251.4452868447712603
  Basis Set: CC-PVTZ
  Basis Set:
  Basis Set: CC-PVTZ
  Basis Set:
  @DF-RHF Final Energy:  -251.44564054518426
    Total Energy =                       -251.4456405451840624
  Basis Set: CC-PVTZ
  Basis Set:
  Basis Set: CC-PVTZ
  Basis Set:
  @DF-RHF Final Energy:  -251.44568222661400
    Total Energy =                       -251.4456822266141671
  Basis Set: CC-PVTZ
  Basis Set:
  Basis Set: CC-PVTZ
  Basis Set:
  @DF-RHF Final Energy:  -251.44568323240213
    Total Energy =                       -251.4456832324021889
  Basis Set: CC-PVTZ
  Basis Set:
  Charge       = 0
  Multiplicity = 1
  Basis Set: CC-PVTZ
  Basis Set:

    Orbital Energies (a.u.)
    -----------------------

    Doubly Occupied:

       1A    -15.527510     2A    -11.239082     3A    -11.208845
       4A    -11.207367     5A    -11.201706     6A    -11.201374
       7A     -1.179191     8A     -1.068081     9A     -0.996314
      10A     -0.904268    11A     -0.812010    12A     -0.779594
      13A     -0.668212    14A     -0.632033    15A     -0.622143
      16A     -0.585546    17A     -0.565246    18A     -0.548275
      19A     -0.529436    20A     -0.495186    21A     -0.477210
      22A     -0.463875    23A     -0.454071    24A     -0.448731
      25A     -0.381839

  @DF-RHF Final Energy:  -251.44568360592413

   => Energetics <=

    Nuclear Repulsion Energy =            249.5604894063746144
    One-Electron Energy =                -833.6180582191241228
    Two-Electron Energy =                 332.6118852068253773
    DFT Exchange-Correlation Energy =       0.0000000000000000
    Empirical Dispersion Energy =           0.0000000000000000
    PCM Polarization Energy =               0.0000000000000000
    EFP Energy =                            0.0000000000000000
    Total Energy =                       -251.4456836059241596
    Molecular point group: c1
  Basis Set: CC-PVTZ
  Basis Set:

  -Total Gradient:
     Atom            X                  Y                   Z
    ------   -----------------  -----------------  -----------------
       1       -0.000019517258    -0.000009347160    -0.000008190385
       2        0.000005090970     0.000029078261    -0.000016423118
       3       -0.002519964989     0.003879467537     0.001462105204
       4        0.000001852171     0.000012749514    -0.000002632137
       5       -0.002130022463     0.004287022651    -0.000888117668
       6        0.002473971673    -0.003994020276    -0.001076769961
       7       -0.000009070161    -0.000000337433     0.000014415387
       8       -0.000009810437    -0.000002731188    -0.000013315052
       9        0.002209062593    -0.004218011915     0.000532121955
      10        0.000003714682    -0.000000424937    -0.000007782974
      11       -0.000007101907     0.000030542825     0.000001277191
      12       -0.000002798720    -0.000002298873     0.000006734463
      13       -0.000001542771     0.000008209363     0.000000966949
      14       -0.000002069603    -0.000022421293    -0.000006771185
      15       -0.000004723161    -0.000001283568    -0.000011273043
      16        0.000002009377    -0.000002064200     0.000000000281
      17        0.000003390947    -0.000001800468    -0.000002795330
      18        0.000006256283     0.000002841916     0.000006474728
      19        0.000001272776     0.000004829242     0.000009974697

  **** Optimization is complete! (in 8 steps) ****
    Final optimized geometry and variables:
    Molecular point group: c1

    Geometry (in Angstrom), charge = 0, multiplicity = 1:

    H            2.914122759932     1.925414935067     0.002018253586
    N            2.064891816920     1.475897828406    -0.266473233685
    C            2.120836519804     0.051444813234     0.016711434987
    H            1.942595790186     1.639523442317    -1.244470455031
    C            0.816810986183    -0.674196940956    -0.310243215837
    H            2.354896561844    -0.089013999968     1.066672537500
    H            2.923571388648    -0.449869150561    -0.525985997661
    C           -0.452318803596    -0.005805560683     0.206465920405
    H            0.755390481276    -0.844278192896    -1.383474427726
    H            0.892431297340    -1.670493829802     0.119743764104
    C           -1.707774393556    -0.831670356459    -0.060497580688
    H           -0.560371437408     0.974584841366    -0.241443685267
    H           -0.353199329381     0.164860353840     1.275837994521
    C           -2.980870078987    -0.165598528420     0.450869814147
    H           -1.800591949862    -1.010032510648    -1.128833511820
    H           -1.603719879988    -1.809753036480     0.401987382651
    H           -3.133271228421     0.799621885866    -0.020457206146
    H           -3.853944997437    -0.775149702518     0.246779797963
    H           -2.933736215946    -0.003617946240     1.522680977132

  Mulliken Charges: (a.u.)
   Center  Symbol    Alpha    Beta     Spin     Total
       1     H     0.42922  0.42922  0.00000  0.14156
       2     N     3.68766  3.68766  0.00000 -0.37531
       3     C     3.03877  3.03877  0.00000 -0.07754
       4     H     0.43116  0.43116  0.00000  0.13769
       5     C     3.10115  3.10115  0.00000 -0.20230
       6     H     0.45541  0.45541  0.00000  0.08918
       7     H     0.46106  0.46106  0.00000  0.07788
       8     C     3.07487  3.07487  0.00000 -0.14975
       9     H     0.45386  0.45386  0.00000  0.09227
      10     H     0.45298  0.45298  0.00000  0.09405
      11     C     3.08437  3.08437  0.00000 -0.16874
      12     H     0.44995  0.44995  0.00000  0.10010
      13     H     0.45688  0.45688  0.00000  0.08623
      14     C     3.14961  3.14961  0.00000 -0.29922
      15     H     0.45653  0.45653  0.00000  0.08693
      16     H     0.45621  0.45621  0.00000  0.08759
      17     H     0.45520  0.45520  0.00000  0.08960
      18     H     0.44978  0.44978  0.00000  0.10045
      19     H     0.45534  0.45534  0.00000  0.08933

   Total alpha = 25.00000, Total beta = 25.00000, Total charge = -0.00000

*** Psi4 exiting successfully. Buy a developer a beer!
