  ==> Input File <==

--------------------------------------------------------------------------
set {
	reference rhf
	basis 6-31G*
}

set_num_threads( 1 )
memory 2 gb

molecule MOL {
0 1

O	 -0.223632	 -2.225502	 -0.432607
C	 -1.291773	 -1.743482	 -0.229271
C	 -2.577030	 -2.530098	 -0.204367
O	 -1.481751	 -0.454642	 0.000584
H	 -2.498852	 -3.300422	 0.553492
H	 -3.430871	 -1.900615	 -0.001526
H	 -2.701788	 -3.023085	 -1.161069
C	 -0.334255	 0.388708	 0.000906
C	 0.891947	 -0.504646	 0.000751
H	 -0.365390	 1.025305	 -0.873475
H	 -0.365484	 1.024911	 0.875569
C	 2.191998	 0.301789	 0.000897
H	 0.855148	 -1.151283	 -0.871571
H	 0.855132	 -1.151660	 0.872805
C	 3.441114	 -0.581407	 0.000108
H	 2.215074	 0.954890	 -0.869742
H	 2.215465	 0.953923	 0.872248
C	 4.739576	 0.224112	 -0.001102
H	 3.419457	 -1.233487	 -0.870178
H	 3.420834	 -1.233096	 0.870717
H	 4.804918	 0.861552	 -0.878265
H	 5.606527	 -0.429058	 -0.001824
H	 4.806469	 0.861674	 0.875853

	symmetry c1
}
set optking {
	frozen_dihedral = ("
		13 9 8 10,
		16 12 9 13,
		19 15 12 16,
		1 2 4 8
	")
}

ee = energy('scf')
oeprop('DIPOLE', 'QUADRUPOLE', 'MULLIKEN_CHARGES')
f=open( 'psi4out.xyz', 'w' )
f.write( "23  " )
f.write( str(ee) + "\n" )
f.write( MOL.save_string_xyz() )
f.close()
--------------------------------------------------------------------------

    Molecular point group: c1

    Geometry (in Angstrom), charge = 0, multiplicity = 1:

       Center              X                  Y                   Z               Mass
    ------------   -----------------  -----------------  -----------------  -----------------
           O         -0.811225153856    -1.426036368613    -0.334936876149    15.994914619560
           C         -1.879366153856    -0.944016368613    -0.131600876149    12.000000000000
           C         -3.164623153856    -1.730632368613    -0.106696876149    12.000000000000
           O         -2.069344153856     0.344823631387     0.098254123851    15.994914619560
           H         -3.086445153856    -2.500956368613     0.651162123851     1.007825032070
           H         -4.018464153856    -1.101149368613     0.096144123851     1.007825032070
           H         -3.289381153856    -2.223619368613    -1.063398876149     1.007825032070
           C         -0.921848153856     1.188173631387     0.098576123851    12.000000000000
           C          0.304353846144     0.294819631387     0.098421123851    12.000000000000
           H         -0.952983153856     1.824770631387    -0.775804876149     1.007825032070
           H         -0.953077153856     1.824376631387     0.973239123851     1.007825032070
           C          1.604404846144     1.101254631387     0.098567123851    12.000000000000
           H          0.267554846144    -0.351817368613    -0.773900876149     1.007825032070
           H          0.267538846144    -0.352194368613     0.970475123851     1.007825032070
           C          2.853520846144     0.218058631387     0.097778123851    12.000000000000
           H          1.627480846144     1.754355631387    -0.772071876149     1.007825032070
           H          1.627871846144     1.753388631387     0.969918123851     1.007825032070
           C          4.151982846144     1.023577631387     0.096568123851    12.000000000000
           H          2.831863846144    -0.434021368613    -0.772507876149     1.007825032070
           H          2.833240846144    -0.433630368613     0.968387123851     1.007825032070
           H          4.217324846144     1.661017631387    -0.780594876149     1.007825032070
           H          5.018933846144     0.370407631387     0.095846123851     1.007825032070
           H          4.218875846144     1.661139631387     0.973523123851     1.007825032070

  Charge       = 0
  Multiplicity = 1
  Basis Set: 6-31G*
  Basis Set:

    Orbital Energies (a.u.)
    -----------------------

    Doubly Occupied:

       1A    -20.608158     2A    -20.532875     3A    -11.383625
       4A    -11.282130     5A    -11.235702     6A    -11.206274
       7A    -11.201725     8A    -11.200656     9A    -11.187846
      10A     -1.480777    11A     -1.372759    12A     -1.081661
      13A     -1.039814    14A     -0.992845    15A     -0.926314
      16A     -0.853083    17A     -0.793693    18A     -0.769488
      19A     -0.702163    20A     -0.691722    21A     -0.663449
      22A     -0.629822    23A     -0.602451    24A     -0.587702
      25A     -0.574585    26A     -0.561241    27A     -0.556385
      28A     -0.534707    29A     -0.530228    30A     -0.524620
      31A     -0.499081    32A     -0.469670    33A     -0.459245
      34A     -0.441503    35A     -0.428806    36A     -0.372097

  @DF-RHF Final Energy:  -422.89604533015631

   => Energetics <=

    Nuclear Repulsion Energy =            474.0678821105634597
    One-Electron Energy =               -1515.9699573198904545
    Two-Electron Energy =                 619.0060298791694322
    DFT Exchange-Correlation Energy =       0.0000000000000000
    Empirical Dispersion Energy =           0.0000000000000000
    PCM Polarization Energy =               0.0000000000000000
    EFP Energy =                            0.0000000000000000
    Total Energy =                       -422.8960453301575626

  Mulliken Charges: (a.u.)
   Center  Symbol    Alpha    Beta     Spin     Total
       1     O     4.28695  4.28695  0.00000 -0.57390
       2     C     2.60674  2.60674  0.00000  0.78652
       3     C     3.28664  3.28664  0.00000 -0.57328
       4     O     4.31621  4.31621  0.00000 -0.63242
       5     H     0.39729  0.39729  0.00000  0.20541
       6     H     0.39878  0.39878  0.00000  0.20244
       7     H     0.39724  0.39724  0.00000  0.20552
       8     C     2.98743  2.98743  0.00000  0.02515
       9     C     3.18925  3.18925  0.00000 -0.37850
      10     H     0.41508  0.41508  0.00000  0.16984
      11     H     0.41287  0.41287  0.00000  0.17426
      12     C     3.14888  3.14888  0.00000 -0.29776
      13     H     0.37730  0.37730  0.00000  0.24541
      14     H     0.41590  0.41590  0.00000  0.16820
      15     C     3.14842  3.14842  0.00000 -0.29685
      16     H     0.43043  0.43043  0.00000  0.13914
      17     H     0.43373  0.43373  0.00000  0.13253
      18     C     3.23870  3.23870  0.00000 -0.47741
      19     H     0.42185  0.42185  0.00000  0.15630
      20     H     0.42324  0.42324  0.00000  0.15351
      21     H     0.42326  0.42326  0.00000  0.15348
      22     H     0.42064  0.42064  0.00000  0.15873
      23     H     0.42317  0.42317  0.00000  0.15365

   Total alpha = 36.00000, Total beta = 36.00000, Total charge =  0.00000
