                              Psi4 1.0.54 Driver

  ==> Input File <==

--------------------------------------------------------------------------
set {
	reference rhf
	basis cc-pvtz
}

set_num_threads( 4 )
memory 2 gb

molecule MOL {
0 1

H	 0.903919	 1.678090	 0.000090
O	 0.057669	 1.301365	 -0.158528
C	 0.004145	 -0.005141	 0.363049
C	 1.199168	 -0.827145	 -0.096690
C	 -1.316386	 -0.602081	 -0.083515
H	 0.012026	 0.043363	 1.450619
H	 1.216685	 -0.896776	 -1.178167
H	 2.129940	 -0.372354	 0.228035
H	 1.160783	 -1.829622	 0.314294
H	 -1.357882	 -0.655920	 -1.165207
H	 -2.140147	 0.011735	 0.257253
H	 -1.440790	 -1.601175	 0.317669

	symmetry c1
}
set optking {
	frozen_dihedral = ("
		1 2 3 4
	")
}

ee,wfn = optimize('scf', return_wfn=True)
oeprop( wfn, 'DIPOLE', 'QUADRUPOLE', 'MULLIKEN_CHARGES')
f=open( 'psi4out.xyz', 'w' )
f.write( "12  " )
f.write( str(ee) + "\n" )
f.write( MOL.save_string_xyz() )
f.close()
--------------------------------------------------------------------------

    Molecular point group: c1
  Charge       = 0
  Multiplicity = 1
  Basis Set: CC-PVTZ
  Basis Set:
  @DF-RHF Final Energy:  -193.19595861383806
    Total Energy =                       -193.1959586138380587
    Molecular point group: c1
  Basis Set: CC-PVTZ
  Basis Set:
  Basis Set: CC-PVTZ
  Basis Set:
  @DF-RHF Final Energy:  -193.19596390963554
    Total Energy =                       -193.1959639096355090
  Basis Set: CC-PVTZ
  Basis Set:
  Basis Set: CC-PVTZ
  Basis Set:
  @DF-RHF Final Energy:  -193.19596493111524
    Total Energy =                       -193.1959649311152418
  Basis Set: CC-PVTZ
  Basis Set:
  Charge       = 0
  Multiplicity = 1
  Basis Set: CC-PVTZ
  Basis Set:

    Orbital Energies (a.u.)
    -----------------------

    Doubly Occupied:

       1A    -20.544105     2A    -11.273988     3A    -11.212654
       4A    -11.205184     5A     -1.364710     6A     -1.043481
       7A     -0.941530     8A     -0.804808     9A     -0.698492
      10A     -0.631821    11A     -0.606798    12A     -0.546845
      13A     -0.533820    14A     -0.531354    15A     -0.512664
      16A     -0.469757    17A     -0.432620

  @DF-RHF Final Energy:  -193.19596496490627

   => Energetics <=

    Nuclear Repulsion Energy =            135.7620748583126158
    One-Electron Energy =                -531.2068168815530953
    Two-Electron Energy =                 202.2487770583341558
    DFT Exchange-Correlation Energy =       0.0000000000000000
    Empirical Dispersion Energy =           0.0000000000000000
    PCM Polarization Energy =               0.0000000000000000
    EFP Energy =                            0.0000000000000000
    Total Energy =                       -193.1959649649062953
    Molecular point group: c1
  Basis Set: CC-PVTZ
  Basis Set:

  -Total Gradient:
     Atom            X                  Y                   Z
    ------   -----------------  -----------------  -----------------
       1        0.000255274368    -0.000274288032    -0.000677101519
       2       -0.000208203184     0.000407748424     0.000977461847
       3       -0.000296872761    -0.000273631594    -0.000687837055
       4        0.000247982008     0.000147209454     0.000388817823
       5        0.000000032706    -0.000005101120    -0.000002451425
       6        0.000002958037    -0.000004883646     0.000000276050
       7       -0.000003486940    -0.000000480204     0.000000435065
       8        0.000003451919     0.000000282133    -0.000000474095
       9       -0.000000660384     0.000002712561     0.000000668506
      10       -0.000000661442     0.000000309451     0.000000049472
      11        0.000001786581    -0.000000279051    -0.000000556833
      12       -0.000001600909     0.000000401624     0.000000712162

  **** Optimization is complete! (in 4 steps) ****
    Final optimized geometry and variables:
    Molecular point group: c1

    Geometry (in Angstrom), charge = 0, multiplicity = 1:

    H            0.901053692378     1.681163586843     0.006164050507
    O            0.055982166310     1.302987706513    -0.154991801975
    C            0.003386509296    -0.004968740387     0.362691149794
    C            1.199409904597    -0.826073158549    -0.095209626873
    C           -1.317695925182    -0.601928987954    -0.081686279309
    H            0.012981788626     0.042659002880     1.450413986787
    H            1.220448878753    -0.896428826074    -1.176775330361
    H            2.129423425453    -0.372035840034     0.233447517855
    H            1.159944158447    -1.828411014513     0.315506831976
    H           -1.357245056775    -0.667216715527    -1.162804029720
    H           -2.139709037895     0.018827334168     0.250798755232
    H           -1.447286656819    -1.595779126065     0.330848453897

  Mulliken Charges: (a.u.)
   Center  Symbol    Alpha    Beta     Spin     Total
       1     H     0.39559  0.39559  0.00000  0.20882
       2     O     4.20476  4.20476  0.00000 -0.40952
       3     C     2.92089  2.92089  0.00000  0.15823
       4     C     3.14727  3.14727  0.00000 -0.29454
       5     C     3.14195  3.14195  0.00000 -0.28390
       6     H     0.46675  0.46675  0.00000  0.06649
       7     H     0.45064  0.45064  0.00000  0.09873
       8     H     0.45820  0.45820  0.00000  0.08359
       9     H     0.45540  0.45540  0.00000  0.08920
      10     H     0.45348  0.45348  0.00000  0.09303
      11     H     0.44611  0.44611  0.00000  0.10779
      12     H     0.45896  0.45896  0.00000  0.08208

   Total alpha = 17.00000, Total beta = 17.00000, Total charge = -0.00000

*** Psi4 exiting successfully. Buy a developer a beer!
