  ==> Input File <==

--------------------------------------------------------------------------
set {
	reference rhf
	basis cc-pvtz
}

set_num_threads( 4 )
memory 2 gb

molecule MOL {
0 1

O	 0.143953	 0.673640	 1.723016
C	 0.230851	 -0.185377	 0.912839
C	 1.389380	 -1.141536	 0.780812
O	 -0.695554	 -0.422406	 0.000602
C	 2.484241	 -0.910552	 1.809840
H	 1.770759	 -1.045976	 -0.229816
H	 0.986371	 -2.145780	 0.851623
H	 2.894664	 0.086705	 1.724700
H	 3.286363	 -1.624159	 1.665916
H	 2.103155	 -1.023087	 2.815989
C	 -1.852370	 0.402254	 0.000718
C	 -3.063338	 -0.501097	 -0.000437
H	 -1.831732	 1.039442	 -0.872158
H	 -1.832493	 1.038301	 0.874430
H	 -3.071944	 -1.133732	 -0.879113
H	 -3.966302	 0.097976	 -0.000483
H	 -3.072764	 -1.134834	 0.877435

	symmetry c1
}
set optking {
	frozen_dihedral = ("
		2 4 11 13
	")
}

ee = optimize('scf')
oeprop('DIPOLE', 'QUADRUPOLE', 'MULLIKEN_CHARGES')
f=open( 'psi4out.xyz', 'w' )
f.write( "17  " )
f.write( str(ee) + "\n" )
f.write( MOL.save_string_xyz() )
f.close()
--------------------------------------------------------------------------

    Molecular point group: c1
  Charge       = 0
  Multiplicity = 1
  Basis Set: CC-PVTZ
  Basis Set:
  @DF-RHF Final Energy:  -345.03784140100282
    Total Energy =                       -345.0378414010029928
    Molecular point group: c1
  Basis Set: CC-PVTZ
  Basis Set:
  Basis Set: CC-PVTZ
  Basis Set:
  @DF-RHF Final Energy:  -345.03817325515780
    Total Energy =                       -345.0381732551580853
  Basis Set: CC-PVTZ
  Basis Set:
  Basis Set: CC-PVTZ
  Basis Set:
  @DF-RHF Final Energy:  -345.03858976208016
    Total Energy =                       -345.0385897620801074
  Basis Set: CC-PVTZ
  Basis Set:
  Basis Set: CC-PVTZ
  Basis Set:
  @DF-RHF Final Energy:  -345.03835067036107
    Total Energy =                       -345.0383506703611829
  Basis Set: CC-PVTZ
  Basis Set:
  Basis Set: CC-PVTZ
  Basis Set:
  @DF-RHF Final Energy:  -345.03863490522235
    Total Energy =                       -345.0386349052221249
  Basis Set: CC-PVTZ
  Basis Set:
  Charge       = 0
  Multiplicity = 1
  Basis Set: CC-PVTZ
  Basis Set:

    Orbital Energies (a.u.)
    -----------------------

    Doubly Occupied:

       1A    -20.592341     2A    -20.532319     3A    -11.364939
       4A    -11.281210     5A    -11.235352     6A    -11.220060
       7A    -11.213391     8A     -1.467955     9A     -1.365431
      10A     -1.070365    11A     -1.031576    12A     -0.913809
      13A     -0.849966    14A     -0.770767    15A     -0.703053
      16A     -0.685737    17A     -0.664340    18A     -0.628315
      19A     -0.595434    20A     -0.570324    21A     -0.556378
      22A     -0.530827    23A     -0.520993    24A     -0.515828
      25A     -0.498095    26A     -0.495066    27A     -0.451601
      28A     -0.439334

  @DF-RHF Final Energy:  -345.03863549721683

   => Energetics <=

    Nuclear Repulsion Energy =            315.6349041866466791
    One-Electron Energy =               -1095.8174699781386607
    Two-Electron Energy =                 435.1439302942748100
    DFT Exchange-Correlation Energy =       0.0000000000000000
    Empirical Dispersion Energy =           0.0000000000000000
    PCM Polarization Energy =               0.0000000000000000
    EFP Energy =                            0.0000000000000000
    Total Energy =                       -345.0386354972171148
    Molecular point group: c1
  Basis Set: CC-PVTZ
  Basis Set:

  -Total Gradient:
     Atom            X                  Y                   Z
    ------   -----------------  -----------------  -----------------
       1       -0.000004704192    -0.000020494384    -0.000026195494
       2       -0.000228913955    -0.000287660855     0.000349906374
       3       -0.000009873868     0.000000268431    -0.000015052136
       4        0.000248713216     0.000387447756    -0.000567479101
       5        0.000001118192     0.000000201074     0.000004597322
       6       -0.000002554653     0.000000973242     0.000000539602
       7       -0.000002467167     0.000006980089     0.000004244152
       8        0.000000153295     0.000000157665    -0.000000124484
       9        0.000001816556    -0.000000343578     0.000001161624
      10       -0.000000283186     0.000000104652    -0.000000709311
      11        0.000254348452     0.000279859600     0.000541434921
      12       -0.000009369751     0.000015692283    -0.000020238903
      13       -0.000246372397    -0.000404054043    -0.000285085252
      14       -0.000003232022     0.000021840333     0.000012048755
      15       -0.000004827182    -0.000003527646     0.000000983337
      16       -0.000006703648    -0.000005554886     0.000000964895
      17        0.000013152311     0.000008110266    -0.000000996298

  **** Optimization is complete! (in 6 steps) ****
    Final optimized geometry and variables:
    Molecular point group: c1

    Geometry (in Angstrom), charge = 0, multiplicity = 1:

    O            0.392546033648     0.977196433669     0.996720308519
    C            0.447610189205     0.121558134863     0.180762429440
    C            1.591708410292    -0.849058099534     0.024336857261
    O           -0.492867585158    -0.110005842403    -0.720295872881
    C            2.708724880354    -0.636387019245     1.033251316812
    H            1.954985264884    -0.754074807370    -0.992944540843
    H            1.177136579552    -1.848253320823     0.098530674031
    H            3.130380882369     0.355815145084     0.944295024857
    H            3.498652819005    -1.359684099584     0.871145615664
    H            2.345572044509    -0.748339173068     2.046070033596
    C           -1.670747546836     0.686970783328    -0.744098851948
    C           -2.879726615744    -0.221927935294    -0.784398167194
    H           -1.621666550411     1.298506301597    -1.635350622617
    H           -1.686574677521     1.331718223038     0.117928799827
    H           -2.836946655890    -0.884900829541    -1.639382793940
    H           -3.783241310820     0.372606585903    -0.856680909092
    H           -2.938546585542    -0.823954874035     0.114055992768

  Mulliken Charges: (a.u.)
   Center  Symbol    Alpha    Beta     Spin     Total
       1     O     4.19811  4.19811  0.00000 -0.39622
       2     C     2.80117  2.80117  0.00000  0.39766
       3     C     3.09546  3.09546  0.00000 -0.19092
       4     O     4.15633  4.15633  0.00000 -0.31266
       5     C     3.14029  3.14029  0.00000 -0.28058
       6     H     0.44160  0.44160  0.00000  0.11680
       7     H     0.44211  0.44211  0.00000  0.11578
       8     H     0.44840  0.44840  0.00000  0.10319
       9     H     0.45065  0.45065  0.00000  0.09869
      10     H     0.44862  0.44862  0.00000  0.10276
      11     C     2.99085  2.99085  0.00000  0.01829
      12     C     3.13469  3.13469  0.00000 -0.26938
      13     H     0.45334  0.45334  0.00000  0.09332
      14     H     0.44110  0.44110  0.00000  0.11781
      15     H     0.45148  0.45148  0.00000  0.09704
      16     H     0.45404  0.45404  0.00000  0.09192
      17     H     0.45175  0.45175  0.00000  0.09651

   Total alpha = 28.00000, Total beta = 28.00000, Total charge = -0.00000
