  ==> Input File <==

--------------------------------------------------------------------------
set {
	reference rhf
	basis cc-pvtz
}

set_num_threads( 4 )
memory 2 gb

molecule MOL {
0 1

H	 -3.312652	 -0.124769	 1.556323
C	 -3.348779	 -0.199712	 0.460895
C	 -2.653809	 0.914422	 -0.273689
O	 -3.913630	 -1.102691	 -0.051825
C	 -1.216901	 1.136108	 0.207794
H	 -2.691133	 0.703402	 -1.334543
H	 -3.234757	 1.815873	 -0.091510
C	 -0.247837	 0.040196	 -0.230469
H	 -0.872882	 2.093195	 -0.169002
H	 -1.209325	 1.218376	 1.291938
C	 1.181757	 0.280428	 0.247371
H	 -0.259600	 -0.030819	 -1.314870
H	 -0.591284	 -0.923375	 0.136958
C	 2.151032	 -0.811012	 -0.202643
H	 1.515939	 1.247397	 -0.115449
H	 1.191514	 0.341223	 1.333422
C	 3.580021	 -0.656538	 0.320835
H	 2.170545	 -0.847575	 -1.289412
H	 1.766632	 -1.772905	 0.124928
C	 4.327657	 0.562694	 -0.213579
H	 4.138806	 -1.549270	 0.057813
H	 3.561991	 -0.620783	 1.406976
H	 4.355973	 0.557257	 -1.298551
H	 3.867136	 1.491650	 0.100501
H	 5.351524	 0.571613	 0.142204

	symmetry c1
}
set optking {
	frozen_dihedral = ("
		6 3 5 8
	")
}

ee = optimize('scf')
oeprop('DIPOLE', 'QUADRUPOLE', 'MULLIKEN_CHARGES')
f=open( 'psi4out.xyz', 'w' )
f.write( "25  " )
f.write( str(ee) + "\n" )
f.write( MOL.save_string_xyz() )
f.close()
--------------------------------------------------------------------------

    Molecular point group: c1
  Charge       = 0
  Multiplicity = 1
  Basis Set: CC-PVTZ
  Basis Set:
  @DF-RHF Final Energy:  -387.26030893470727
    Total Energy =                       -387.2603089347071545
    Molecular point group: c1
  Basis Set: CC-PVTZ
  Basis Set:
  Basis Set: CC-PVTZ
  Basis Set:
  @DF-RHF Final Energy:  -387.26031821425647
    Total Energy =                       -387.2603182142563583
  Basis Set: CC-PVTZ
  Basis Set:
  Basis Set: CC-PVTZ
  Basis Set:
  @DF-RHF Final Energy:  -387.26015810277914
    Total Energy =                       -387.2601581027790871
  Basis Set: CC-PVTZ
  Basis Set:
  Basis Set: CC-PVTZ
  Basis Set:
  @DF-RHF Final Energy:  -387.26032460256681
    Total Energy =                       -387.2603246025668113
  Basis Set: CC-PVTZ
  Basis Set:
  Charge       = 0
  Multiplicity = 1
  Basis Set: CC-PVTZ
  Basis Set:

    Orbital Energies (a.u.)
    -----------------------

    Doubly Occupied:

       1A    -20.551529     2A    -11.320950     3A    -11.233797
       4A    -11.232840     5A    -11.221510     6A    -11.217568
       7A    -11.216179     8A    -11.214945     9A    -11.208802
      10A     -1.406514    11A     -1.105206    12A     -1.070922
      13A     -1.014597    14A     -0.943585    15A     -0.875800
      16A     -0.819836    17A     -0.789865    18A     -0.781649
      19A     -0.668017    20A     -0.664049    21A     -0.635066
      22A     -0.627088    23A     -0.603349    24A     -0.594694
      25A     -0.577276    26A     -0.550927    27A     -0.535356
      28A     -0.528438    29A     -0.509725    30A     -0.497466
      31A     -0.491382    32A     -0.480211    33A     -0.465130
      34A     -0.459278    35A     -0.442653    36A     -0.411900

  @DF-RHF Final Energy:  -387.26032492198215

   => Energetics <=

    Nuclear Repulsion Energy =            439.4457525502992894
    One-Electron Energy =               -1395.4759529918237604
    Two-Electron Energy =                 568.7698755195422109
    DFT Exchange-Correlation Energy =       0.0000000000000000
    Empirical Dispersion Energy =           0.0000000000000000
    PCM Polarization Energy =               0.0000000000000000
    EFP Energy =                            0.0000000000000000
    Total Energy =                       -387.2603249219822601
    Molecular point group: c1
  Basis Set: CC-PVTZ
  Basis Set:

  -Total Gradient:
     Atom            X                  Y                   Z
    ------   -----------------  -----------------  -----------------
       1       -0.000035155883     0.000002348629     0.000016045951
       2        0.000080620278    -0.000063917028     0.000050788796
       3       -0.000021114024     0.001422509405    -0.000502434974
       4       -0.000043406946     0.000035782150    -0.000013185340
       5       -0.000224200444    -0.000766339187     0.000921879909
       6        0.000101480948    -0.000989288745     0.000190264378
       7       -0.000000400339    -0.000009504961    -0.000018404306
       8        0.000144587541     0.000371591810    -0.000630397912
       9       -0.000001984563     0.000007904875     0.000003543478
      10       -0.000010221488    -0.000003885589    -0.000005874194
      11       -0.000000822931    -0.000002863192    -0.000008666561
      12       -0.000007953488     0.000004922469    -0.000002123326
      13        0.000019649709    -0.000009893770    -0.000008047598
      14       -0.000001686289     0.000004508133     0.000001525098
      15       -0.000017740965    -0.000014869380    -0.000009533919
      16        0.000005995452     0.000009815166     0.000000289576
      17       -0.000008500154     0.000006876209     0.000025100208
      18       -0.000001358118     0.000014537685     0.000002084075
      19        0.000001753515    -0.000010573041    -0.000009584618
      20        0.000006831226    -0.000002171854    -0.000004483695
      21       -0.000003252387    -0.000002180513     0.000005126019
      22        0.000001637261     0.000005475070     0.000002565766
      23       -0.000000372912     0.000003604756    -0.000004883497
      24        0.000016119636    -0.000010261569     0.000001578040
      25       -0.000000504635    -0.000004127528    -0.000003171353

  **** Optimization is complete! (in 5 steps) ****
    Final optimized geometry and variables:
    Molecular point group: c1

    Geometry (in Angstrom), charge = 0, multiplicity = 1:

    H           -3.293284959866    -0.140529171914     1.534468840764
    C           -3.326725236187    -0.219836936959     0.439261472652
    C           -2.648653224346     0.902998201884    -0.299130649353
    O           -3.875216630981    -1.134226174819    -0.070980976624
    C           -1.209767505609     1.132585702828     0.173738076255
    H           -2.690064413766     0.685004140476    -1.358382280896
    H           -3.237382593435     1.798176738147    -0.113154792557
    C           -0.242004004291     0.035321934475    -0.263950658559
    H           -0.867739757921     2.086201739010    -0.213658204616
    H           -1.196069098286     1.225379558280     1.256957125651
    C            1.187586002260     0.272538414162     0.215231111405
    H           -0.253352364774    -0.033456565531    -1.348405259012
    H           -0.587897736696    -0.928105157499     0.101717735447
    C            2.155000214845    -0.820430859056    -0.235072124092
    H            1.523969876635     1.239257455489    -0.146326610294
    H            1.196679101137     0.332117566015     1.301338572122
    C            3.582640606463    -0.672138090651     0.293757816362
    H            2.178167594473    -0.853473155057    -1.321890797353
    H            1.766482171570    -1.782174046428     0.088046501946
    C            4.336456610773     0.545569688695    -0.235436788424
    H            4.139163495814    -1.566298320033     0.030772796526
    H            3.560872095224    -0.638658364595     1.379893241623
    H            4.367304808087     0.543065779218    -1.320356117534
    H            3.879003224780     1.475514209425     0.080194864172
    H            5.359515629478     0.549299533785     0.122761099591

  Mulliken Charges: (a.u.)
   Center  Symbol    Alpha    Beta     Spin     Total
       1     H     0.46493  0.46493  0.00000  0.07014
       2     C     2.90467  2.90467  0.00000  0.19065
       3     C     3.08870  3.08870  0.00000 -0.17740
       4     O     4.16590  4.16590  0.00000 -0.33179
       5     C     3.11601  3.11601  0.00000 -0.23202
       6     H     0.44338  0.44338  0.00000  0.11324
       7     H     0.44008  0.44008  0.00000  0.11983
       8     C     3.08911  3.08911  0.00000 -0.17821
       9     H     0.44327  0.44327  0.00000  0.11346
      10     H     0.45015  0.45015  0.00000  0.09971
      11     C     3.09288  3.09288  0.00000 -0.18576
      12     H     0.45018  0.45018  0.00000  0.09963
      13     H     0.44783  0.44783  0.00000  0.10434
      14     C     3.09567  3.09567  0.00000 -0.19134
      15     H     0.45165  0.45165  0.00000  0.09670
      16     H     0.45423  0.45423  0.00000  0.09154
      17     C     3.09071  3.09071  0.00000 -0.18142
      18     H     0.45304  0.45304  0.00000  0.09392
      19     H     0.44777  0.44777  0.00000  0.10447
      20     C     3.15267  3.15267  0.00000 -0.30534
      21     H     0.44765  0.44765  0.00000  0.10469
      22     H     0.45468  0.45468  0.00000  0.09063
      23     H     0.45457  0.45457  0.00000  0.09086
      24     H     0.45438  0.45438  0.00000  0.09124
      25     H     0.44589  0.44589  0.00000  0.10822

   Total alpha = 36.00000, Total beta = 36.00000, Total charge = -0.00000
