                              Psi4 1.0.54 Driver

  ==> Input File <==

--------------------------------------------------------------------------
set {
	reference rhf
	basis cc-pvtz
}

set_num_threads( 4 )
memory 2 gb

molecule MOL {
0 1

H	 1.474109	 -1.915925	 -0.468919
C	 0.835998	 -1.505963	 0.305615
N	 0.526300	 -0.128137	 0.000000
H	 1.377974	 -1.561723	 1.241133
H	 -0.044830	 -2.146941	 0.382169
C	 -0.247113	 0.037112	 -1.209233
H	 0.049933	 0.291803	 0.768365
H	 -0.996493	 -0.743733	 -1.271440
H	 0.397975	 -0.057351	 -2.073512
H	 -0.763794	 0.997171	 -1.271673

	symmetry c1
}
set optking {
	frozen_dihedral = ("
		2 3 6 8
	")
}

ee,wfn = optimize('scf', return_wfn=True)
oeprop( wfn, 'DIPOLE', 'QUADRUPOLE', 'MULLIKEN_CHARGES')
f=open( 'psi4out.xyz', 'w' )
f.write( "10  " )
f.write( str(ee) + "\n" )
f.write( MOL.save_string_xyz() )
f.close()
--------------------------------------------------------------------------

    Molecular point group: c1
  Charge       = 0
  Multiplicity = 1
  Basis Set: CC-PVTZ
  Basis Set:
  @DF-RHF Final Energy:  -134.29121440817701
    Total Energy =                       -134.2912144081769554
    Molecular point group: c1
  Basis Set: CC-PVTZ
  Basis Set:
  Basis Set: CC-PVTZ
  Basis Set:
  @DF-RHF Final Energy:  -134.29212282167688
    Total Energy =                       -134.2921228216769407
  Basis Set: CC-PVTZ
  Basis Set:
  Basis Set: CC-PVTZ
  Basis Set:
  @DF-RHF Final Energy:  -134.29226675357990
    Total Energy =                       -134.2922667535798666
  Basis Set: CC-PVTZ
  Basis Set:
  Charge       = 0
  Multiplicity = 1
  Basis Set: CC-PVTZ
  Basis Set:

    Orbital Energies (a.u.)
    -----------------------

    Doubly Occupied:

       1A    -15.532755     2A    -11.234407     3A    -11.234311
       4A     -1.200884     5A     -0.948355     6A     -0.854678
       7A     -0.662049     8A     -0.614428     9A     -0.592472
      10A     -0.539590    11A     -0.509449    12A     -0.506947
      13A     -0.365018

  @DF-RHF Final Energy:  -134.29226823464353

   => Energetics <=

    Nuclear Repulsion Energy =             84.7222956915320680
    One-Electron Energy =                -348.4384419192795121
    Two-Electron Energy =                 129.4238779931040142
    DFT Exchange-Correlation Energy =       0.0000000000000000
    Empirical Dispersion Energy =           0.0000000000000000
    PCM Polarization Energy =               0.0000000000000000
    EFP Energy =                            0.0000000000000000
    Total Energy =                       -134.2922682346434442
    Molecular point group: c1
  Basis Set: CC-PVTZ
  Basis Set:

  -Total Gradient:
     Atom            X                  Y                   Z
    ------   -----------------  -----------------  -----------------
       1        0.000025607151    -0.000016918303    -0.000003118340
       2       -0.001929880964    -0.000103455687     0.001016463495
       3        0.003097297764    -0.000270912721    -0.001998516548
       4       -0.000028766137     0.000066438624    -0.000011718883
       5       -0.000007000542    -0.000016882510     0.000019497477
       6       -0.003060149633     0.001984401754     0.002411792822
       7        0.000034234291     0.000003562141    -0.000021720033
       8        0.001881733519    -0.001651472092    -0.001432672461
       9       -0.000014070937     0.000012426883    -0.000020851905
      10        0.000000995487    -0.000007188091     0.000040844374

  **** Optimization is complete! (in 4 steps) ****
    Final optimized geometry and variables:
    Molecular point group: c1

    Geometry (in Angstrom), charge = 0, multiplicity = 1:

    H            1.126001119812    -1.365749039123    -0.184302999046
    C            0.478850410184    -0.972858032597     0.592010917711
    N            0.166161157971     0.410292548202     0.313562124691
    H            1.012384107312    -1.046415174328     1.531116434596
    H           -0.401437895384    -1.616282344499     0.645335597292
    C           -0.592872105497     0.599860465762    -0.903836183517
    H           -0.333854237284     0.797219379682     1.083916782184
    H           -1.362790293869    -0.158551738272    -1.055332401967
    H            0.068678554052     0.554445327187    -1.762642280546
    H           -1.060045892160     1.575803339889    -0.901983104656

  Mulliken Charges: (a.u.)
   Center  Symbol    Alpha    Beta     Spin     Total
       1     H     0.45707  0.45707  0.00000  0.08587
       2     C     3.08227  3.08227  0.00000 -0.16454
       3     N     3.62774  3.62774  0.00000 -0.25548
       4     H     0.45252  0.45252  0.00000  0.09495
       5     H     0.47386  0.47386  0.00000  0.05228
       6     C     3.07859  3.07859  0.00000 -0.15718
       7     H     0.44111  0.44111  0.00000  0.11777
       8     H     0.47644  0.47644  0.00000  0.04713
       9     H     0.45620  0.45620  0.00000  0.08759
      10     H     0.45419  0.45419  0.00000  0.09161

   Total alpha = 13.00000, Total beta = 13.00000, Total charge =  0.00000

*** Psi4 exiting successfully. Buy a developer a beer!
