  ==> Input File <==

--------------------------------------------------------------------------
set {
	reference rhf
	basis 6-31G*
}

set_num_threads( 1 )
memory 2 gb

molecule MOL {
0 1

O	 3.225979	 0.970355	 -0.599647
C	 2.701189	 0.057885	 -0.047330
C	 1.245376	 -0.013843	 0.345420
O	 3.347903	 -1.046386	 0.304773
C	 0.455112	 1.231400	 -0.050772
H	 0.838542	 -0.913825	 -0.103701
H	 1.208210	 -0.175333	 1.419774
C	 -0.998893	 1.219485	 0.433193
H	 0.482531	 1.345121	 -1.130325
H	 0.957290	 2.103070	 0.354729
C	 -1.797369	 2.485364	 0.109005
H	 -0.993770	 1.078687	 1.511559
H	 -1.511908	 0.352912	 0.018611
C	 -3.205473	 2.470140	 0.707344
H	 -1.257490	 3.354225	 0.482406
H	 -1.875074	 2.613732	 -0.968239
C	 -4.014469	 3.727927	 0.385425
H	 -3.136052	 2.355290	 1.787726
H	 -3.742232	 1.595700	 0.342729
C	 -5.418027	 3.706475	 0.989795
H	 -3.479044	 4.602772	 0.748204
H	 -4.088661	 3.842061	 -0.694042
H	 -5.966350	 4.610716	 0.744239
H	 -5.377436	 3.628165	 2.072577
H	 -5.991445	 2.861226	 0.619634
C	 4.728119	 -1.109107	 -0.004993
H	 4.882018	 -1.033965	 -1.071845
H	 5.068212	 -2.067527	 0.355250
H	 5.265056	 -0.311663	 0.488280

	symmetry c1
}
set optking {
	frozen_dihedral = ("
		21 17 14 11,
		17 14 11 15,
		15 11 8 5,
		6 3 5 9,
		2 4 26 27,
		1 2 4 26,
		6 3 2 1
	")
}

ee = energy('scf')
oeprop('DIPOLE', 'QUADRUPOLE', 'MULLIKEN_CHARGES')
f=open( 'psi4out.xyz', 'w' )
f.write( "29  " )
f.write( str(ee) + "\n" )
f.write( MOL.save_string_xyz() )
f.close()
--------------------------------------------------------------------------

    Molecular point group: c1

    Geometry (in Angstrom), charge = 0, multiplicity = 1:

       Center              X                  Y                   Z               Mass
    ------------   -----------------  -----------------  -----------------  -----------------
           O          3.158747312400    -0.257537503228    -0.831864589065    15.994914619560
           C          2.633957312400    -1.170007503228    -0.279547589065    12.000000000000
           C          1.178144312400    -1.241735503228     0.113202410935    12.000000000000
           O          3.280671312400    -2.274278503228     0.072555410935    15.994914619560
           C          0.387880312400     0.003507496772    -0.282989589065    12.000000000000
           H          0.771310312400    -2.141717503228    -0.335918589065     1.007825032070
           H          1.140978312400    -1.403225503228     1.187556410935     1.007825032070
           C         -1.066124687600    -0.008407503228     0.200975410935    12.000000000000
           H          0.415299312400     0.117228496772    -1.362542589065     1.007825032070
           H          0.890058312400     0.875177496772     0.122511410935     1.007825032070
           C         -1.864600687600     1.257471496772    -0.123212589065    12.000000000000
           H         -1.061001687600    -0.149205503228     1.279341410935     1.007825032070
           H         -1.579139687600    -0.874980503228    -0.213606589065     1.007825032070
           C         -3.272704687600     1.242247496772     0.475126410935    12.000000000000
           H         -1.324721687600     2.126332496772     0.250188410935     1.007825032070
           H         -1.942305687600     1.385839496772    -1.200456589065     1.007825032070
           C         -4.081700687600     2.500034496772     0.153207410935    12.000000000000
           H         -3.203283687600     1.127397496772     1.555508410935     1.007825032070
           H         -3.809463687600     0.367807496772     0.110511410935     1.007825032070
           C         -5.485258687600     2.478582496772     0.757577410935    12.000000000000
           H         -3.546275687600     3.374879496772     0.515986410935     1.007825032070
           H         -4.155892687600     2.614168496772    -0.926259589065     1.007825032070
           H         -6.033581687600     3.382823496772     0.512021410935     1.007825032070
           H         -5.444667687600     2.400272496772     1.840359410935     1.007825032070
           H         -6.058676687600     1.633333496772     0.387416410935     1.007825032070
           C          4.660887312400    -2.336999503228    -0.237210589065    12.000000000000
           H          4.814786312400    -2.261857503228    -1.304062589065     1.007825032070
           H          5.000980312400    -3.295419503228     0.123032410935     1.007825032070
           H          5.197824312400    -1.539555503228     0.256062410935     1.007825032070

  Charge       = 0
  Multiplicity = 1
  Basis Set: 6-31G*
  Basis Set:

    Orbital Energies (a.u.)
    -----------------------

    Doubly Occupied:

       1A    -20.603692     2A    -20.545485     3A    -11.372490
       4A    -11.280875     5A    -11.235964     6A    -11.219069
       7A    -11.217657     8A    -11.214809     9A    -11.214670
      10A    -11.213373    11A    -11.208212    12A     -1.469388
      13A     -1.362805    14A     -1.096181    15A     -1.067254
      16A     -1.020329    17A     -0.977677    18A     -0.927239
      19A     -0.856288    20A     -0.800741    21A     -0.789874
      22A     -0.766679    23A     -0.696601    24A     -0.683912
      25A     -0.671545    26A     -0.657477    27A     -0.630356
      28A     -0.597524    29A     -0.591578    30A     -0.584129
      31A     -0.566054    32A     -0.550627    33A     -0.530271
      34A     -0.521230    35A     -0.518818    36A     -0.514911
      37A     -0.490203    38A     -0.478897    39A     -0.468493
      40A     -0.461626    41A     -0.460128    42A     -0.455465
      43A     -0.447280    44A     -0.432546

  @DF-RHF Final Energy:  -501.04515520545658

   => Energetics <=

    Nuclear Repulsion Energy =            601.1995943966916229
    One-Electron Energy =               -1873.5487223862853625
    Two-Electron Energy =                 771.3039727841346576
    DFT Exchange-Correlation Energy =       0.0000000000000000
    Empirical Dispersion Energy =           0.0000000000000000
    PCM Polarization Energy =               0.0000000000000000
    EFP Energy =                            0.0000000000000000
    Total Energy =                       -501.0451552054591957

  Mulliken Charges: (a.u.)
   Center  Symbol    Alpha    Beta     Spin     Total
       1     O     4.28583  4.28583  0.00000 -0.57166
       2     C     2.60484  2.60484  0.00000  0.79032
       3     C     3.20815  3.20815  0.00000 -0.41630
       4     O     4.30764  4.30764  0.00000 -0.61528
       5     C     3.15245  3.15245  0.00000 -0.30490
       6     H     0.40022  0.40022  0.00000  0.19956
       7     H     0.40078  0.40078  0.00000  0.19844
       8     C     3.15385  3.15385  0.00000 -0.30769
       9     H     0.41315  0.41315  0.00000  0.17370
      10     H     0.41111  0.41111  0.00000  0.17778
      11     C     3.15178  3.15178  0.00000 -0.30356
      12     H     0.42473  0.42473  0.00000  0.15054
      13     H     0.42386  0.42386  0.00000  0.15229
      14     C     3.15108  3.15108  0.00000 -0.30215
      15     H     0.42211  0.42211  0.00000  0.15577
      16     H     0.42193  0.42193  0.00000  0.15614
      17     C     3.15155  3.15155  0.00000 -0.30309
      18     H     0.42409  0.42409  0.00000  0.15181
      19     H     0.42414  0.42414  0.00000  0.15171
      20     C     3.23929  3.23929  0.00000 -0.47857
      21     H     0.42262  0.42262  0.00000  0.15476
      22     H     0.42280  0.42280  0.00000  0.15440
      23     H     0.41920  0.41920  0.00000  0.16161
      24     H     0.42191  0.42191  0.00000  0.15619
      25     H     0.42194  0.42194  0.00000  0.15612
      26     C     3.09242  3.09242  0.00000 -0.18485
      27     H     0.40903  0.40903  0.00000  0.18195
      28     H     0.40842  0.40842  0.00000  0.18315
      29     H     0.40909  0.40909  0.00000  0.18183

   Total alpha = 44.00000, Total beta = 44.00000, Total charge =  0.00000
