                              Psi4 1.0.54 Driver

  ==> Input File <==

--------------------------------------------------------------------------
set {
	reference rhf
	basis cc-pvtz
}

set_num_threads( 4 )
memory 2 gb

molecule MOL {
0 1

H	 -1.988110	 -0.474702	 0.945985
O	 -2.041679	 -0.058866	 0.103463
C	 -0.959304	 0.780994	 -0.094939
C	 0.354905	 0.037902	 -0.006215
H	 -0.985899	 1.279578	 -1.057596
H	 -0.969809	 1.529522	 0.682889
F	 0.412060	 -0.931028	 -0.902708
F	 1.359641	 0.856111	 -0.239961
F	 0.545380	 -0.506387	 1.171682

	symmetry c1
}
set optking {
	frozen_dihedral = ("
		1 2 3 5
	")
}

ee,wfn = optimize('scf', return_wfn=True)
oeprop( wfn, 'DIPOLE', 'QUADRUPOLE', 'MULLIKEN_CHARGES')
f=open( 'psi4out.xyz', 'w' )
f.write( "9  " )
f.write( str(ee) + "\n" )
f.write( MOL.save_string_xyz() )
f.close()
--------------------------------------------------------------------------

    Molecular point group: c1
  Charge       = 0
  Multiplicity = 1
  Basis Set: CC-PVTZ
  Basis Set:
  @DF-RHF Final Energy:  -450.84510281915811
    Total Energy =                       -450.8451028191579439
    Molecular point group: c1
  Basis Set: CC-PVTZ
  Basis Set:
  Basis Set: CC-PVTZ
  Basis Set:
  @DF-RHF Final Energy:  -450.83897979258404
    Total Energy =                       -450.8389797925838138
  Basis Set: CC-PVTZ
  Basis Set:
  Basis Set: CC-PVTZ
  Basis Set:
  @DF-RHF Final Energy:  -450.84695672719727
    Total Energy =                       -450.8469567271972096
  Basis Set: CC-PVTZ
  Basis Set:
  Basis Set: CC-PVTZ
  Basis Set:
  @DF-RHF Final Energy:  -450.84718735616627
    Total Energy =                       -450.8471873561661596
  Basis Set: CC-PVTZ
  Basis Set:
  Basis Set: CC-PVTZ
  Basis Set:
  @DF-RHF Final Energy:  -450.84720101643160
    Total Energy =                       -450.8472010164319954
  Basis Set: CC-PVTZ
  Basis Set:
  Charge       = 0
  Multiplicity = 1
  Basis Set: CC-PVTZ
  Basis Set:

    Orbital Energies (a.u.)
    -----------------------

    Doubly Occupied:

       1A    -26.341079     2A    -26.340427     3A    -26.336515
       4A    -20.583567     5A    -11.494669     6A    -11.309986
       7A     -1.748883     8A     -1.646166     9A     -1.643779
      10A     -1.407170    11A     -1.050907    12A     -0.930560
      13A     -0.838919    14A     -0.837238    15A     -0.813456
      16A     -0.731008    17A     -0.719909    18A     -0.702833
      19A     -0.672724    20A     -0.667028    21A     -0.650355
      22A     -0.633090    23A     -0.621820    24A     -0.533491
      25A     -0.484588

  @DF-RHF Final Energy:  -450.84720311323701

   => Energetics <=

    Nuclear Repulsion Energy =            277.8166371357737034
    One-Electron Energy =               -1177.8473460512923339
    Two-Electron Energy =                 449.1835058022816725
    DFT Exchange-Correlation Energy =       0.0000000000000000
    Empirical Dispersion Energy =           0.0000000000000000
    PCM Polarization Energy =               0.0000000000000000
    EFP Energy =                            0.0000000000000000
    Total Energy =                       -450.8472031132369580
    Molecular point group: c1
  Basis Set: CC-PVTZ
  Basis Set:

  -Total Gradient:
     Atom            X                  Y                   Z
    ------   -----------------  -----------------  -----------------
       1        0.000373622168    -0.000466540225    -0.000468141152
       2       -0.000303056466     0.000532927182     0.000489066778
       3       -0.000279206708     0.000355312317     0.000382656505
       4        0.000208106502    -0.000189870752     0.000233965533
       5        0.000323750785    -0.000416437751    -0.000409663277
       6       -0.000019985690    -0.000039395278     0.000000781188
       7       -0.000063341571    -0.000006155249    -0.000036258192
       8       -0.000059802885     0.000071191584    -0.000022115205
       9       -0.000180086130     0.000158968169    -0.000170292179

  **** Optimization is complete! (in 6 steps) ****
    Final optimized geometry and variables:
    Molecular point group: c1

    Geometry (in Angstrom), charge = 0, multiplicity = 1:

    H           -1.811624117969    -0.754763131718     1.129667005024
    O           -1.997881337130    -0.197288138452     0.394435666727
    C           -0.983163676439     0.726794704758     0.214276021005
    C            0.341788544174     0.061193715638    -0.083069713773
    H           -1.238884168137     1.341255921532    -0.635673144161
    H           -0.839357365799     1.365297166787     1.078976408699
    F            0.314584822898    -0.637951336305    -1.192646861394
    F            1.292537166372     0.964090513423    -0.197849708286
    F            0.686373230102    -0.761297689804     0.892101036134

  Mulliken Charges: (a.u.)
   Center  Symbol    Alpha    Beta     Spin     Total
       1     H     0.38656  0.38656  0.00000  0.22688
       2     O     4.19264  4.19264  0.00000 -0.38529
       3     C     2.98826  2.98826  0.00000  0.02348
       4     C     2.68507  2.68507  0.00000  0.62986
       5     H     0.44811  0.44811  0.00000  0.10377
       6     H     0.46249  0.46249  0.00000  0.07502
       7     F     4.60749  4.60749  0.00000 -0.21498
       8     F     4.61162  4.61162  0.00000 -0.22325
       9     F     4.61775  4.61775  0.00000 -0.23549

   Total alpha = 25.00000, Total beta = 25.00000, Total charge =  0.00000

*** Psi4 exiting successfully. Buy a developer a beer!
