                              Psi4 1.0.54 Driver

  ==> Input File <==

--------------------------------------------------------------------------
set {
	reference rhf
	basis cc-pvtz
}

set_num_threads( 4 )
memory 2 gb

molecule MOL {
0 1

H	 -4.024094	 -0.454727	 0.000004
C	 -2.962215	 -0.297920	 0.000004
C	 -2.454736	 0.988978	 0.000025
C	 -2.105837	 -1.382632	 -0.000016
H	 -3.120052	 1.830438	 0.000041
C	 -1.090106	 1.189676	 0.000026
H	 -2.500390	 -2.380229	 -0.000033
C	 -0.739175	 -1.183302	 -0.000016
H	 -0.680214	 2.179144	 0.000042
C	 -0.227341	 0.104540	 0.000006
H	 -0.073209	 -2.021168	 -0.000032
C	 1.238974	 0.374429	 0.000004
O	 1.580219	 1.382763	 -0.780254
O	 2.024097	 -0.248322	 0.633205
C	 2.953662	 1.713089	 -0.844290
H	 3.323256	 1.990377	 0.131357
H	 3.025620	 2.547937	 -1.522110
H	 3.527894	 0.878230	 -1.216672

	symmetry c1
}
set optking {
	frozen_dihedral = ("
		13 12 10 6
	")
}

ee,wfn = optimize('scf', return_wfn=True)
oeprop( wfn, 'DIPOLE', 'QUADRUPOLE', 'MULLIKEN_CHARGES')
f=open( 'psi4out.xyz', 'w' )
f.write( "18  " )
f.write( str(ee) + "\n" )
f.write( MOL.save_string_xyz() )
f.close()
--------------------------------------------------------------------------

    Molecular point group: c1
  Charge       = 0
  Multiplicity = 1
  Basis Set: CC-PVTZ
  Basis Set:
  @DF-RHF Final Energy:  -457.50531406824706
    Total Energy =                       -457.5053140682468893
    Molecular point group: c1
  Basis Set: CC-PVTZ
  Basis Set:
  Basis Set: CC-PVTZ
  Basis Set:
  @DF-RHF Final Energy:  -457.50584322193845
    Total Energy =                       -457.5058432219377664
  Basis Set: CC-PVTZ
  Basis Set:
  Basis Set: CC-PVTZ
  Basis Set:
  @DF-RHF Final Energy:  -457.50460803738025
    Total Energy =                       -457.5046080373806490
  Basis Set: CC-PVTZ
  Basis Set:
  Basis Set: CC-PVTZ
  Basis Set:
  @DF-RHF Final Energy:  -457.50662274784202
    Total Energy =                       -457.5066227478428118
  Basis Set: CC-PVTZ
  Basis Set:
  Basis Set: CC-PVTZ
  Basis Set:
  @DF-RHF Final Energy:  -457.50665183944164
    Total Energy =                       -457.5066518394417017
  Basis Set: CC-PVTZ
  Basis Set:
  Charge       = 0
  Multiplicity = 1
  Basis Set: CC-PVTZ
  Basis Set:

    Orbital Energies (a.u.)
    -----------------------

    Doubly Occupied:

       1A    -20.602067     2A    -20.536744     3A    -11.372420
       4A    -11.281582     5A    -11.246701     6A    -11.243006
       7A    -11.241697     8A    -11.240793     9A    -11.236930
      10A    -11.236233    11A     -1.477736    12A     -1.369949
      13A     -1.171401    14A     -1.052302    15A     -1.029513
      16A     -0.981216    17A     -0.863117    18A     -0.840260
      19A     -0.782172    20A     -0.743514    21A     -0.688134
      22A     -0.682347    23A     -0.679095    24A     -0.633300
      25A     -0.632489    26A     -0.600772    27A     -0.591132
      28A     -0.559460    29A     -0.535120    30A     -0.520177
      31A     -0.510901    32A     -0.504248    33A     -0.463712
      34A     -0.450108    35A     -0.349244    36A     -0.346814

  @DF-RHF Final Energy:  -457.50665376447353

   => Energetics <=

    Nuclear Repulsion Energy =            493.5993579873955923
    One-Electron Energy =               -1601.6192161323720029
    Two-Electron Energy =                 650.5132043805029980
    DFT Exchange-Correlation Energy =       0.0000000000000000
    Empirical Dispersion Energy =           0.0000000000000000
    PCM Polarization Energy =               0.0000000000000000
    EFP Energy =                            0.0000000000000000
    Total Energy =                       -457.5066537644732989
    Molecular point group: c1
  Basis Set: CC-PVTZ
  Basis Set:

  -Total Gradient:
     Atom            X                  Y                   Z
    ------   -----------------  -----------------  -----------------
       1        0.000019637047     0.000001101819     0.000017542010
       2        0.000001537080    -0.000165486854    -0.000052096261
       3        0.000164018730     0.000080404107     0.000031382210
       4       -0.000162516581     0.000060212115    -0.000022484321
       5        0.000005757036    -0.000012906039    -0.000009115622
       6       -0.000224030306    -0.000339452261     0.004483690495
       7        0.000008198683     0.000007406927     0.000005901357
       8        0.000114964420     0.000143526897     0.000048933013
       9        0.000011365487    -0.000016425533     0.000010592255
      10        0.000158964703    -0.000467852101    -0.007844569514
      11       -0.000013157810     0.000001272090    -0.000007330693
      12       -0.000545895415     0.003307213073     0.006813959136
      13        0.000219864208    -0.002678408502    -0.003455460593
      14        0.000080224126     0.000036163111     0.000002172302
      15        0.000203758014     0.000057707039    -0.000016011225
      16       -0.000028853680    -0.000002848376    -0.000028694083
      17        0.000007383789    -0.000020010892     0.000018844565
      18       -0.000021219528     0.000008383381     0.000002744971

  **** Optimization is complete! (in 6 steps) ****
    Final optimized geometry and variables:
    Molecular point group: c1

    Geometry (in Angstrom), charge = 0, multiplicity = 1:

    H           -3.999147863573    -0.602868463871     0.190710956137
    C           -2.934310876044    -0.473583289193     0.154290374140
    C           -2.392342303963     0.797381885628     0.190990529992
    C           -2.106940645990    -1.579070576652     0.078361409924
    H           -3.033535174859     1.654509247890     0.262984124313
    C           -1.022706732854     0.965502431116     0.134028655265
    H           -2.527282019288    -2.565866804110     0.056594298425
    C           -0.737072961761    -1.413638361451     0.046153721022
    H           -0.598895883577     1.949760037449     0.150619604487
    C           -0.193618436655    -0.140106568977     0.049398784111
    H           -0.084412536030    -2.263306634989     0.018702486951
    C            1.291261186858     0.001757282879     0.077451608872
    O            1.715738162489     1.041408960771    -0.615566825643
    O            2.016615555315    -0.756403719384     0.626877414707
    C            3.110522856115     1.276382904141    -0.638469441070
    H            3.486651970348     1.433961900413     0.361352473572
    H            3.251765859149     2.162683469103    -1.235037328664
    H            3.627710232046     0.439702087154    -1.083310657583

  Mulliken Charges: (a.u.)
   Center  Symbol    Alpha    Beta     Spin     Total
       1     H     0.42081  0.42081  0.00000  0.15837
       2     C     3.07497  3.07497  0.00000 -0.14994
       3     C     3.07164  3.07164  0.00000 -0.14327
       4     C     3.06946  3.06946  0.00000 -0.13893
       5     H     0.42167  0.42167  0.00000  0.15665
       6     C     3.08900  3.08900  0.00000 -0.17800
       7     H     0.42091  0.42091  0.00000  0.15819
       8     C     3.08566  3.08566  0.00000 -0.17131
       9     H     0.41673  0.41673  0.00000  0.16654
      10     C     2.96283  2.96283  0.00000  0.07433
      11     H     0.41237  0.41237  0.00000  0.17525
      12     C     2.81822  2.81822  0.00000  0.36356
      13     O     4.14641  4.14641  0.00000 -0.29282
      14     O     4.20319  4.20319  0.00000 -0.40639
      15     C     3.03693  3.03693  0.00000 -0.07386
      16     H     0.45363  0.45363  0.00000  0.09275
      17     H     0.44387  0.44387  0.00000  0.11227
      18     H     0.45169  0.45169  0.00000  0.09663

   Total alpha = 36.00000, Total beta = 36.00000, Total charge = -0.00000

*** Psi4 exiting successfully. Buy a developer a beer!
