  ==> Input File <==

--------------------------------------------------------------------------
set {
	reference rhf
	basis 6-31G*
}

set_num_threads( 1 )
memory 2 gb

molecule MOL {
0 1

O	 3.447947	 0.394410	 1.002069
C	 2.843464	 0.164689	 -0.000222
C	 1.546494	 -0.624492	 -0.000609
C	 3.336520	 0.650364	 -1.347876
C	 0.291004	 0.242674	 0.000989
H	 1.557904	 -1.283758	 -0.867573
H	 1.558622	 -1.285963	 0.864672
C	 -0.994322	 -0.586602	 0.000262
H	 0.309117	 0.896430	 -0.865270
H	 0.309661	 0.894078	 0.869017
C	 -2.259874	 0.272531	 0.000494
H	 -1.004862	 -1.240012	 -0.870939
H	 -1.005220	 -1.241071	 0.870675
C	 -3.549786	 -0.549746	 -0.000374
H	 -2.250389	 0.926680	 -0.869574
H	 -2.250838	 0.925513	 0.871430
C	 -4.809590	 0.315458	 -0.000369
H	 -3.560515	 -1.202009	 -0.871156
H	 -3.561123	 -1.202955	 0.869711
H	 -4.844746	 0.956611	 -0.876632
H	 -5.706986	 -0.295590	 -0.001609
H	 -4.845960	 0.954827	 0.877144
H	 2.594943	 1.292739	 -1.813748
H	 4.260529	 1.197522	 -1.222738
H	 3.500491	 -0.189813	 -2.016346

	symmetry c1
}
set optking {
	frozen_dihedral = ("
		9 5 8 12,
		15 11 8 12,
		15 11 14 18,
		9 5 3 6
	")
}

ee = energy('scf')
oeprop('DIPOLE', 'QUADRUPOLE', 'MULLIKEN_CHARGES')
f=open( 'psi4out.xyz', 'w' )
f.write( "25  " )
f.write( str(ee) + "\n" )
f.write( MOL.save_string_xyz() )
f.close()
--------------------------------------------------------------------------

    Molecular point group: c1

    Geometry (in Angstrom), charge = 0, multiplicity = 1:

       Center              X                  Y                   Z               Mass
    ------------   -----------------  -----------------  -----------------  -----------------
           O          3.471828770509     0.355141357132     1.042944137233    15.994914619560
           C          2.867345770509     0.125420357132     0.040653137233    12.000000000000
           C          1.570375770509    -0.663760642868     0.040266137233    12.000000000000
           C          3.360401770509     0.611095357132    -1.307000862767    12.000000000000
           C          0.314885770509     0.203405357132     0.041864137233    12.000000000000
           H          1.581785770509    -1.323026642868    -0.826697862767     1.007825032070
           H          1.582503770509    -1.325231642868     0.905547137233     1.007825032070
           C         -0.970440229491    -0.625870642868     0.041137137233    12.000000000000
           H          0.332998770509     0.857161357132    -0.824394862767     1.007825032070
           H          0.333542770509     0.854809357132     0.909892137233     1.007825032070
           C         -2.235992229491     0.233262357132     0.041369137233    12.000000000000
           H         -0.980980229491    -1.279280642868    -0.830063862767     1.007825032070
           H         -0.981338229491    -1.280339642868     0.911550137233     1.007825032070
           C         -3.525904229491    -0.589014642868     0.040501137233    12.000000000000
           H         -2.226507229491     0.887411357132    -0.828698862767     1.007825032070
           H         -2.226956229491     0.886244357132     0.912305137233     1.007825032070
           C         -4.785708229491     0.276189357132     0.040506137233    12.000000000000
           H         -3.536633229491    -1.241277642868    -0.830280862767     1.007825032070
           H         -3.537241229491    -1.242223642868     0.910586137233     1.007825032070
           H         -4.820864229491     0.917342357132    -0.835756862767     1.007825032070
           H         -5.683104229491    -0.334858642868     0.039266137233     1.007825032070
           H         -4.822078229491     0.915558357132     0.918019137233     1.007825032070
           H          2.618824770509     1.253470357132    -1.772872862767     1.007825032070
           H          4.284410770509     1.158253357132    -1.181862862767     1.007825032070
           H          3.524372770509    -0.229081642868    -1.975470862767     1.007825032070

  Charge       = 0
  Multiplicity = 1
  Basis Set: 6-31G*
  Basis Set:

    Orbital Energies (a.u.)
    -----------------------

    Doubly Occupied:

       1A    -20.548626     2A    -11.324375     3A    -11.231847
       4A    -11.229151     5A    -11.227012     6A    -11.224073
       7A    -11.219817     8A    -11.219219     9A    -11.211898
      10A     -1.393484    11A     -1.101239    12A     -1.061111
      13A     -1.012695    14A     -0.970684    15A     -0.895662
      16A     -0.821201    17A     -0.796973    18A     -0.732529
      19A     -0.667497    20A     -0.647214    21A     -0.638176
      22A     -0.610802    23A     -0.606465    24A     -0.587830
      25A     -0.567563    26A     -0.557408    27A     -0.544457
      28A     -0.539625    29A     -0.506361    30A     -0.503207
      31A     -0.489191    32A     -0.477745    33A     -0.469537
      34A     -0.467957    35A     -0.456122    36A     -0.395677

  @DF-RHF Final Energy:  -387.13362773732717

   => Energetics <=

    Nuclear Repulsion Energy =            438.5834401480466340
    One-Electron Energy =               -1393.5256455312678554
    Two-Electron Energy =                 567.8085776458946157
    DFT Exchange-Correlation Energy =       0.0000000000000000
    Empirical Dispersion Energy =           0.0000000000000000
    PCM Polarization Energy =               0.0000000000000000
    EFP Energy =                            0.0000000000000000
    Total Energy =                       -387.1336277373266057

  Mulliken Charges: (a.u.)
   Center  Symbol    Alpha    Beta     Spin     Total
       1     O     4.25934  4.25934  0.00000 -0.51868
       2     C     2.73713  2.73713  0.00000  0.52574
       3     C     3.20169  3.20169  0.00000 -0.40337
       4     C     3.28994  3.28994  0.00000 -0.57988
       5     C     3.16104  3.16104  0.00000 -0.32207
       6     H     0.41759  0.41759  0.00000  0.16482
       7     H     0.40136  0.40136  0.00000  0.19727
       8     C     3.15257  3.15257  0.00000 -0.30514
       9     H     0.42007  0.42007  0.00000  0.15986
      10     H     0.40911  0.40911  0.00000  0.18178
      11     C     3.15170  3.15170  0.00000 -0.30340
      12     H     0.42235  0.42235  0.00000  0.15530
      13     H     0.41920  0.41920  0.00000  0.16159
      14     C     3.15203  3.15203  0.00000 -0.30405
      15     H     0.42369  0.42369  0.00000  0.15263
      16     H     0.42169  0.42169  0.00000  0.15662
      17     C     3.23957  3.23957  0.00000 -0.47914
      18     H     0.42294  0.42294  0.00000  0.15411
      19     H     0.42199  0.42199  0.00000  0.15601
      20     H     0.42164  0.42164  0.00000  0.15672
      21     H     0.41853  0.41853  0.00000  0.16295
      22     H     0.42093  0.42093  0.00000  0.15813
      23     H     0.40834  0.40834  0.00000  0.18332
      24     H     0.39695  0.39695  0.00000  0.20611
      25     H     0.40861  0.40861  0.00000  0.18277

   Total alpha = 36.00000, Total beta = 36.00000, Total charge =  0.00000
