                              Psi4 1.0.54 Driver

  ==> Input File <==

--------------------------------------------------------------------------
set {
	reference rhf
	basis cc-pvtz
}

set_num_threads( 4 )
memory 2 gb

molecule MOL {
0 1

H	 2.703117	 -0.573310	 -0.576269
O	 2.012307	 -0.863440	 0.000222
C	 1.050374	 0.054877	 0.000135
C	 -0.318151	 -0.570512	 0.000144
O	 1.286319	 1.213453	 -0.000040
C	 -1.454884	 0.441630	 -0.000560
H	 -0.371613	 -1.223646	 -0.864985
H	 -0.371920	 -1.222758	 0.865929
C	 -2.822577	 -0.232186	 0.000063
H	 -1.359760	 1.084704	 -0.867077
H	 -1.359641	 1.085996	 0.864983
H	 -2.954352	 -0.858985	 -0.875745
H	 -3.615886	 0.505352	 0.000019
H	 -2.953878	 -0.858359	 0.876394

	symmetry c1
}
set optking {
	frozen_dihedral = ("
		1 2 3 5
	")
}

ee,wfn = optimize('scf', return_wfn=True)
oeprop( wfn, 'DIPOLE', 'QUADRUPOLE', 'MULLIKEN_CHARGES')
f=open( 'psi4out.xyz', 'w' )
f.write( "14  " )
f.write( str(ee) + "\n" )
f.write( MOL.save_string_xyz() )
f.close()
--------------------------------------------------------------------------

    Molecular point group: c1
  Charge       = 0
  Multiplicity = 1
  Basis Set: CC-PVTZ
  Basis Set:
  @DF-RHF Final Energy:  -305.99274619141460
    Total Energy =                       -305.9927461914144260
    Molecular point group: c1
  Basis Set: CC-PVTZ
  Basis Set:
  Basis Set: CC-PVTZ
  Basis Set:
  @DF-RHF Final Energy:  -305.98987663323959
    Total Energy =                       -305.9898766332393052
  Basis Set: CC-PVTZ
  Basis Set:
  Basis Set: CC-PVTZ
  Basis Set:
  @DF-RHF Final Energy:  -305.99343176771873
    Total Energy =                       -305.9934317677187892
  Basis Set: CC-PVTZ
  Basis Set:
  Basis Set: CC-PVTZ
  Basis Set:
  @DF-RHF Final Energy:  -305.99350643905109
    Total Energy =                       -305.9935064390510888
  Basis Set: CC-PVTZ
  Basis Set:
  Basis Set: CC-PVTZ
  Basis Set:
  @DF-RHF Final Energy:  -305.99351782194890
    Total Energy =                       -305.9935178219490126
  Basis Set: CC-PVTZ
  Basis Set:
  Basis Set: CC-PVTZ
  Basis Set:
  @DF-RHF Final Energy:  -305.99352077897055
    Total Energy =                       -305.9935207789703782
  Basis Set: CC-PVTZ
  Basis Set:
  Charge       = 0
  Multiplicity = 1
  Basis Set: CC-PVTZ
  Basis Set:

    Orbital Energies (a.u.)
    -----------------------

    Doubly Occupied:

       1A    -20.597773     2A    -20.544677     3A    -11.374287
       4A    -11.239589     5A    -11.223781     6A    -11.215516
       7A     -1.471682     8A     -1.370652     9A     -1.083977
      10A     -0.979769    11A     -0.857491    12A     -0.794220
      13A     -0.706780    14A     -0.688346    15A     -0.666446
      16A     -0.626202    17A     -0.582970    18A     -0.572499
      19A     -0.546668    20A     -0.506889    21A     -0.493820
      22A     -0.484784    23A     -0.482809    24A     -0.447431

  @DF-RHF Final Energy:  -305.99352148905325

   => Energetics <=

    Nuclear Repulsion Energy =            240.1436255268635023
    One-Electron Energy =                -893.1561831707064130
    Two-Electron Energy =                 347.0190361547895463
    DFT Exchange-Correlation Energy =       0.0000000000000000
    Empirical Dispersion Energy =           0.0000000000000000
    PCM Polarization Energy =               0.0000000000000000
    EFP Energy =                            0.0000000000000000
    Total Energy =                       -305.9935214890533643
    Molecular point group: c1
  Basis Set: CC-PVTZ
  Basis Set:

  -Total Gradient:
     Atom            X                  Y                   Z
    ------   -----------------  -----------------  -----------------
       1       -0.003955491920    -0.005657724099    -0.008381041454
       2        0.004483609640     0.007202501248     0.014952697258
       3        0.000454530455    -0.001854189062    -0.016233543018
       4        0.000017498279    -0.000042465940     0.000086697083
       5       -0.001013903525     0.000375287803     0.009622279419
       6        0.000006014073    -0.000035696105    -0.000027048065
       7        0.000010481937    -0.000001918486    -0.000021207616
       8       -0.000001619964    -0.000004973457    -0.000020549502
       9       -0.000005195667     0.000005904413     0.000006462001
      10       -0.000000986198     0.000002725049     0.000001515873
      11       -0.000000848125     0.000012711361     0.000015311440
      12        0.000002990803    -0.000001249696    -0.000002327843
      13        0.000002338277     0.000002123845     0.000000405110
      14        0.000000581938    -0.000003036872     0.000000349313

  **** Optimization is complete! (in 7 steps) ****
    Final optimized geometry and variables:
    Molecular point group: c1

    Geometry (in Angstrom), charge = 0, multiplicity = 1:

    H            2.776179147605    -0.621742373583    -0.373646129483
    O            2.018461344889    -0.855835103310     0.138546758611
    C            1.052181069101     0.060666201174    -0.026692024109
    C           -0.315645269008    -0.565153559178    -0.018240817679
    O            1.281938230957     1.215731668292    -0.083908823211
    C           -1.456846232561     0.441226966313     0.001389246982
    H           -0.374027151246    -1.208568056280    -0.891463492378
    H           -0.357135015876    -1.230540372702     0.837888534896
    C           -2.821864951272    -0.238055030300     0.003991660344
    H           -1.370746569923     1.095756864712    -0.857323108935
    H           -1.358122372587     1.075051973203     0.874702977195
    H           -2.957598645297    -0.854442542425    -0.878650855678
    H           -3.618203195307     0.496068391044     0.018986436409
    H           -2.944007045225    -0.875692431336     0.873300061155

  Mulliken Charges: (a.u.)
   Center  Symbol    Alpha    Beta     Spin     Total
       1     H     0.38086  0.38086  0.00000  0.23828
       2     O     4.16922  4.16922  0.00000 -0.33844
       3     C     2.80559  2.80559  0.00000  0.38882
       4     C     3.10506  3.10506  0.00000 -0.21012
       5     O     4.17973  4.17973  0.00000 -0.35945
       6     C     3.08032  3.08032  0.00000 -0.16063
       7     H     0.44281  0.44281  0.00000  0.11438
       8     H     0.43793  0.43793  0.00000  0.12413
       9     C     3.14994  3.14994  0.00000 -0.29988
      10     H     0.44599  0.44599  0.00000  0.10802
      11     H     0.44639  0.44639  0.00000  0.10721
      12     H     0.45581  0.45581  0.00000  0.08838
      13     H     0.44514  0.44514  0.00000  0.10971
      14     H     0.45521  0.45521  0.00000  0.08958

   Total alpha = 24.00000, Total beta = 24.00000, Total charge = -0.00000

*** Psi4 exiting successfully. Buy a developer a beer!
