  ==> Input File <==

--------------------------------------------------------------------------
set {
	reference rhf
	basis cc-pvtz
}

set_num_threads( 4 )
memory 2 gb

molecule MOL {
0 1

H	 -3.162190	 0.493205	 -0.000107
C	 -2.363908	 -0.234727	 0.000005
O	 -1.158738	 0.454634	 -0.000087
H	 -2.464314	 -0.863616	 -0.882153
H	 -2.464327	 -0.863359	 0.882345
C	 -1.287716	 1.841528	 0.014293
C	 0.090697	 2.471105	 0.012597
H	 -1.843402	 2.156191	 0.897944
H	 -1.853460	 2.173449	 -0.856571
C	 0.035047	 3.994594	 0.027886
H	 0.637089	 2.108567	 0.876280
H	 0.627080	 2.125728	 -0.864306
H	 -0.477076	 4.362692	 0.910678
H	 1.032098	 4.417570	 0.026472
H	 -0.486881	 4.379976	 -0.841677

	symmetry c1
}
set optking {
	frozen_dihedral = ("
		6 3 2 4
	")
}

ee = optimize('scf')
oeprop('DIPOLE', 'QUADRUPOLE', 'MULLIKEN_CHARGES')
f=open( 'psi4out.xyz', 'w' )
f.write( "15  " )
f.write( str(ee) + "\n" )
f.write( MOL.save_string_xyz() )
f.close()
--------------------------------------------------------------------------

    Molecular point group: c1
  Charge       = 0
  Multiplicity = 1
  Basis Set: CC-PVTZ
  Basis Set:
  @DF-RHF Final Energy:  -232.22347685360822
    Total Energy =                       -232.2234768536083038
    Molecular point group: c1
  Basis Set: CC-PVTZ
  Basis Set:
  Basis Set: CC-PVTZ
  Basis Set:
  @DF-RHF Final Energy:  -232.22431146380546
    Total Energy =                       -232.2243114638055772
  Basis Set: CC-PVTZ
  Basis Set:
  Basis Set: CC-PVTZ
  Basis Set:
  @DF-RHF Final Energy:  -232.22456774895241
    Total Energy =                       -232.2245677489526088
  Basis Set: CC-PVTZ
  Basis Set:
  Charge       = 0
  Multiplicity = 1
  Basis Set: CC-PVTZ
  Basis Set:

    Orbital Energies (a.u.)
    -----------------------

    Doubly Occupied:

       1A    -20.543846     2A    -11.264888     3A    -11.261248
       4A    -11.212185     5A    -11.210428     6A     -1.376780
       7A     -1.058004     8A     -0.956110     9A     -0.877378
      10A     -0.809167    11A     -0.673059    12A     -0.653792
      13A     -0.631578    14A     -0.608375    15A     -0.563494
      16A     -0.545833    17A     -0.502880    18A     -0.489418
      19A     -0.479249    20A     -0.461951    21A     -0.410873

  @DF-RHF Final Energy:  -232.22456979440753

   => Energetics <=

    Nuclear Repulsion Energy =            189.6651336420490281
    One-Electron Energy =                -690.5983429935981803
    Two-Electron Energy =                 268.7086395571419075
    DFT Exchange-Correlation Energy =       0.0000000000000000
    Empirical Dispersion Energy =           0.0000000000000000
    PCM Polarization Energy =               0.0000000000000000
    EFP Energy =                            0.0000000000000000
    Total Energy =                       -232.2245697944072731
    Molecular point group: c1
  Basis Set: CC-PVTZ
  Basis Set:

  -Total Gradient:
     Atom            X                  Y                   Z
    ------   -----------------  -----------------  -----------------
       1       -0.000038535698    -0.000003415682    -0.000005563319
       2        0.000021620166     0.000220487120     0.000055702017
       3       -0.000099303366    -0.000147090478    -0.000104799048
       4        0.000104191828    -0.000020276148     0.000025275882
       5        0.000011610553    -0.000034500314    -0.000004070536
       6       -0.000015119489     0.000025961105     0.000026989279
       7        0.000003686746    -0.000031996829     0.000001200435
       8        0.000001946522    -0.000026219454    -0.000009141093
       9        0.000002729993    -0.000020796918     0.000011457454
      10        0.000008192915     0.000022935282     0.000001077141
      11        0.000000458958     0.000001427185    -0.000004192405
      12       -0.000003603832     0.000000604233     0.000005449908
      13        0.000000951091     0.000001162432    -0.000001554408
      14        0.000000007454     0.000011577096     0.000000391141
      15        0.000001166162     0.000000141364     0.000001777552

  **** Optimization is complete! (in 4 steps) ****
    Final optimized geometry and variables:
    Molecular point group: c1

    Geometry (in Angstrom), charge = 0, multiplicity = 1:

    H           -2.274158014725    -1.282837508538     0.003585473650
    C           -1.407391789013    -1.935589490773    -0.010471177049
    O           -0.212140840739    -1.217775855564    -0.008855395166
    H           -1.462940345529    -2.555292668301    -0.898348121250
    H           -1.451737073015    -2.577865587591     0.861826413841
    C           -0.328581092429     0.171488687853     0.002169657278
    C            1.057821147136     0.783083271806     0.002732842328
    H           -0.880246715741     0.496642372537     0.883859867670
    H           -0.885535813037     0.510317490902    -0.871022043814
    C            1.021588497844     2.307368854759     0.014833386783
    H            1.597399374719     0.415189391308     0.868510884115
    H            1.592066448833     0.428883114553    -0.872012120115
    H            0.512061140810     2.683855782613     0.895652935119
    H            2.023959798441     2.717818551241     0.015006470056
    H            0.506717581453     2.697637622214    -0.856831518711

  Mulliken Charges: (a.u.)
   Center  Symbol    Alpha    Beta     Spin     Total
       1     H     0.47321  0.47321  0.00000  0.05358
       2     C     3.02876  3.02876  0.00000 -0.05752
       3     O     4.17672  4.17672  0.00000 -0.35343
       4     H     0.45802  0.45802  0.00000  0.08397
       5     H     0.45787  0.45787  0.00000  0.08425
       6     C     2.95530  2.95530  0.00000  0.08941
       7     C     3.08224  3.08224  0.00000 -0.16448
       8     H     0.47575  0.47575  0.00000  0.04851
       9     H     0.47576  0.47576  0.00000  0.04848
      10     C     3.15594  3.15594  0.00000 -0.31188
      11     H     0.45120  0.45120  0.00000  0.09760
      12     H     0.45120  0.45120  0.00000  0.09761
      13     H     0.45587  0.45587  0.00000  0.08825
      14     H     0.44630  0.44630  0.00000  0.10740
      15     H     0.45587  0.45587  0.00000  0.08826

   Total alpha = 21.00000, Total beta = 21.00000, Total charge = -0.00000
