                              Psi4 1.0.54 Driver

  ==> Input File <==

--------------------------------------------------------------------------
set {
	reference rhf
	basis cc-pvtz
}

set_num_threads( 4 )
memory 2 gb

molecule MOL {
0 1

H	 -2.423711	 -0.440321	 1.223473
O	 -2.057452	 0.368066	 1.532123
C	 -1.044469	 0.801561	 0.668360
C	 0.211034	 -0.034099	 0.820604
H	 -1.368983	 0.785088	 -0.367279
H	 -0.827026	 1.827925	 0.927160
O	 1.172093	 0.457955	 -0.054438
H	 -0.008727	 -1.079761	 0.598810
H	 0.557692	 0.015039	 1.850647
C	 2.395478	 -0.199028	 -0.000366
H	 2.505946	 -0.901710	 -0.823354
H	 3.174616	 0.545641	 -0.071768
H	 2.513730	 -0.742241	 0.934223

	symmetry c1
}
set optking {
	frozen_dihedral = ("
		4 7 10 13
	")
}

ee,wfn = optimize('scf', return_wfn=True)
oeprop( wfn, 'DIPOLE', 'QUADRUPOLE', 'MULLIKEN_CHARGES')
f=open( 'psi4out.xyz', 'w' )
f.write( "13  " )
f.write( str(ee) + "\n" )
f.write( MOL.save_string_xyz() )
f.close()
--------------------------------------------------------------------------

    Molecular point group: c1
  Charge       = 0
  Multiplicity = 1
  Basis Set: CC-PVTZ
  Basis Set:
  @DF-RHF Final Energy:  -268.05936666414118
    Total Energy =                       -268.0593666641412938
    Molecular point group: c1
  Basis Set: CC-PVTZ
  Basis Set:
  Basis Set: CC-PVTZ
  Basis Set:
  @DF-RHF Final Energy:  -268.05953717746831
    Total Energy =                       -268.0595371774683713
  Basis Set: CC-PVTZ
  Basis Set:
  Basis Set: CC-PVTZ
  Basis Set:
  @DF-RHF Final Energy:  -268.05959878577124
    Total Energy =                       -268.0595987857714135
  Basis Set: CC-PVTZ
  Basis Set:
  Charge       = 0
  Multiplicity = 1
  Basis Set: CC-PVTZ
  Basis Set:

    Orbital Energies (a.u.)
    -----------------------

    Doubly Occupied:

       1A    -20.553374     2A    -20.552628     3A    -11.269695
       4A    -11.267456     5A    -11.267058     6A     -1.388678
       7A     -1.368601     8A     -1.019511     9A     -0.914199
      10A     -0.842586    11A     -0.711510    12A     -0.673803
      13A     -0.661386    14A     -0.639029    15A     -0.597043
      16A     -0.572233    17A     -0.547988    18A     -0.492364
      19A     -0.482798    20A     -0.441249    21A     -0.420256

  @DF-RHF Final Energy:  -268.05959926786790

   => Energetics <=

    Nuclear Repulsion Energy =            190.2455918209691959
    One-Electron Energy =                -743.2434907720273713
    Two-Electron Energy =                 284.9382996831903370
    DFT Exchange-Correlation Energy =       0.0000000000000000
    Empirical Dispersion Energy =           0.0000000000000000
    PCM Polarization Energy =               0.0000000000000000
    EFP Energy =                            0.0000000000000000
    Total Energy =                       -268.0595992678678954
    Molecular point group: c1
  Basis Set: CC-PVTZ
  Basis Set:

  -Total Gradient:
     Atom            X                  Y                   Z
    ------   -----------------  -----------------  -----------------
       1        0.000002026705     0.000006903272     0.000000773909
       2       -0.000064027287     0.000013916578     0.000039311876
       3       -0.000000640506    -0.000053049611     0.000013334971
       4        0.000556798681     0.001250404956     0.001371961559
       5        0.000016524204     0.000008577670     0.000001921120
       6       -0.000006476228    -0.000005328214    -0.000001744232
       7       -0.001032516291    -0.002420898412    -0.002281594239
       8        0.000003393557     0.000014891926     0.000004620503
       9        0.000003347553     0.000011246965    -0.000022544863
      10        0.001534717056     0.003139875646     0.001875941735
      11       -0.000016383285     0.000002669096     0.000005869574
      12        0.000025117963     0.000000754976     0.000004964003
      13       -0.001021882125    -0.001969964848    -0.001012815911

  **** Optimization is complete! (in 4 steps) ****
    Final optimized geometry and variables:
    Molecular point group: c1

    Geometry (in Angstrom), charge = 0, multiplicity = 1:

    H           -2.543656707559    -0.699559004371     0.632336225672
    O           -2.174416318174     0.109450979062     0.935764719300
    C           -1.161250902421     0.534496958571     0.067729819195
    C            0.091621984396    -0.304309027127     0.223338004108
    H           -1.487557549820     0.513475375815    -0.967220935502
    H           -0.939410016100     1.561503291490     0.320252877007
    O            1.053768622596     0.187766164424    -0.651592344530
    H           -0.134406608932    -1.349274889556     0.004508854006
    H            0.436973157319    -0.252632177933     1.252888994416
    C            2.292722846091    -0.450759201696    -0.618853058145
    H            2.379157378803    -1.157635628127    -1.439127251396
    H            3.072525589078     0.292020782686    -0.717366624355
    H            2.438697054471    -0.998645174860     0.306588690053

  Mulliken Charges: (a.u.)
   Center  Symbol    Alpha    Beta     Spin     Total
       1     H     0.39421  0.39421  0.00000  0.21159
       2     O     4.20210  4.20210  0.00000 -0.40419
       3     C     2.97476  2.97476  0.00000  0.05048
       4     C     2.96506  2.96506  0.00000  0.06987
       5     H     0.46671  0.46671  0.00000  0.06658
       6     H     0.45295  0.45295  0.00000  0.09410
       7     O     4.17932  4.17932  0.00000 -0.35864
       8     H     0.48251  0.48251  0.00000  0.03498
       9     H     0.46873  0.46873  0.00000  0.06255
      10     C     3.02852  3.02852  0.00000 -0.05704
      11     H     0.46224  0.46224  0.00000  0.07552
      12     H     0.45117  0.45117  0.00000  0.09765
      13     H     0.47172  0.47172  0.00000  0.05655

   Total alpha = 21.00000, Total beta = 21.00000, Total charge = -0.00000

*** Psi4 exiting successfully. Buy a developer a beer!
