  ==> Input File <==

--------------------------------------------------------------------------
set {
	reference rhf
	basis 6-31G*
}

set_num_threads( 1 )
memory 2 gb

molecule MOL {
0 1

H	 3.477458	 -0.434328	 4.890259
C	 3.052248	 -1.173486	 4.218422
C	 1.770535	 -0.655506	 3.567205
H	 3.801915	 -1.409256	 3.468920
H	 2.864761	 -2.075412	 4.794771
C	 1.140492	 -1.677010	 2.617791
H	 1.988858	 0.257593	 3.022976
H	 1.052635	 -0.395389	 4.343511
C	 -0.154324	 -1.193408	 1.964455
H	 1.850705	 -1.938141	 1.841227
H	 0.924871	 -2.589145	 3.169660
C	 0.039520	 -0.104108	 0.919901
H	 -0.643207	 -2.024478	 1.458405
H	 -0.862711	 -0.848345	 2.714319
C	 -1.181045	 0.701995	 0.511084
O	 1.105199	 0.102806	 0.421986
C	 -2.285934	 -0.139295	 -0.145128
H	 -0.839153	 1.469809	 -0.172499
H	 -1.581193	 1.195888	 1.394620
C	 -3.651768	 0.085446	 0.506485
H	 -2.346596	 0.110469	 -1.202272
H	 -2.034737	 -1.195320	 -0.088721
C	 -4.759797	 -0.746382	 -0.137905
H	 -3.908762	 1.140117	 0.445781
H	 -3.588286	 -0.154158	 1.565709
H	 -4.868882	 -0.505166	 -1.191300
H	 -4.548009	 -1.809175	 -0.062213
H	 -5.715422	 -0.564821	 0.343442

	symmetry c1
}
set optking {
	frozen_dihedral = ("
		10 6 3 2,
		16 12 15 17
	")
}

ee = energy('scf')
oeprop('DIPOLE', 'QUADRUPOLE', 'MULLIKEN_CHARGES')
f=open( 'psi4out.xyz', 'w' )
f.write( "28  " )
f.write( str(ee) + "\n" )
f.write( MOL.save_string_xyz() )
f.close()
--------------------------------------------------------------------------

    Molecular point group: c1

    Geometry (in Angstrom), charge = 0, multiplicity = 1:

       Center              X                  Y                   Z               Mass
    ------------   -----------------  -----------------  -----------------  -----------------
           H          3.968370706059     0.051390900752     3.440979435515     1.007825032070
           C          3.543160706059    -0.687767099248     2.769142435515    12.000000000000
           C          2.261447706059    -0.169787099248     2.117925435515    12.000000000000
           H          4.292827706059    -0.923537099248     2.019640435515     1.007825032070
           H          3.355673706059    -1.589693099248     3.345491435515     1.007825032070
           C          1.631404706059    -1.191291099248     1.168511435515    12.000000000000
           H          2.479770706059     0.743311900752     1.573696435515     1.007825032070
           H          1.543547706059     0.090329900752     2.894231435515     1.007825032070
           C          0.336588706059    -0.707689099248     0.515175435515    12.000000000000
           H          2.341617706059    -1.452422099248     0.391947435515     1.007825032070
           H          1.415783706059    -2.103426099248     1.720380435515     1.007825032070
           C          0.530432706059     0.381610900752    -0.529378564485    12.000000000000
           H         -0.152294293941    -1.538759099248     0.009125435515     1.007825032070
           H         -0.371798293941    -0.362626099248     1.265039435515     1.007825032070
           C         -0.690132293941     1.187713900752    -0.938195564485    12.000000000000
           O          1.596111706059     0.588524900752    -1.027293564485    15.994914619560
           C         -1.795021293941     0.346423900752    -1.594407564485    12.000000000000
           H         -0.348240293941     1.955527900752    -1.621778564485     1.007825032070
           H         -1.090280293941     1.681606900752    -0.054659564485     1.007825032070
           C         -3.160855293941     0.571164900752    -0.942794564485    12.000000000000
           H         -1.855683293941     0.596187900752    -2.651551564485     1.007825032070
           H         -1.543824293941    -0.709601099248    -1.538000564485     1.007825032070
           C         -4.268884293941    -0.260663099248    -1.587184564485    12.000000000000
           H         -3.417849293941     1.625835900752    -1.003498564485     1.007825032070
           H         -3.097373293941     0.331560900752     0.116429435515     1.007825032070
           H         -4.377969293941    -0.019447099248    -2.640579564485     1.007825032070
           H         -4.057096293941    -1.323456099248    -1.511492564485     1.007825032070
           H         -5.224509293941    -0.079102099248    -1.105837564485     1.007825032070

  Charge       = 0
  Multiplicity = 1
  Basis Set: 6-31G*
  Basis Set:

    Orbital Energies (a.u.)
    -----------------------

    Doubly Occupied:

       1A    -20.547907     2A    -11.322085     3A    -11.231198
       4A    -11.230376     5A    -11.227225     6A    -11.227165
       7A    -11.216888     8A    -11.216643     9A    -11.212555
      10A    -11.205892    11A     -1.393078    12A     -1.096280
      13A     -1.077494    14A     -1.022137    15A     -0.991198
      16A     -0.907081    17A     -0.874270    18A     -0.811961
      19A     -0.799210    20A     -0.723541    21A     -0.666432
      22A     -0.655787    23A     -0.626592    24A     -0.615994
      25A     -0.610561    26A     -0.591565    27A     -0.577037
      28A     -0.573556    29A     -0.543021    30A     -0.537140
      31A     -0.522060    32A     -0.511504    33A     -0.497198
      34A     -0.483121    35A     -0.479026    36A     -0.476146
      37A     -0.467491    38A     -0.465019    39A     -0.455009
      40A     -0.392421

  @DF-RHF Final Energy:  -426.16337746200156

   => Energetics <=

    Nuclear Repulsion Energy =            535.6444860736582996
    One-Electron Energy =               -1639.4542027586758195
    Two-Electron Energy =                 677.6463392230152749
    DFT Exchange-Correlation Energy =       0.0000000000000000
    Empirical Dispersion Energy =           0.0000000000000000
    PCM Polarization Energy =               0.0000000000000000
    EFP Energy =                            0.0000000000000000
    Total Energy =                       -426.1633774620022450

  Mulliken Charges: (a.u.)
   Center  Symbol    Alpha    Beta     Spin     Total
       1     H     0.41929  0.41929  0.00000  0.16142
       2     C     3.24015  3.24015  0.00000 -0.48031
       3     C     3.15646  3.15646  0.00000 -0.31292
       4     H     0.41826  0.41826  0.00000  0.16348
       5     H     0.42361  0.42361  0.00000  0.15278
       6     C     3.14877  3.14877  0.00000 -0.29755
       7     H     0.41041  0.41041  0.00000  0.17917
       8     H     0.42768  0.42768  0.00000  0.14464
       9     C     3.21137  3.21137  0.00000 -0.42273
      10     H     0.40646  0.40646  0.00000  0.18708
      11     H     0.42195  0.42195  0.00000  0.15609
      12     C     2.73580  2.73580  0.00000  0.52840
      13     H     0.40315  0.40315  0.00000  0.19371
      14     H     0.41308  0.41308  0.00000  0.17384
      15     C     3.20306  3.20306  0.00000 -0.40612
      16     O     4.26628  4.26628  0.00000 -0.53255
      17     C     3.16252  3.16252  0.00000 -0.32503
      18     H     0.39775  0.39775  0.00000  0.20450
      19     H     0.41013  0.41013  0.00000  0.17974
      20     C     3.15546  3.15546  0.00000 -0.31092
      21     H     0.41082  0.41082  0.00000  0.17836
      22     H     0.41752  0.41752  0.00000  0.16496
      23     C     3.24073  3.24073  0.00000 -0.48147
      24     H     0.41912  0.41912  0.00000  0.16176
      25     H     0.42228  0.42228  0.00000  0.15543
      26     H     0.41965  0.41965  0.00000  0.16070
      27     H     0.42091  0.42091  0.00000  0.15819
      28     H     0.41731  0.41731  0.00000  0.16538

   Total alpha = 40.00000, Total beta = 40.00000, Total charge =  0.00000
