                              Psi4 1.0.54 Driver

  ==> Input File <==

--------------------------------------------------------------------------
set {
	reference rhf
	basis cc-pvtz
}

set_num_threads( 4 )
memory 2 gb

molecule MOL {
0 1

H	 1.939833	 -2.476939	 -1.676013
O	 1.752080	 -2.083190	 -0.837320
C	 0.971972	 -1.024130	 -1.035455
C	 0.626018	 -0.337582	 0.258241
O	 0.617581	 -0.698323	 -2.115315
C	 -0.267326	 0.883135	 0.076490
H	 0.170405	 -1.085342	 0.896308
H	 1.563245	 -0.070361	 0.736396
C	 -1.726822	 0.642622	 0.463839
H	 -0.210803	 1.217591	 -0.953497
H	 0.129920	 1.693110	 0.675679
C	 -2.480891	 -0.340606	 -0.429852
H	 -2.243098	 1.597649	 0.438609
H	 -1.776542	 0.301208	 1.495542
C	 -3.955933	 -0.460128	 -0.060472
H	 -2.393755	 -0.020485	 -1.464726
H	 -2.024244	 -1.323637	 -0.374360
H	 -4.467673	 -1.160944	 -0.709827
H	 -4.458917	 0.497287	 -0.144505
H	 -4.076458	 -0.806900	 0.960497

	symmetry c1
}
set optking {
	frozen_dihedral = ("
		7 4 6 10
	")
}

ee,wfn = optimize('scf', return_wfn=True)
oeprop( wfn, 'DIPOLE', 'QUADRUPOLE', 'MULLIKEN_CHARGES')
f=open( 'psi4out.xyz', 'w' )
f.write( "20  " )
f.write( str(ee) + "\n" )
f.write( MOL.save_string_xyz() )
f.close()
--------------------------------------------------------------------------

    Molecular point group: c1
  Charge       = 0
  Multiplicity = 1
  Basis Set: CC-PVTZ
  Basis Set:
  @DF-RHF Final Energy:  -384.09130466109644
    Total Energy =                       -384.0913046610960464
    Molecular point group: c1
  Basis Set: CC-PVTZ
  Basis Set:
  Basis Set: CC-PVTZ
  Basis Set:
  @DF-RHF Final Energy:  -384.09162528605390
    Total Energy =                       -384.0916252860531586
  Basis Set: CC-PVTZ
  Basis Set:
  Basis Set: CC-PVTZ
  Basis Set:
  @DF-RHF Final Energy:  -384.09169170308559
    Total Energy =                       -384.0916917030854165
  Basis Set: CC-PVTZ
  Basis Set:
  Basis Set: CC-PVTZ
  Basis Set:
  @DF-RHF Final Energy:  -384.09149487637904
    Total Energy =                       -384.0914948763792154
  Basis Set: CC-PVTZ
  Basis Set:
  @DF-RHF Final Energy:  -384.09172599938324
    Total Energy =                       -384.0917259993836979
  Basis Set: CC-PVTZ
  Basis Set:
  @DF-RHF Final Energy:  -384.09173289744001
    Total Energy =                       -384.0917328974400107
  Basis Set: CC-PVTZ
  Basis Set:
  Basis Set: CC-PVTZ
  Basis Set:
  @DF-RHF Final Energy:  -384.09174126439285
    Total Energy =                       -384.0917412643922262
  Basis Set: CC-PVTZ
  Basis Set:
  Basis Set: CC-PVTZ
  Basis Set:
  @DF-RHF Final Energy:  -384.09174344901692
    Total Energy =                       -384.0917434490172582
  Basis Set: CC-PVTZ
  Basis Set:
  Charge       = 0
  Multiplicity = 1
  Basis Set: CC-PVTZ
  Basis Set:

    Orbital Energies (a.u.)
    -----------------------

    Doubly Occupied:

       1A    -20.604455     2A    -20.541161     3A    -11.374201
       4A    -11.239214     5A    -11.219896     6A    -11.215922
       7A    -11.212858     8A    -11.206727     9A     -1.478268
      10A     -1.369541    11A     -1.094631    12A     -1.038488
      13A     -0.960866    14A     -0.870771    15A     -0.814261
      16A     -0.775647    17A     -0.704898    18A     -0.694886
      19A     -0.665285    20A     -0.632336    21A     -0.605215
      22A     -0.593290    23A     -0.576159    24A     -0.554415
      25A     -0.535341    26A     -0.514437    27A     -0.495550
      28A     -0.485880    29A     -0.465571    30A     -0.464705
      31A     -0.455050    32A     -0.446889

  @DF-RHF Final Energy:  -384.09174375698512

   => Energetics <=

    Nuclear Repulsion Energy =            386.9444778954964477
    One-Electron Energy =               -1290.2588195325433844
    Two-Electron Energy =                 519.2225978800622670
    DFT Exchange-Correlation Energy =       0.0000000000000000
    Empirical Dispersion Energy =           0.0000000000000000
    PCM Polarization Energy =               0.0000000000000000
    EFP Energy =                            0.0000000000000000
    Total Energy =                       -384.0917437569846697
    Molecular point group: c1
  Basis Set: CC-PVTZ
  Basis Set:

  -Total Gradient:
     Atom            X                  Y                   Z
    ------   -----------------  -----------------  -----------------
       1        0.000007355746    -0.000012643809    -0.000001416435
       2       -0.000025155311     0.000041131520    -0.000010903422
       3        0.000021012503    -0.000046836933     0.000013833463
       4        0.000741070521     0.000874278441     0.002007075360
       5       -0.000009031226     0.000012221886    -0.000018132145
       6        0.001737734576     0.001222577651     0.000129719870
       7       -0.000883232717    -0.000898174443    -0.001646346074
       8        0.000005508542    -0.000000653614    -0.000002614959
       9       -0.000017350763     0.000005999059    -0.000007334920
      10       -0.001596020084    -0.001191081849    -0.000469244277
      11       -0.000002207836    -0.000003689107     0.000003287939
      12        0.000015629108    -0.000002024554    -0.000004633564
      13        0.000001420624     0.000006124720     0.000003936680
      14        0.000002053159    -0.000002946896    -0.000001724003
      15        0.000003534300     0.000000039605     0.000001783640
      16        0.000000109183     0.000001354668     0.000004926775
      17       -0.000000147024    -0.000006717747    -0.000003301739
      18        0.000001529783    -0.000002723784    -0.000002043258
      19       -0.000002633800     0.000004330036    -0.000001465567
      20       -0.000001179283    -0.000000564853     0.000004596635

  **** Optimization is complete! (in 9 steps) ****
    Final optimized geometry and variables:
    Molecular point group: c1

    Geometry (in Angstrom), charge = 0, multiplicity = 1:

    H            2.391359359133    -2.146942336208    -1.072030812045
    O            2.172771608051    -1.728019851939    -0.253249770239
    C            1.510312178591    -0.605553199839    -0.519048625671
    C            1.148853101283     0.130990718522     0.746058667900
    O            1.271180385684    -0.267230349530    -1.626491109539
    C            0.275790645524     1.374750175813     0.539110378403
    H            0.671562272297    -0.594110290214     1.395031226653
    H            2.090701091625     0.380983381117     1.221095786173
    C           -1.198703492746     1.174017011045     0.897668802913
    H            0.346623469202     1.685911484809    -0.494530560664
    H            0.670113866462     2.181248669499     1.145311169970
    C           -1.942304124226     0.179078009374     0.009165312003
    H           -1.697415233923     2.137008071216     0.834858343916
    H           -1.278431005206     0.860120363989     1.936417003229
    C           -3.416954299593     0.049755214705     0.376721723763
    H           -1.850215407406     0.487576949342    -1.027135935501
    H           -1.476227279072    -0.799793257409     0.073994541965
    H           -3.920731056185    -0.660662218284    -0.268417508066
    H           -3.928300351147     1.001993909071     0.282680573338
    H           -3.538545423920    -0.289144192266     1.400433950806

  Mulliken Charges: (a.u.)
   Center  Symbol    Alpha    Beta     Spin     Total
       1     H     0.38239  0.38239  0.00000  0.23521
       2     O     4.16060  4.16060  0.00000 -0.32121
       3     C     2.79936  2.79936  0.00000  0.40127
       4     C     3.12665  3.12665  0.00000 -0.25331
       5     O     4.19319  4.19319  0.00000 -0.38638
       6     C     3.10417  3.10417  0.00000 -0.20833
       7     H     0.43389  0.43389  0.00000  0.13222
       8     H     0.42549  0.42549  0.00000  0.14901
       9     C     3.09668  3.09668  0.00000 -0.19337
      10     H     0.43792  0.43792  0.00000  0.12416
      11     H     0.44079  0.44079  0.00000  0.11842
      12     C     3.08514  3.08514  0.00000 -0.17029
      13     H     0.44835  0.44835  0.00000  0.10331
      14     H     0.45491  0.45491  0.00000  0.09018
      15     C     3.15011  3.15011  0.00000 -0.30023
      16     H     0.44480  0.44480  0.00000  0.11039
      17     H     0.45715  0.45715  0.00000  0.08570
      18     H     0.44753  0.44753  0.00000  0.10493
      19     H     0.45446  0.45446  0.00000  0.09108
      20     H     0.45638  0.45638  0.00000  0.08723

   Total alpha = 32.00000, Total beta = 32.00000, Total charge = -0.00000

*** Psi4 exiting successfully. Buy a developer a beer!
