  ==> Input File <==

--------------------------------------------------------------------------
set {
	reference rhf
	basis 6-31G*
}

set_num_threads( 1 )
memory 2 gb

molecule MOL {
0 1

O	 1.470477	 3.538960	 1.682350
C	 0.697242	 3.528748	 2.590514
C	 -0.575936	 2.702276	 2.560529
C	 0.939314	 4.347303	 3.842123
C	 -0.766822	 1.900747	 1.276260
H	 -0.565860	 2.043271	 3.427708
H	 -1.415396	 3.377441	 2.721341
C	 -2.058557	 1.081518	 1.282969
H	 0.086116	 1.244140	 1.136636
H	 -0.764618	 2.579772	 0.429461
C	 -2.259874	 0.272531	 0.000494
H	 -2.055676	 0.405233	 2.136596
H	 -2.909708	 1.745928	 1.424987
C	 -3.549786	 -0.549746	 -0.000374
H	 -1.409935	 -0.392515	 -0.142112
H	 -2.263791	 0.947653	 -0.853434
C	 -4.809590	 0.315458	 -0.000369
H	 -3.560515	 -1.202009	 -0.871156
H	 -3.561123	 -1.202955	 0.869711
H	 -4.844746	 0.956611	 -0.876632
H	 -5.706986	 -0.295590	 -0.001609
H	 -4.845960	 0.954827	 0.877144
H	 0.980147	 3.702163	 4.714903
H	 1.870539	 4.888673	 3.749539
H	 0.125751	 5.049660	 3.998467

	symmetry c1
}
set optking {
	frozen_dihedral = ("
		9 5 8 12,
		15 11 8 12,
		1 2 3 6,
		9 5 3 6
	")
}

ee = energy('scf')
oeprop('DIPOLE', 'QUADRUPOLE', 'MULLIKEN_CHARGES')
f=open( 'psi4out.xyz', 'w' )
f.write( "25  " )
f.write( str(ee) + "\n" )
f.write( MOL.save_string_xyz() )
f.close()
--------------------------------------------------------------------------

    Molecular point group: c1

    Geometry (in Angstrom), charge = 0, multiplicity = 1:

       Center              X                  Y                   Z               Mass
    ------------   -----------------  -----------------  -----------------  -----------------
           O          2.689419494254     1.628348503867     0.211431091028    15.994914619560
           C          1.916184494254     1.618136503867     1.119595091028    12.000000000000
           C          0.643006494254     0.791664503867     1.089610091028    12.000000000000
           C          2.158256494254     2.436691503867     2.371204091028    12.000000000000
           C          0.452120494254    -0.009864496133    -0.194658908972    12.000000000000
           H          0.653082494254     0.132659503867     1.956789091028     1.007825032070
           H         -0.196453505746     1.466829503867     1.250422091028     1.007825032070
           C         -0.839614505746    -0.829093496133    -0.187949908972    12.000000000000
           H          1.305058494254    -0.666471496133    -0.334282908972     1.007825032070
           H          0.454324494254     0.669160503867    -1.041457908972     1.007825032070
           C         -1.040931505746    -1.638080496133    -1.470424908972    12.000000000000
           H         -0.836733505746    -1.505378496133     0.665677091028     1.007825032070
           H         -1.690765505746    -0.164683496133    -0.045931908972     1.007825032070
           C         -2.330843505746    -2.460357496133    -1.471292908972    12.000000000000
           H         -0.190992505746    -2.303126496133    -1.613030908972     1.007825032070
           H         -1.044848505746    -0.962958496133    -2.324352908972     1.007825032070
           C         -3.590647505746    -1.595153496133    -1.471287908972    12.000000000000
           H         -2.341572505746    -3.112620496133    -2.342074908972     1.007825032070
           H         -2.342180505746    -3.113566496133    -0.601207908972     1.007825032070
           H         -3.625803505746    -0.954000496133    -2.347550908972     1.007825032070
           H         -4.488043505746    -2.206201496133    -1.472527908972     1.007825032070
           H         -3.627017505746    -0.955784496133    -0.593774908972     1.007825032070
           H          2.199089494254     1.791551503867     3.243984091028     1.007825032070
           H          3.089481494254     2.978061503867     2.278620091028     1.007825032070
           H          1.344693494254     3.139048503867     2.527548091028     1.007825032070

  Charge       = 0
  Multiplicity = 1
  Basis Set: 6-31G*
  Basis Set:

    Orbital Energies (a.u.)
    -----------------------

    Doubly Occupied:

       1A    -20.550440     2A    -11.326280     3A    -11.231843
       4A    -11.228338     5A    -11.216842     6A    -11.216081
       7A    -11.215395     8A    -11.213442     9A    -11.208614
      10A     -1.395740    11A     -1.094598    12A     -1.056701
      13A     -1.013374    14A     -0.966523    15A     -0.895310
      16A     -0.823379    17A     -0.779661    18A     -0.729569
      19A     -0.658336    20A     -0.653215    21A     -0.625492
      22A     -0.620567    23A     -0.610873    24A     -0.590133
      25A     -0.567042    26A     -0.556242    27A     -0.542290
      28A     -0.521293    29A     -0.513328    30A     -0.493517
      31A     -0.488235    32A     -0.476677    33A     -0.462278
      34A     -0.455910    35A     -0.450826    36A     -0.399464

  @DF-RHF Final Energy:  -387.13439162104180

   => Energetics <=

    Nuclear Repulsion Energy =            443.4946437972936337
    One-Electron Energy =               -1403.5623231783827123
    Two-Electron Energy =                 572.9332877600476195
    DFT Exchange-Correlation Energy =       0.0000000000000000
    Empirical Dispersion Energy =           0.0000000000000000
    PCM Polarization Energy =               0.0000000000000000
    EFP Energy =                            0.0000000000000000
    Total Energy =                       -387.1343916210414591

  Mulliken Charges: (a.u.)
   Center  Symbol    Alpha    Beta     Spin     Total
       1     O     4.26116  4.26116  0.00000 -0.52232
       2     C     2.73573  2.73573  0.00000  0.52853
       3     C     3.21079  3.21079  0.00000 -0.42158
       4     C     3.28664  3.28664  0.00000 -0.57328
       5     C     3.14716  3.14716  0.00000 -0.29432
       6     H     0.41003  0.41003  0.00000  0.17994
       7     H     0.41011  0.41011  0.00000  0.17978
       8     C     3.15653  3.15653  0.00000 -0.31307
       9     H     0.41226  0.41226  0.00000  0.17549
      10     H     0.41220  0.41220  0.00000  0.17561
      11     C     3.15270  3.15270  0.00000 -0.30541
      12     H     0.42511  0.42511  0.00000  0.14979
      13     H     0.42283  0.42283  0.00000  0.15433
      14     C     3.15286  3.15286  0.00000 -0.30573
      15     H     0.42037  0.42037  0.00000  0.15926
      16     H     0.42261  0.42261  0.00000  0.15477
      17     C     3.24187  3.24187  0.00000 -0.48374
      18     H     0.41998  0.41998  0.00000  0.16004
      19     H     0.42366  0.42366  0.00000  0.15269
      20     H     0.42155  0.42155  0.00000  0.15690
      21     H     0.41895  0.41895  0.00000  0.16209
      22     H     0.42098  0.42098  0.00000  0.15803
      23     H     0.40875  0.40875  0.00000  0.18250
      24     H     0.39646  0.39646  0.00000  0.20709
      25     H     0.40871  0.40871  0.00000  0.18259

   Total alpha = 36.00000, Total beta = 36.00000, Total charge = -0.00000
