  ==> Input File <==

--------------------------------------------------------------------------
set {
	reference rhf
	basis 6-31G*
}

set_num_threads( 1 )
memory 2 gb

molecule MOL {
0 1

H	 3.893188	 0.355400	 -0.101367
N	 3.092854	 -0.246221	 -0.068770
C	 1.865559	 0.531981	 0.018834
H	 3.199514	 -0.826043	 0.741946
C	 0.645745	 -0.382037	 -0.029944
H	 1.841966	 1.207024	 -0.831236
H	 1.815756	 1.155410	 0.915079
C	 -0.679275	 0.379305	 0.025956
H	 0.698998	 -0.976915	 -0.937203
H	 0.693479	 -1.083846	 0.802235
C	 -1.028904	 0.878246	 1.429235
H	 -1.480590	 -0.264232	 -0.334049
H	 -0.641170	 1.227766	 -0.655593
C	 -2.355663	 1.634899	 1.481157
H	 -1.068828	 0.032120	 2.111650
H	 -0.231134	 1.523721	 1.790596
H	 -3.179336	 1.004613	 1.157709
H	 -2.575801	 1.975069	 2.488345
H	 -2.335111	 2.507694	 0.834476

	symmetry c1
}
set optking {
	frozen_dihedral = ("
		6 3 5 9,
		12 8 11 15,
		1 2 3 6
	")
}

ee = energy('scf')
oeprop('DIPOLE', 'QUADRUPOLE', 'MULLIKEN_CHARGES')
f=open( 'psi4out.xyz', 'w' )
f.write( "19  " )
f.write( str(ee) + "\n" )
f.write( MOL.save_string_xyz() )
f.close()
--------------------------------------------------------------------------

    Molecular point group: c1

    Geometry (in Angstrom), charge = 0, multiplicity = 1:

       Center              X                  Y                   Z               Mass
    ------------   -----------------  -----------------  -----------------  -----------------
           H          3.602562504374    -0.114838026780    -0.585667714632     1.007825032070
           N          2.802228504374    -0.716459026780    -0.553070714632    14.003074004780
           C          1.574933504374     0.061742973220    -0.465466714632    12.000000000000
           H          2.908888504374    -1.296281026780     0.257645285368     1.007825032070
           C          0.355119504374    -0.852275026780    -0.514244714632    12.000000000000
           H          1.551340504374     0.736785973220    -1.315536714632     1.007825032070
           H          1.525130504374     0.685171973220     0.430778285368     1.007825032070
           C         -0.969900495626    -0.090933026780    -0.458344714632    12.000000000000
           H          0.408372504374    -1.447153026780    -1.421503714632     1.007825032070
           H          0.402853504374    -1.554084026780     0.317934285368     1.007825032070
           C         -1.319529495626     0.408007973220     0.944934285368    12.000000000000
           H         -1.771215495626    -0.734470026780    -0.818349714632     1.007825032070
           H         -0.931795495626     0.757527973220    -1.139893714632     1.007825032070
           C         -2.646288495626     1.164660973220     0.996856285368    12.000000000000
           H         -1.359453495626    -0.438118026780     1.627349285368     1.007825032070
           H         -0.521759495626     1.053482973220     1.306295285368     1.007825032070
           H         -3.469961495626     0.534374973220     0.673408285368     1.007825032070
           H         -2.866426495626     1.504830973220     2.004044285368     1.007825032070
           H         -2.625736495626     2.037455973220     0.350175285368     1.007825032070

  Charge       = 0
  Multiplicity = 1
  Basis Set: 6-31G*
  Basis Set:

    Orbital Energies (a.u.)
    -----------------------

    Doubly Occupied:

       1A    -15.532410     2A    -11.239330     3A    -11.214509
       4A    -11.212575     5A    -11.209148     6A    -11.208224
       7A     -1.176618     8A     -1.074171     9A     -0.997195
      10A     -0.899197    11A     -0.825736    12A     -0.780561
      13A     -0.657852    14A     -0.636517    15A     -0.628674
      16A     -0.588421    17A     -0.567552    18A     -0.549173
      19A     -0.529387    20A     -0.502823    21A     -0.480978
      22A     -0.464963    23A     -0.458977    24A     -0.449447
      25A     -0.379767

  @DF-RHF Final Energy:  -251.34938131005219

   => Energetics <=

    Nuclear Repulsion Energy =            249.2226870306138835
    One-Electron Energy =                -832.6156276103638447
    Two-Electron Energy =                 332.0435592696977665
    DFT Exchange-Correlation Energy =       0.0000000000000000
    Empirical Dispersion Energy =           0.0000000000000000
    PCM Polarization Energy =               0.0000000000000000
    EFP Energy =                            0.0000000000000000
    Total Energy =                       -251.3493813100521947

  Mulliken Charges: (a.u.)
   Center  Symbol    Alpha    Beta     Spin     Total
       1     H     0.33257  0.33257  0.00000  0.33487
       2     N     3.92183  3.92183  0.00000 -0.84366
       3     C     3.06190  3.06190  0.00000 -0.12380
       4     H     0.33535  0.33535  0.00000  0.32930
       5     C     3.15354  3.15354  0.00000 -0.30708
       6     H     0.42082  0.42082  0.00000  0.15836
       7     H     0.43316  0.43316  0.00000  0.13368
       8     C     3.15736  3.15736  0.00000 -0.31472
       9     H     0.41094  0.41094  0.00000  0.17813
      10     H     0.42746  0.42746  0.00000  0.14507
      11     C     3.15328  3.15328  0.00000 -0.30657
      12     H     0.42016  0.42016  0.00000  0.15969
      13     H     0.42375  0.42375  0.00000  0.15250
      14     C     3.23876  3.23876  0.00000 -0.47753
      15     H     0.42314  0.42314  0.00000  0.15372
      16     H     0.42270  0.42270  0.00000  0.15460
      17     H     0.42159  0.42159  0.00000  0.15682
      18     H     0.41978  0.41978  0.00000  0.16043
      19     H     0.42190  0.42190  0.00000  0.15620

   Total alpha = 25.00000, Total beta = 25.00000, Total charge = -0.00000
