  ==> Input File <==

--------------------------------------------------------------------------
set {
	reference rhf
	basis 6-31G*
}

set_num_threads( 4 )
memory 2 gb

molecule MOL {
0 1

H	 -1.338320	 -2.009261	 -1.095884
N	 -0.635097	 -1.300471	 -1.176961
C	 -0.563778	 -0.502042	 0.037919
H	 -0.889847	 -0.727849	 -1.959241
C	 0.575259	 0.508231	 -0.048326
H	 -0.379745	 -1.178195	 0.867464
H	 -1.495719	 0.022884	 0.263049
C	 1.954651	 -0.143624	 0.035137
H	 0.475158	 1.060484	 -0.977307
H	 0.469181	 1.234488	 0.755973
H	 2.103292	 -0.853109	 -0.774172
H	 2.742821	 0.599562	 -0.030094
H	 2.083613	 -0.679371	 0.971560

	symmetry c1
}
set optking {
	frozen_dihedral = ("
		6 3 5 9
	")
}

ee = optimize('scf')
oeprop('DIPOLE', 'QUADRUPOLE', 'MULLIKEN_CHARGES')
f=open( 'psi4out.xyz', 'w' )
f.write( "13  " )
f.write( str(ee) + "\n" )
f.write( MOL.save_string_xyz() )
f.close()
--------------------------------------------------------------------------

    Molecular point group: c1
  Charge       = 0
  Multiplicity = 1
  Basis Set: 6-31G*
  Basis Set:
  @DF-RHF Final Energy:  -173.28174758017911
    Total Energy =                       -173.2817475801790863
    Molecular point group: c1
  Basis Set: 6-31G*
  Basis Set:
  Basis Set: 6-31G*
  Basis Set:
  @DF-RHF Final Energy:  -173.28189559089159
    Total Energy =                       -173.2818955908917076
  Basis Set: 6-31G*
  Basis Set:
  Basis Set: 6-31G*
  Basis Set:
  @DF-RHF Final Energy:  -173.28193429952611
    Total Energy =                       -173.2819342995260001
  Basis Set: 6-31G*
  Basis Set:
  Charge       = 0
  Multiplicity = 1
  Basis Set: 6-31G*
  Basis Set:

    Orbital Energies (a.u.)
    -----------------------

    Doubly Occupied:

       1A    -15.533504     2A    -11.240611     3A    -11.212188
       4A    -11.198662     5A     -1.177408     6A     -1.028459
       7A     -0.899910     8A     -0.792717     9A     -0.662645
      10A     -0.629013    11A     -0.601305    12A     -0.556751
      13A     -0.528520    14A     -0.488612    15A     -0.473738
      16A     -0.467136    17A     -0.380833

  @DF-RHF Final Energy:  -173.28193523832681

   => Energetics <=

    Nuclear Repulsion Energy =            133.5969336091006312
    One-Electron Energy =                -498.0137100694864785
    Two-Electron Energy =                 191.1348412220590944
    DFT Exchange-Correlation Energy =       0.0000000000000000
    Empirical Dispersion Energy =           0.0000000000000000
    PCM Polarization Energy =               0.0000000000000000
    EFP Energy =                            0.0000000000000000
    Total Energy =                       -173.2819352383267528
    Molecular point group: c1
  Basis Set: 6-31G*
  Basis Set:

  -Total Gradient:
     Atom            X                  Y                   Z
    ------   -----------------  -----------------  -----------------
       1        0.000004639915     0.000004775111    -0.000006948693
       2        0.000029139017    -0.000068722943    -0.000006219159
       3       -0.000906781611     0.001115134935     0.001021794013
       4        0.000007256836     0.000006909368     0.000028206796
       5       -0.001003199845     0.001196912092     0.000822203795
       6        0.000914050465    -0.001030294312    -0.001082379985
       7        0.000039143299     0.000030381739     0.000030494335
       8        0.000014214748    -0.000074049178    -0.000018210079
       9        0.000916457752    -0.001160052769    -0.000826823475
      10       -0.000019699230    -0.000010691434     0.000000337919
      11       -0.000001315181    -0.000004847740     0.000026002622
      12       -0.000039797793     0.000011684256    -0.000003538946
      13        0.000045891626    -0.000017139126     0.000015080855

  **** Optimization is complete! (in 4 steps) ****
    Final optimized geometry and variables:
    Molecular point group: c1

    Geometry (in Angstrom), charge = 0, multiplicity = 1:

    H           -1.618943378845    -1.651878443036    -0.787799283743
    N           -0.942270772412    -0.918556101184    -0.874563833452
    C           -0.884976397123    -0.118626505320     0.342285817034
    H           -1.223854907225    -0.353222482971    -1.652992155779
    C            0.263345578979     0.887232315832     0.275034593507
    H           -0.713879222403    -0.802724155802     1.168023906332
    H           -1.818238218365     0.408501018541     0.549296312271
    C            1.642492479768     0.231780035973     0.337600647529
    H            0.180029441874     1.452044477744    -0.652098542845
    H            0.156457468934     1.602196140503     1.087055768942
    H            1.758929090398    -0.495544258578    -0.456443465315
    H            2.430441367189     0.972861479591     0.241264000359
    H            1.786073603243    -0.280916456714     1.285108248889

  Mulliken Charges: (a.u.)
   Center  Symbol    Alpha    Beta     Spin     Total
       1     H     0.33190  0.33190  0.00000  0.33621
       2     N     3.92087  3.92087  0.00000 -0.84173
       3     C     3.06520  3.06520  0.00000 -0.13040
       4     H     0.33517  0.33517  0.00000  0.32965
       5     C     3.15116  3.15116  0.00000 -0.30233
       6     H     0.42090  0.42090  0.00000  0.15819
       7     H     0.43158  0.43158  0.00000  0.13685
       8     C     3.23961  3.23961  0.00000 -0.47922
       9     H     0.42614  0.42614  0.00000  0.14772
      10     H     0.42308  0.42308  0.00000  0.15385
      11     H     0.40604  0.40604  0.00000  0.18793
      12     H     0.42314  0.42314  0.00000  0.15372
      13     H     0.42521  0.42521  0.00000  0.14958

   Total alpha = 17.00000, Total beta = 17.00000, Total charge = -0.00000
