  ==> Input File <==

--------------------------------------------------------------------------
set {
	reference rhf
	basis 6-31G*
}

set_num_threads( 1 )
memory 2 gb

molecule MOL {
0 1

O	 1.214711	 1.306902	 -0.000018
C	 1.122059	 0.121804	 -0.000188
C	 -0.170150	 -0.657997	 -0.000612
O	 2.172624	 -0.688929	 0.000216
C	 -1.412532	 0.227344	 -0.000452
H	 -0.153702	 -1.313099	 -0.867402
H	 -0.153924	 -1.313811	 0.865644
C	 -1.933352	 0.498552	 -1.412741
H	 -1.183452	 1.166258	 0.493985
H	 -2.188836	 -0.244650	 0.593751
C	 -3.178812	 1.383849	 -1.421756
H	 -1.151393	 0.970750	 -2.004051
H	 -2.158857	 -0.445580	 -1.904505
H	 -2.976163	 2.349251	 -0.967238
H	 -3.527234	 1.560879	 -2.434445
H	 -3.990998	 0.922529	 -0.867519
C	 3.452279	 -0.082609	 0.000533
H	 3.583069	 0.529321	 -0.880332
H	 4.163299	 -0.894027	 0.001117
H	 3.582335	 0.529955	 0.881077

	symmetry c1
}
set optking {
	frozen_dihedral = ("
		9 5 8 12,
		1 2 3 6,
		1 2 4 17
	")
}

ee = energy('scf')
oeprop('DIPOLE', 'QUADRUPOLE', 'MULLIKEN_CHARGES')
f=open( 'psi4out.xyz', 'w' )
f.write( "20  " )
f.write( str(ee) + "\n" )
f.write( MOL.save_string_xyz() )
f.close()
--------------------------------------------------------------------------

    Molecular point group: c1

    Geometry (in Angstrom), charge = 0, multiplicity = 1:

       Center              X                  Y                   Z               Mass
    ------------   -----------------  -----------------  -----------------  -----------------
           O          1.020626846991     1.034483189076     0.354595191495    15.994914619560
           C          0.927974846991    -0.150614810924     0.354425191495    12.000000000000
           C         -0.364234153009    -0.930415810924     0.354001191495    12.000000000000
           O          1.978539846991    -0.961347810924     0.354829191495    15.994914619560
           C         -1.606616153009    -0.045074810924     0.354161191495    12.000000000000
           H         -0.347786153009    -1.585517810924    -0.512788808505     1.007825032070
           H         -0.348008153009    -1.586229810924     1.220257191495     1.007825032070
           C         -2.127436153009     0.226133189076    -1.058127808505    12.000000000000
           H         -1.377536153009     0.893839189076     0.848598191495     1.007825032070
           H         -2.382920153009    -0.517068810924     0.948364191495     1.007825032070
           C         -3.372896153009     1.111430189076    -1.067142808505    12.000000000000
           H         -1.345477153009     0.698331189076    -1.649437808505     1.007825032070
           H         -2.352941153009    -0.717998810924    -1.549891808505     1.007825032070
           H         -3.170247153009     2.076832189076    -0.612624808505     1.007825032070
           H         -3.721318153009     1.288460189076    -2.079831808505     1.007825032070
           H         -4.185082153009     0.650110189076    -0.512905808505     1.007825032070
           C          3.258194846991    -0.355027810924     0.355146191495    12.000000000000
           H          3.388984846991     0.256902189076    -0.525718808505     1.007825032070
           H          3.969214846991    -1.166445810924     0.355730191495     1.007825032070
           H          3.388250846991     0.257536189076     1.235690191495     1.007825032070

  Charge       = 0
  Multiplicity = 1
  Basis Set: 6-31G*
  Basis Set:

    Orbital Energies (a.u.)
    -----------------------

    Doubly Occupied:

       1A    -20.604522     2A    -20.546616     3A    -11.373105
       4A    -11.281399     5A    -11.234766     6A    -11.217271
       7A    -11.216063     8A    -11.207245     9A     -1.470268
      10A     -1.364001    11A     -1.087350    12A     -1.022165
      13A     -0.968758    14A     -0.883820    15A     -0.805144
      16A     -0.766602    17A     -0.703894    18A     -0.680817
      19A     -0.672862    20A     -0.629187    21A     -0.607900
      22A     -0.588383    23A     -0.578530    24A     -0.545580
      25A     -0.529612    26A     -0.514733    27A     -0.512360
      28A     -0.477445    29A     -0.469225    30A     -0.460671
      31A     -0.456426    32A     -0.439569

  @DF-RHF Final Energy:  -383.93915547239260

   => Energetics <=

    Nuclear Repulsion Energy =            386.7220239843617264
    One-Electron Energy =               -1289.4899111737327075
    Two-Electron Energy =                 518.8287317169766766
    DFT Exchange-Correlation Energy =       0.0000000000000000
    Empirical Dispersion Energy =           0.0000000000000000
    PCM Polarization Energy =               0.0000000000000000
    EFP Energy =                            0.0000000000000000
    Total Energy =                       -383.9391554723943045

  Mulliken Charges: (a.u.)
   Center  Symbol    Alpha    Beta     Spin     Total
       1     O     4.28578  4.28578  0.00000 -0.57155
       2     C     2.60812  2.60812  0.00000  0.78376
       3     C     3.21036  3.21036  0.00000 -0.42071
       4     O     4.30634  4.30634  0.00000 -0.61267
       5     C     3.15818  3.15818  0.00000 -0.31636
       6     H     0.39911  0.39911  0.00000  0.20178
       7     H     0.39753  0.39753  0.00000  0.20494
       8     C     3.15517  3.15517  0.00000 -0.31033
       9     H     0.40031  0.40031  0.00000  0.19939
      10     H     0.41960  0.41960  0.00000  0.16080
      11     C     3.24049  3.24049  0.00000 -0.48098
      12     H     0.41572  0.41572  0.00000  0.16855
      13     H     0.42472  0.42472  0.00000  0.15056
      14     H     0.41801  0.41801  0.00000  0.16398
      15     H     0.41915  0.41915  0.00000  0.16170
      16     H     0.42268  0.42268  0.00000  0.15463
      17     C     3.09237  3.09237  0.00000 -0.18474
      18     H     0.40905  0.40905  0.00000  0.18189
      19     H     0.40834  0.40834  0.00000  0.18332
      20     H     0.40897  0.40897  0.00000  0.18205

   Total alpha = 32.00000, Total beta = 32.00000, Total charge = -0.00000
