  ==> Input File <==

--------------------------------------------------------------------------
set {
	reference rhf
	basis 6-31G*
}

set_num_threads( 1 )
memory 2 gb

molecule MOL {
0 1

O	 1.205530	 1.294918	 -0.173040
C	 1.122059	 0.121804	 -0.000188
C	 -0.157138	 -0.641014	 0.244062
O	 2.172624	 -0.688929	 0.000216
C	 -1.398915	 0.245116	 0.254321
H	 -0.228092	 -1.409323	 -0.521065
H	 -0.044158	 -1.171415	 1.185691
C	 -2.680066	 -0.552195	 0.503945
H	 -1.471478	 0.771381	 -0.692402
H	 -1.287054	 1.009983	 1.016535
C	 -3.929016	 0.328120	 0.517103
H	 -2.786859	 -1.317641	 -0.262060
H	 -2.600967	 -1.079548	 1.452478
H	 -4.055072	 0.842951	 -0.430902
H	 -4.822859	 -0.261346	 0.695569
H	 -3.868124	 1.082330	 1.296269
C	 3.452279	 -0.082609	 0.000533
H	 3.583069	 0.529321	 -0.880332
H	 4.163299	 -0.894027	 0.001117
H	 3.582335	 0.529955	 0.881077

	symmetry c1
}
set optking {
	frozen_dihedral = ("
		9 5 8 12,
		1 2 3 6,
		9 5 3 6
	")
}

ee = energy('scf')
oeprop('DIPOLE', 'QUADRUPOLE', 'MULLIKEN_CHARGES')
f=open( 'psi4out.xyz', 'w' )
f.write( "20  " )
f.write( str(ee) + "\n" )
f.write( MOL.save_string_xyz() )
f.close()
--------------------------------------------------------------------------

    Molecular point group: c1

    Geometry (in Angstrom), charge = 0, multiplicity = 1:

       Center              X                  Y                   Z               Mass
    ------------   -----------------  -----------------  -----------------  -----------------
           O          1.196650253436     1.283328714101    -0.338819157962    15.994914619560
           C          1.113179253436     0.110214714101    -0.165967157962    12.000000000000
           C         -0.166017746564    -0.652603285899     0.078282842038    12.000000000000
           O          2.163744253436    -0.700518285899    -0.165563157962    15.994914619560
           C         -1.407794746564     0.233526714101     0.088541842038    12.000000000000
           H         -0.236971746564    -1.420912285899    -0.686844157962     1.007825032070
           H         -0.053037746564    -1.183004285899     1.019911842038     1.007825032070
           C         -2.688945746564    -0.563784285899     0.338165842038    12.000000000000
           H         -1.480357746564     0.759791714101    -0.858181157962     1.007825032070
           H         -1.295933746564     0.998393714101     0.850755842038     1.007825032070
           C         -3.937895746564     0.316530714101     0.351323842038    12.000000000000
           H         -2.795738746564    -1.329230285899    -0.427839157962     1.007825032070
           H         -2.609846746564    -1.091137285899     1.286698842038     1.007825032070
           H         -4.063951746564     0.831361714101    -0.596681157962     1.007825032070
           H         -4.831738746564    -0.272935285899     0.529789842038     1.007825032070
           H         -3.877003746564     1.070740714101     1.130489842038     1.007825032070
           C          3.443399253436    -0.094198285899    -0.165246157962    12.000000000000
           H          3.574189253436     0.517731714101    -1.046111157962     1.007825032070
           H          4.154419253436    -0.905616285899    -0.164662157962     1.007825032070
           H          3.573455253436     0.518365714101     0.715297842038     1.007825032070

  Charge       = 0
  Multiplicity = 1
  Basis Set: 6-31G*
  Basis Set:

    Orbital Energies (a.u.)
    -----------------------

    Doubly Occupied:

       1A    -20.603200     2A    -20.545731     3A    -11.372468
       4A    -11.281217     5A    -11.235756     6A    -11.220343
       7A    -11.219358     8A    -11.210681     9A     -1.469292
      10A     -1.362953    11A     -1.088767    12A     -1.024354
      13A     -0.969253    14A     -0.886054    15A     -0.804082
      16A     -0.767636    17A     -0.696837    18A     -0.683629
      19A     -0.672017    20A     -0.646082    21A     -0.597837
      22A     -0.592104    23A     -0.579142    24A     -0.540082
      25A     -0.537135    26A     -0.522391    27A     -0.500727
      28A     -0.478356    29A     -0.473704    30A     -0.470598
      31A     -0.455587    32A     -0.436747

  @DF-RHF Final Energy:  -383.94093795726070

   => Energetics <=

    Nuclear Repulsion Energy =            381.0807474410876807
    One-Electron Energy =               -1278.1553234754856021
    Two-Electron Energy =                 513.1336380771379027
    DFT Exchange-Correlation Energy =       0.0000000000000000
    Empirical Dispersion Energy =           0.0000000000000000
    PCM Polarization Energy =               0.0000000000000000
    EFP Energy =                            0.0000000000000000
    Total Energy =                       -383.9409379572600756

  Mulliken Charges: (a.u.)
   Center  Symbol    Alpha    Beta     Spin     Total
       1     O     4.28540  4.28540  0.00000 -0.57081
       2     C     2.60513  2.60513  0.00000  0.78973
       3     C     3.20833  3.20833  0.00000 -0.41666
       4     O     4.30738  4.30738  0.00000 -0.61476
       5     C     3.15115  3.15115  0.00000 -0.30229
       6     H     0.40027  0.40027  0.00000  0.19947
       7     H     0.40116  0.40116  0.00000  0.19767
       8     C     3.15422  3.15422  0.00000 -0.30845
       9     H     0.41177  0.41177  0.00000  0.17645
      10     H     0.41216  0.41216  0.00000  0.17569
      11     C     3.23931  3.23931  0.00000 -0.47862
      12     H     0.42285  0.42285  0.00000  0.15430
      13     H     0.42307  0.42307  0.00000  0.15386
      14     H     0.41990  0.41990  0.00000  0.16020
      15     H     0.41874  0.41874  0.00000  0.16253
      16     H     0.42002  0.42002  0.00000  0.15996
      17     C     3.09278  3.09278  0.00000 -0.18556
      18     H     0.40677  0.40677  0.00000  0.18647
      19     H     0.40828  0.40828  0.00000  0.18344
      20     H     0.41131  0.41131  0.00000  0.17738

   Total alpha = 32.00000, Total beta = 32.00000, Total charge = -0.00000
