  ==> Input File <==

--------------------------------------------------------------------------
set {
	reference rhf
	basis 6-31G*
}

set_num_threads( 4 )
memory 2 gb

molecule MOL {
0 1

H	 2.591676	 2.013956	 0.335017
O	 3.341076	 1.666752	 -0.126416
C	 3.569581	 0.339145	 0.272707
C	 4.944370	 0.127299	 0.897051
H	 2.799532	 0.113554	 0.999211
H	 3.430502	 -0.340569	 -0.567189
C	 6.109364	 0.374704	 -0.064431
H	 5.036621	 0.783413	 1.758660
H	 4.993720	 -0.894517	 1.269641
C	 7.473065	 0.101400	 0.576227
H	 6.072027	 1.402847	 -0.413564
H	 5.994231	 -0.259513	 -0.943553
C	 8.670436	 0.251619	 -0.369329
H	 7.605276	 0.761116	 1.431880
H	 7.472416	 -0.911833	 0.972532
C	 8.926561	 1.678120	 -0.863264
H	 9.560428	 -0.101249	 0.147599
H	 8.537336	 -0.408125	 -1.225401
C	 10.190996	 1.795321	 -1.717024
H	 9.009732	 2.345216	 -0.006424
H	 8.077407	 2.031511	 -1.443226
C	 10.445510	 3.217017	 -2.216692
H	 11.048305	 1.457542	 -1.138739
H	 10.113892	 1.122268	 -2.568457
H	 10.559855	 3.909445	 -1.387420
H	 11.348976	 3.267733	 -2.816535
H	 9.621476	 3.570911	 -2.829955

	symmetry c1
}
set optking {
	frozen_dihedral = ("
		4 3 2 1
	")
}

ee = optimize('scf')
oeprop('DIPOLE', 'QUADRUPOLE', 'MULLIKEN_CHARGES')
f=open( 'psi4out.xyz', 'w' )
f.write( "27  " )
f.write( str(ee) + "\n" )
f.write( MOL.save_string_xyz() )
f.close()
--------------------------------------------------------------------------

    Molecular point group: c1
  Charge       = 0
  Multiplicity = 1
  Basis Set: 6-31G*
  Basis Set:
  @DF-RHF Final Energy:  -388.27874864158275
    Total Energy =                       -388.2787486415828653
    Molecular point group: c1
  Basis Set: 6-31G*
  Basis Set:
  Basis Set: 6-31G*
  Basis Set:
  @DF-RHF Final Energy:  -388.27990658126373
    Total Energy =                       -388.2799065812636172
  Basis Set: 6-31G*
  Basis Set:
  Basis Set: 6-31G*
  Basis Set:
  @DF-RHF Final Energy:  -388.28030598504870
    Total Energy =                       -388.2803059850484715
  Basis Set: 6-31G*
  Basis Set:
  Basis Set: 6-31G*
  Basis Set:
  @DF-RHF Final Energy:  -388.28030941755736
    Total Energy =                       -388.2803094175578735
  Basis Set: 6-31G*
  Basis Set:
  Basis Set: 6-31G*
  Basis Set:
  @DF-RHF Final Energy:  -388.28031561772343
    Total Energy =                       -388.2803156177235451
  Basis Set: 6-31G*
  Basis Set:
  Basis Set: 6-31G*
  Basis Set:
  @DF-RHF Final Energy:  -388.28031778619874
    Total Energy =                       -388.2803177861981112
  Basis Set: 6-31G*
  Basis Set:
  Charge       = 0
  Multiplicity = 1
  Basis Set: 6-31G*
  Basis Set:

    Orbital Energies (a.u.)
    -----------------------

    Doubly Occupied:

       1A    -20.551584     2A    -11.268240     3A    -11.211482
       4A    -11.210193     5A    -11.208950     6A    -11.208300
       7A    -11.206766     8A    -11.205442     9A    -11.204179
      10A     -1.357848    11A     -1.087452    12A     -1.055578
      13A     -1.007158    14A     -0.942281    15A     -0.879536
      16A     -0.812761    17A     -0.795721    18A     -0.771031
      19A     -0.697788    20A     -0.646294    21A     -0.639283
      22A     -0.606671    23A     -0.588038    24A     -0.583527
      25A     -0.567647    26A     -0.546237    27A     -0.536170
      28A     -0.520928    29A     -0.505638    30A     -0.494184
      31A     -0.475302    32A     -0.468104    33A     -0.460448
      34A     -0.453831    35A     -0.444503    36A     -0.433091
      37A     -0.422319

  @DF-RHF Final Energy:  -388.28031783906761

   => Energetics <=

    Nuclear Repulsion Energy =            459.8682960041099932
    One-Electron Energy =               -1438.1482173374070044
    Two-Electron Energy =                 589.9996034942298593
    DFT Exchange-Correlation Energy =       0.0000000000000000
    Empirical Dispersion Energy =           0.0000000000000000
    PCM Polarization Energy =               0.0000000000000000
    EFP Energy =                            0.0000000000000000
    Total Energy =                       -388.2803178390671519
    Molecular point group: c1
  Basis Set: 6-31G*
  Basis Set:

  -Total Gradient:
     Atom            X                  Y                   Z
    ------   -----------------  -----------------  -----------------
       1       -0.000115057383    -0.000043173600    -0.000157939202
       2        0.000130545064     0.000111642715     0.000142542983
       3       -0.000078354594     0.000044165223     0.000110545567
       4        0.000034415246    -0.000045305054    -0.000101582118
       5        0.000021979308    -0.000026510493    -0.000001033389
       6        0.000009173007    -0.000025395799     0.000004698091
       7       -0.000019671664    -0.000023392720    -0.000002929808
       8        0.000010763417     0.000001729915     0.000001379478
       9        0.000005022608     0.000001106091    -0.000002851818
      10       -0.000000432607    -0.000008270539    -0.000003078535
      11       -0.000008533108    -0.000006792445     0.000004663528
      12        0.000004832062     0.000004132853    -0.000009792492
      13       -0.000009064980     0.000001528159     0.000005008651
      14        0.000009255705     0.000009938933    -0.000010144902
      15        0.000011980995     0.000000955611     0.000006545900
      16        0.000005595035     0.000009072065     0.000006175583
      17       -0.000009523991    -0.000011897324     0.000010809721
      18       -0.000006302368     0.000005112620     0.000000844136
      19       -0.000002641450    -0.000002244198    -0.000003117062
      20        0.000003265420     0.000001858483     0.000003110459
      21        0.000005395491     0.000003956840     0.000000117347
      22       -0.000003109003    -0.000001388261    -0.000002237452
      23       -0.000001207063     0.000003037482    -0.000000085249
      24        0.000002581060    -0.000002881741    -0.000001159711
      25       -0.000000496393    -0.000001263678     0.000000211253
      26       -0.000000600230    -0.000000718672     0.000000169876
      27        0.000000190426     0.000000997531    -0.000000870833

  **** Optimization is complete! (in 7 steps) ****
    Final optimized geometry and variables:
    Molecular point group: c1

    Geometry (in Angstrom), charge = 0, multiplicity = 1:

    H           -4.271718829977     1.031780120351     0.721583110110
    O           -3.551623302821     0.619512785689     0.270658562674
    C           -3.437739376164    -0.729258435543     0.665126892642
    C           -2.077779370644    -0.998764318172     1.293028846814
    H           -4.224959837996    -0.989363333591     1.368049916887
    H           -3.572579020496    -1.354385988023    -0.213004040517
    C           -0.910554464617    -0.737687736677     0.339777183536
    H           -1.974380454334    -0.375871983450     2.178830663905
    H           -2.054255541929    -2.034161685904     1.630068071817
    C            0.450955657592    -0.986760864434     0.994262549402
    H           -0.977779085106     0.282707708636    -0.019085134147
    H           -1.011827945326    -1.381976275545    -0.533003434638
    C            1.651680366562    -0.833573615468     0.053369195366
    H            0.571746785051    -0.313360551369     1.841495680532
    H            0.463242287760    -1.994558754550     1.405491386848
    C            1.890360802433     0.590201311374    -0.456564304622
    H            2.544406650320    -1.169155167319     0.577611741345
    H            1.529841553123    -1.504508049888    -0.795641816813
    C            3.150954926851     0.712495906750    -1.315245503491
    H            1.969040456548     1.266933697084     0.393298672781
    H            1.035116287272     0.927321820577    -1.036412822987
    C            3.389095582947     2.132123554634    -1.828799329804
    H            4.014017765023     0.388744665877    -0.737173299325
    H            3.077879968561     0.031255823080    -2.160540455295
    H            3.499673154936     2.833076956438    -1.006109552482
    H            4.289641026364     2.186900137976    -2.432919867409
    H            2.558696631240     2.471884072877    -2.441315809447

  Mulliken Charges: (a.u.)
   Center  Symbol    Alpha    Beta     Spin     Total
       1     H     0.27922  0.27922  0.00000  0.44157
       2     O     4.37248  4.37248  0.00000 -0.74495
       3     C     3.00031  3.00031  0.00000 -0.00061
       4     C     3.15604  3.15604  0.00000 -0.31209
       5     H     0.42928  0.42928  0.00000  0.14144
       6     H     0.42348  0.42348  0.00000  0.15303
       7     C     3.15767  3.15767  0.00000 -0.31535
       8     H     0.42236  0.42236  0.00000  0.15528
       9     H     0.42623  0.42623  0.00000  0.14755
      10     C     3.15296  3.15296  0.00000 -0.30591
      11     H     0.40496  0.40496  0.00000  0.19009
      12     H     0.42629  0.42629  0.00000  0.14742
      13     C     3.15274  3.15274  0.00000 -0.30547
      14     H     0.42436  0.42436  0.00000  0.15127
      15     H     0.42442  0.42442  0.00000  0.15116
      16     C     3.15286  3.15286  0.00000 -0.30571
      17     H     0.42329  0.42329  0.00000  0.15343
      18     H     0.42456  0.42456  0.00000  0.15087
      19     C     3.15098  3.15098  0.00000 -0.30197
      20     H     0.42506  0.42506  0.00000  0.14989
      21     H     0.41974  0.41974  0.00000  0.16051
      22     C     3.23902  3.23902  0.00000 -0.47803
      23     H     0.42411  0.42411  0.00000  0.15179
      24     H     0.42355  0.42355  0.00000  0.15289
      25     H     0.42225  0.42225  0.00000  0.15550
      26     H     0.42036  0.42036  0.00000  0.15927
      27     H     0.42143  0.42143  0.00000  0.15714

   Total alpha = 37.00000, Total beta = 37.00000, Total charge = -0.00000
