                              Psi4 1.0.54 Driver

  ==> Input File <==

--------------------------------------------------------------------------
set {
	reference rhf
	basis cc-pvtz
}

set_num_threads( 4 )
memory 2 gb

molecule MOL {
0 1

H	 2.462737	 -4.468953	 1.620044
O	 3.238999	 -4.295259	 1.120968
C	 2.920474	 -4.151268	 -0.238106
C	 2.203231	 -2.848269	 -0.558170
H	 3.863080	 -4.184935	 -0.767578
H	 2.328169	 -4.997560	 -0.580762
C	 0.815614	 -2.726058	 0.067475
H	 2.826337	 -2.021506	 -0.230510
H	 2.118356	 -2.770510	 -1.639441
C	 0.113298	 -1.420414	 -0.302504
H	 0.901313	 -2.796998	 1.146653
H	 0.200649	 -3.565143	 -0.253527
C	 -1.311023	 -1.277304	 0.237018
H	 0.713582	 -0.582058	 0.042523
H	 0.079501	 -1.341779	 -1.385621
C	 -2.041121	 -0.006551	 -0.194127
H	 -1.888548	 -2.136293	 -0.093331
H	 -1.289731	 -1.328757	 1.323321
C	 -3.489218	 0.042606	 0.286507
H	 -2.022185	 0.066287	 -1.279394
H	 -1.518764	 0.869305	 0.178730
C	 -4.219984	 1.311773	 -0.139038
H	 -4.022855	 -0.824300	 -0.093339
H	 -3.510372	 -0.038577	 1.370031
H	 -4.244251	 1.405725	 -1.219696
H	 -5.244345	 1.313233	 0.215630
H	 -3.732090	 2.196311	 0.257073

	symmetry c1
}
set optking {
	frozen_dihedral = ("
		14 10 13 16
	")
}

ee,wfn = optimize('scf', return_wfn=True)
oeprop( wfn, 'DIPOLE', 'QUADRUPOLE', 'MULLIKEN_CHARGES')
f=open( 'psi4out.xyz', 'w' )
f.write( "27  " )
f.write( str(ee) + "\n" )
f.write( MOL.save_string_xyz() )
f.close()
--------------------------------------------------------------------------

    Molecular point group: c1
  Charge       = 0
  Multiplicity = 1
  Basis Set: CC-PVTZ
  Basis Set:
  @DF-RHF Final Energy:  -388.42915209185065
    Total Energy =                       -388.4291520918507103
    Molecular point group: c1
  Basis Set: CC-PVTZ
  Basis Set:
  Basis Set: CC-PVTZ
  Basis Set:
  @DF-RHF Final Energy:  -388.42945113298651
    Total Energy =                       -388.4294511329865145
  Basis Set: CC-PVTZ
  Basis Set:
  Basis Set: CC-PVTZ
  Basis Set:
  @DF-RHF Final Energy:  -388.42959510222289
    Total Energy =                       -388.4295951022231748
  Basis Set: CC-PVTZ
  Basis Set:
  Basis Set: CC-PVTZ
  Basis Set:
  @DF-RHF Final Energy:  -388.42959906079818
    Total Energy =                       -388.4295990607988642
  Basis Set: CC-PVTZ
  Basis Set:
  Basis Set: CC-PVTZ
  Basis Set:
  @DF-RHF Final Energy:  -388.42960012873573
    Total Energy =                       -388.4296001287349327
  Basis Set: CC-PVTZ
  Basis Set:
  Charge       = 0
  Multiplicity = 1
  Basis Set: CC-PVTZ
  Basis Set:

    Orbital Energies (a.u.)
    -----------------------

    Doubly Occupied:

       1A    -20.545211     2A    -11.264976     3A    -11.217331
       4A    -11.214353     5A    -11.213553     6A    -11.213348
       7A    -11.212890     8A    -11.211665     9A    -11.206906
      10A     -1.363165    11A     -1.096156    12A     -1.063584
      13A     -1.013144    14A     -0.951311    15A     -0.883311
      16A     -0.820559    17A     -0.792493    18A     -0.789231
      19A     -0.696683    20A     -0.660732    21A     -0.634809
      22A     -0.615164    23A     -0.602667    24A     -0.588046
      25A     -0.574893    26A     -0.556593    27A     -0.536704
      28A     -0.522591    29A     -0.512195    30A     -0.492327
      31A     -0.482137    32A     -0.474749    33A     -0.468695
      34A     -0.462641    35A     -0.461793    36A     -0.444804
      37A     -0.422669

  @DF-RHF Final Energy:  -388.42960025765086

   => Energetics <=

    Nuclear Repulsion Energy =            451.7987096265591731
    One-Electron Energy =               -1421.8884611191224394
    Two-Electron Energy =                 581.6601512349122913
    DFT Exchange-Correlation Energy =       0.0000000000000000
    Empirical Dispersion Energy =           0.0000000000000000
    PCM Polarization Energy =               0.0000000000000000
    EFP Energy =                            0.0000000000000000
    Total Energy =                       -388.4296002576509181
    Molecular point group: c1
  Basis Set: CC-PVTZ
  Basis Set:

  -Total Gradient:
     Atom            X                  Y                   Z
    ------   -----------------  -----------------  -----------------
       1       -0.000000936926    -0.000002552707    -0.000000440045
       2       -0.000001669906     0.000005447328     0.000007955700
       3       -0.000001128042     0.000006457518    -0.000008168444
       4       -0.000008438818    -0.000003974038     0.000008269964
       5        0.000008095509    -0.000002909494     0.000001414014
       6       -0.000002716189     0.000000799728     0.000000875721
       7        0.000018118156    -0.000006878068    -0.000000853801
       8        0.000007174136    -0.000000213650    -0.000002643728
       9        0.000000673049     0.000000222800    -0.000004397005
      10       -0.000172844780     0.000188602177    -0.000475496934
      11        0.000001289106    -0.000003073274     0.000003268841
      12       -0.000007393098     0.000000030219    -0.000008598417
      13        0.000156853701     0.000138910310     0.000385121840
      14        0.000108677549    -0.000200489160     0.000307337814
      15       -0.000004940631    -0.000000912373     0.000004601784
      16       -0.000123016519    -0.000118216242    -0.000222214440
      17        0.000007319989    -0.000000963313     0.000001552706
      18        0.000000285554    -0.000000379450     0.000000050220
      19        0.000012931079     0.000007383671     0.000004117496
      20        0.000003937093    -0.000004247652    -0.000005117992
      21        0.000001773363     0.000003104469     0.000005076580
      22        0.000002337292    -0.000007065680    -0.000003838070
      23       -0.000001480427    -0.000001990759     0.000001203457
      24       -0.000002871563     0.000001486681     0.000003744223
      25        0.000001146869     0.000002278333    -0.000006447084
      26       -0.000006268728    -0.000002706187     0.000000729523
      27        0.000003093198     0.000001848810     0.000002896077

  **** Optimization is complete! (in 6 steps) ****
    Final optimized geometry and variables:
    Molecular point group: c1

    Geometry (in Angstrom), charge = 0, multiplicity = 1:

    H            2.542797454322    -2.735180998731     1.553249681476
    O            3.344891690997    -2.542513534486     1.104696628961
    C            3.104119546080    -2.364971541928    -0.266213964946
    C            2.385175121311    -1.064388353547    -0.591917624419
    H            4.076495597721    -2.369782767472    -0.739921208599
    H            2.546747270870    -3.209884762768    -0.666025833033
    C            0.963926380277    -0.978740444157    -0.041164619711
    H            2.976378437136    -0.237735953115    -0.209779185030
    H            2.357898304340    -0.959556351443    -1.673931678932
    C            0.249905885811     0.316496750667    -0.419174830672
    H            0.986302495677    -1.060386601510     1.042451152262
    H            0.385281777152    -1.825752026231    -0.404533999912
    C           -1.165676434968     0.414355989417     0.142420308552
    H            0.835901619665     1.160651108435    -0.064616260503
    H            0.214466079388     0.402262055280    -1.502358561313
    C           -1.895913334737     1.688524058886    -0.272167328613
    H           -1.741230749189    -0.448866940789    -0.183705619631
    H           -1.125386442432     0.359860896802     1.227681684850
    C           -3.309236581020     1.790675282285     0.294305563752
    H           -1.941361533296     1.738807676552    -1.357550794503
    H           -1.319457628575     2.553594568411     0.047403312564
    C           -4.033728080661     3.064873167966    -0.126765269052
    H           -3.886542035211     0.926788480883    -0.023952999443
    H           -3.265181673522     1.743718924502     1.379026934699
    H           -4.124730069956     3.124819376658    -1.206283125609
    H           -5.032903986772     3.105646987692     0.291608471777
    H           -3.499070278830     3.947738111112     0.207711616846

  Mulliken Charges: (a.u.)
   Center  Symbol    Alpha    Beta     Spin     Total
       1     H     0.39221  0.39221  0.00000  0.21558
       2     O     4.20586  4.20586  0.00000 -0.41173
       3     C     2.98008  2.98008  0.00000  0.03984
       4     C     3.08885  3.08885  0.00000 -0.17769
       5     H     0.44854  0.44854  0.00000  0.10292
       6     H     0.46981  0.46981  0.00000  0.06038
       7     C     3.10192  3.10192  0.00000 -0.20384
       8     H     0.45094  0.45094  0.00000  0.09813
       9     H     0.45601  0.45601  0.00000  0.08798
      10     C     3.08930  3.08930  0.00000 -0.17860
      11     H     0.45752  0.45752  0.00000  0.08496
      12     H     0.45376  0.45376  0.00000  0.09247
      13     C     3.08865  3.08865  0.00000 -0.17729
      14     H     0.45261  0.45261  0.00000  0.09479
      15     H     0.45418  0.45418  0.00000  0.09163
      16     C     3.08654  3.08654  0.00000 -0.17308
      17     H     0.45535  0.45535  0.00000  0.08930
      18     H     0.45474  0.45474  0.00000  0.09051
      19     C     3.08428  3.08428  0.00000 -0.16856
      20     H     0.45518  0.45518  0.00000  0.08963
      21     H     0.45486  0.45486  0.00000  0.09027
      22     C     3.15039  3.15039  0.00000 -0.30078
      23     H     0.45496  0.45496  0.00000  0.09009
      24     H     0.45472  0.45472  0.00000  0.09057
      25     H     0.45525  0.45525  0.00000  0.08950
      26     H     0.44845  0.44845  0.00000  0.10309
      27     H     0.45504  0.45504  0.00000  0.08991

   Total alpha = 37.00000, Total beta = 37.00000, Total charge = -0.00000

*** Psi4 exiting successfully. Buy a developer a beer!
