  ==> Input File <==

--------------------------------------------------------------------------
set {
	reference rhf
	basis 6-31G*
}

set_num_threads( 4 )
memory 2 gb

molecule MOL {
0 1

O	 -1.276010	 1.052711	 -0.768302
C	 -1.204840	 0.067374	 -0.106123
C	 -2.388195	 -0.672128	 0.458071
O	 -0.067104	 -0.527208	 0.221609
H	 -2.388023	 -1.694060	 0.097175
H	 -3.300579	 -0.174919	 0.164318
H	 -2.315377	 -0.706351	 1.539059
C	 1.170111	 0.034140	 -0.238951
C	 0.844155	 0.754378	 -1.535330
C	 2.201479	 -1.069636	 -0.413891
H	 1.511816	 0.738935	 0.504694
H	 0.095250	 1.520540	 -1.369847
H	 1.735542	 1.226864	 -1.934729
H	 0.463692	 0.058533	 -2.275397
H	 3.133304	 -0.654306	 -0.784322
H	 2.402262	 -1.560586	 0.529841
H	 1.849106	 -1.808266	 -1.126819

	symmetry c1
}
set optking {
	frozen_dihedral = ("
		11 8 4 2
	")
}

ee = optimize('scf')
oeprop('DIPOLE', 'QUADRUPOLE', 'MULLIKEN_CHARGES')
f=open( 'psi4out.xyz', 'w' )
f.write( "17  " )
f.write( str(ee) + "\n" )
f.write( MOL.save_string_xyz() )
f.close()
--------------------------------------------------------------------------

    Molecular point group: c1
  Charge       = 0
  Multiplicity = 1
  Basis Set: 6-31G*
  Basis Set:
  @DF-RHF Final Energy:  -344.86062477473388
    Total Energy =                       -344.8606247747337648
    Molecular point group: c1
  Basis Set: 6-31G*
  Basis Set:
  Basis Set: 6-31G*
  Basis Set:
  @DF-RHF Final Energy:  -344.89552107492170
    Total Energy =                       -344.8955210749216462
  Basis Set: 6-31G*
  Basis Set:
  Basis Set: 6-31G*
  Basis Set:
  @DF-RHF Final Energy:  -344.90293737166201
    Total Energy =                       -344.9029373716622899
  Basis Set: 6-31G*
  Basis Set:
  Basis Set: 6-31G*
  Basis Set:
  @DF-RHF Final Energy:  -344.90192200278534
    Total Energy =                       -344.9019220027854544
  Basis Set: 6-31G*
  Basis Set:
  @DF-RHF Final Energy:  -344.90586891211689
    Total Energy =                       -344.9058689121166026
  @DF-RHF Final Energy:  -344.90637481755624
    Total Energy =                       -344.9063748175560704
  Basis Set: 6-31G*
  Basis Set:
  @DF-RHF Final Energy:  -344.90641536477943
    Total Energy =                       -344.9064153647796616
  Basis Set: 6-31G*
  Basis Set:
  Basis Set: 6-31G*
  Basis Set:
  @DF-RHF Final Energy:  -344.90642354130711
    Total Energy =                       -344.9064235413072765
  Basis Set: 6-31G*
  Basis Set:
  Basis Set: 6-31G*
  Basis Set:
  @DF-RHF Final Energy:  -344.90642617308879
    Total Energy =                       -344.9064261730887324
  Basis Set: 6-31G*
  Basis Set:
  Charge       = 0
  Multiplicity = 1
  Basis Set: 6-31G*
  Basis Set:

    Orbital Energies (a.u.)
    -----------------------

    Doubly Occupied:

       1A    -20.597068     2A    -20.541031     3A    -11.374731
       4A    -11.296196     5A    -11.230564     6A    -11.219372
       7A    -11.213464     8A     -1.460655     9A     -1.361580
      10A     -1.079977    11A     -1.003363    12A     -0.946359
      13A     -0.857751    14A     -0.749702    15A     -0.689388
      16A     -0.678233    17A     -0.656632    18A     -0.614580
      19A     -0.585476    20A     -0.578875    21A     -0.552587
      22A     -0.547410    23A     -0.543708    24A     -0.516945
      25A     -0.501271    26A     -0.485705    27A     -0.444283
      28A     -0.428858

  @DF-RHF Final Energy:  -344.90642663186054

   => Energetics <=

    Nuclear Repulsion Energy =            323.6042246175974242
    One-Electron Energy =               -1111.5097753860736702
    Two-Electron Energy =                 442.9991241366157624
    DFT Exchange-Correlation Energy =       0.0000000000000000
    Empirical Dispersion Energy =           0.0000000000000000
    PCM Polarization Energy =               0.0000000000000000
    EFP Energy =                            0.0000000000000000
    Total Energy =                       -344.9064266318604837
    Molecular point group: c1
  Basis Set: 6-31G*
  Basis Set:

  -Total Gradient:
     Atom            X                  Y                   Z
    ------   -----------------  -----------------  -----------------
       1       -0.000016866745    -0.000027640985     0.000045477410
       2       -0.000637956278    -0.003252468246    -0.004788306298
       3        0.000006620533    -0.000028502004    -0.000059760405
       4        0.001627165657     0.004043518667     0.007867694640
       5        0.000006738092    -0.000000423962     0.000023398430
       6        0.000001286306     0.000005436093     0.000004424561
       7        0.000001190345     0.000023584728     0.000016940935
       8       -0.004135663735     0.003683227991    -0.005731300740
       9       -0.000013964398     0.000078312919    -0.000029575236
      10       -0.000002660111     0.000014182129     0.000008075066
      11        0.003122975328    -0.004480184878     0.002649649284
      12        0.000036116400    -0.000045685388    -0.000018144216
      13       -0.000009569377    -0.000006799586     0.000010109972
      14        0.000001689295     0.000020877930     0.000004138629
      15        0.000007771229    -0.000007394815    -0.000000705195
      16        0.000006228845    -0.000012143472     0.000000186886
      17       -0.000001101383    -0.000007897122    -0.000002303723

  **** Optimization is complete! (in 10 steps) ****
    Final optimized geometry and variables:
    Molecular point group: c1

    Geometry (in Angstrom), charge = 0, multiplicity = 1:

    O           -1.362407668615     1.200068529464    -0.147422294599
    C           -1.144899876978     0.129704098204     0.320042685206
    C           -2.213501674957    -0.811944664321     0.812121784268
    O            0.057381001698    -0.391318495324     0.512794249079
    H           -2.159476193051    -1.746235850736     0.265244171044
    H           -3.184651350124    -0.359349141454     0.677764411643
    H           -2.049575412703    -1.035768387827     1.859848397370
    C            1.280101670667     0.146931168778    -0.020374159322
    C            1.164054584431     0.798228694361    -1.391355834072
    C            2.224825502742    -1.048007476867    -0.050337003492
    H            1.658868487348     0.844705805050     0.717190930310
    H            0.606594532031     1.719626009221    -1.368223792922
    H            2.166581491310     1.002009065330    -1.754281994115
    H            0.686739944017     0.122168286311    -2.093867426950
    H            3.224498315645    -0.729713217430    -0.326729157017
    H            2.271625504623    -1.520490842754     0.923746348229
    H            1.885660931450    -1.784491203948    -0.771317072871

  Mulliken Charges: (a.u.)
   Center  Symbol    Alpha    Beta     Spin     Total
       1     O     4.28381  4.28381  0.00000 -0.56763
       2     C     2.61543  2.61543  0.00000  0.76915
       3     C     3.28051  3.28051  0.00000 -0.56102
       4     O     4.32124  4.32124  0.00000 -0.64248
       5     H     0.40264  0.40264  0.00000  0.19473
       6     H     0.39806  0.39806  0.00000  0.20388
       7     H     0.40079  0.40079  0.00000  0.19842
       8     C     2.91389  2.91389  0.00000  0.17222
       9     C     3.25819  3.25819  0.00000 -0.51638
      10     C     3.24235  3.24235  0.00000 -0.48470
      11     H     0.41285  0.41285  0.00000  0.17430
      12     H     0.38821  0.38821  0.00000  0.22357
      13     H     0.41926  0.41926  0.00000  0.16148
      14     H     0.41777  0.41777  0.00000  0.16447
      15     H     0.41864  0.41864  0.00000  0.16273
      16     H     0.41041  0.41041  0.00000  0.17917
      17     H     0.41596  0.41596  0.00000  0.16808

   Total alpha = 28.00000, Total beta = 28.00000, Total charge =  0.00000
