  ==> Input File <==

--------------------------------------------------------------------------
set {
	reference rhf
	basis cc-pvtz
}

set_num_threads( 4 )
memory 2 gb

molecule MOL {
0 1

H	 -3.498818	 -0.133246	 -0.762012
O	 -3.103022	 -0.240745	 0.084242
C	 -1.772068	 -0.086824	 0.023690
C	 -1.115173	 0.195131	 -1.167707
C	 -1.058116	 -0.219175	 1.203071
H	 -1.675949	 0.296344	 -2.078593
C	 0.251479	 0.343196	 -1.173579
H	 -1.584058	 -0.436745	 2.110853
C	 0.309957	 -0.067933	 1.180148
H	 0.770055	 0.560827	 -2.086172
C	 0.981121	 0.213562	 0.000000
H	 0.864852	 -0.170401	 2.094539
C	 2.447402	 0.371303	 0.000000
O	 3.227427	 -0.521847	 0.000000
H	 2.796538	 1.409525	 0.000000

	symmetry c1
}
set optking {
	frozen_dihedral = ("
		7 11 13 14
	")
}

ee = optimize('scf')
oeprop('DIPOLE', 'QUADRUPOLE', 'MULLIKEN_CHARGES')
f=open( 'psi4out.xyz', 'w' )
f.write( "15  " )
f.write( str(ee) + "\n" )
f.write( MOL.save_string_xyz() )
f.close()
--------------------------------------------------------------------------

    Molecular point group: c1
  Charge       = 0
  Multiplicity = 1
  Basis Set: CC-PVTZ
  Basis Set:
  @DF-RHF Final Energy:  -418.42687204548332
    Total Energy =                       -418.4268720454831509
    Molecular point group: c1
  Basis Set: CC-PVTZ
  Basis Set:
  Basis Set: CC-PVTZ
  Basis Set:
  @DF-RHF Final Energy:  -418.42733558973396
    Total Energy =                       -418.4273355897333886
  Basis Set: CC-PVTZ
  Basis Set:
  Basis Set: CC-PVTZ
  Basis Set:
  @DF-RHF Final Energy:  -418.42653417753706
    Total Energy =                       -418.4265341775366096
  Basis Set: CC-PVTZ
  Basis Set:
  Basis Set: CC-PVTZ
  Basis Set:
  @DF-RHF Final Energy:  -418.42762266972829
    Total Energy =                       -418.4276226697279526
  Basis Set: CC-PVTZ
  Basis Set:
  Basis Set: CC-PVTZ
  Basis Set:
  @DF-RHF Final Energy:  -418.42762827377305
    Total Energy =                       -418.4276282737732799
  Basis Set: CC-PVTZ
  Basis Set:
  Charge       = 0
  Multiplicity = 1
  Basis Set: CC-PVTZ
  Basis Set:

    Orbital Energies (a.u.)
    -----------------------

    Doubly Occupied:

       1A    -20.596387     2A    -20.561405     3A    -11.330628
       4A    -11.311365     5A    -11.253277     6A    -11.250380
       7A    -11.242057     8A    -11.240577     9A    -11.234451
      10A     -1.428096    11A     -1.415454    12A     -1.172377
      13A     -1.041423    14A     -1.038158    15A     -0.890790
      16A     -0.861952    17A     -0.804782    18A     -0.756695
      19A     -0.708592    20A     -0.682810    21A     -0.657869
      22A     -0.630991    23A     -0.607647    24A     -0.607312
      25A     -0.594600    26A     -0.564658    27A     -0.534763
      28A     -0.505268    29A     -0.498386    30A     -0.425410
      31A     -0.358265    32A     -0.328174

  @DF-RHF Final Energy:  -418.42762910584486

   => Energetics <=

    Nuclear Repulsion Energy =            401.2900922543566367
    One-Electron Energy =               -1365.1654442370047491
    Two-Electron Energy =                 545.4477228768034820
    DFT Exchange-Correlation Energy =       0.0000000000000000
    Empirical Dispersion Energy =           0.0000000000000000
    PCM Polarization Energy =               0.0000000000000000
    EFP Energy =                            0.0000000000000000
    Total Energy =                       -418.4276291058446304
    Molecular point group: c1
  Basis Set: CC-PVTZ
  Basis Set:

  -Total Gradient:
     Atom            X                  Y                   Z
    ------   -----------------  -----------------  -----------------
       1        0.000001518119     0.000010276334     0.000001773086
       2       -0.000022919996     0.000025856988    -0.000017603742
       3        0.000047508647    -0.000131516177     0.000148263096
       4        0.000092106041     0.000044544700    -0.000052032165
       5       -0.000178815932     0.000021256383    -0.000079418153
       6       -0.000006411793    -0.000000406173     0.000002371162
       7        0.000171256804    -0.002841368781    -0.000516343324
       8        0.000015686565    -0.000004261135     0.000007112407
       9        0.000165384058     0.000070206464    -0.000083281476
      10       -0.000003854047    -0.000000613589     0.000011585963
      11       -0.000383455181     0.004137652214    -0.000755206589
      12       -0.000014404882    -0.000005091942    -0.000000143606
      13        0.000227682193    -0.001291319657     0.004852544398
      14       -0.000078168092    -0.000019106611    -0.003525714432
      15       -0.000033112502    -0.000016109017     0.000006093371

  **** Optimization is complete! (in 6 steps) ****
    Final optimized geometry and variables:
    Molecular point group: c1

    Geometry (in Angstrom), charge = 0, multiplicity = 1:

    H           -3.504072963953    -0.146538718249    -0.785392719189
    O           -3.111955481041    -0.242176345485     0.063748618977
    C           -1.777180776008    -0.076385346061     0.004451859778
    C           -1.115872171036     0.210044022966    -1.175409050709
    C           -1.062374178418    -0.204048423787     1.183604778035
    H           -1.665414364657     0.300845555762    -2.094371177882
    C            0.255923863998     0.375465835284    -1.171552422825
    H           -1.586897216542    -0.432817374779     2.089950176358
    C            0.305698770998    -0.047933783718     1.172876480443
    H            0.758083183824     0.596016853164    -2.095158443766
    C            0.978018827096     0.253227205258    -0.001138218875
    H            0.854916178032    -0.166717811565     2.087602233846
    C            2.470263165742     0.387410289650    -0.016646076154
    O            3.214903856353    -0.529674664934    -0.006275079372
    H            2.860865471419     1.409336880078    -0.069380276383

  Mulliken Charges: (a.u.)
   Center  Symbol    Alpha    Beta     Spin     Total
       1     H     0.38667  0.38667  0.00000  0.22667
       2     O     4.17041  4.17041  0.00000 -0.34081
       3     C     2.85647  2.85647  0.00000  0.28707
       4     C     3.12470  3.12470  0.00000 -0.24939
       5     C     3.09855  3.09855  0.00000 -0.19709
       6     H     0.43231  0.43231  0.00000  0.13538
       7     C     3.08509  3.08509  0.00000 -0.17018
       8     H     0.41725  0.41725  0.00000  0.16549
       9     C     3.07694  3.07694  0.00000 -0.15388
      10     H     0.42271  0.42271  0.00000  0.15458
      11     C     2.95864  2.95864  0.00000  0.08271
      12     H     0.42008  0.42008  0.00000  0.15985
      13     C     2.93628  2.93628  0.00000  0.12745
      14     O     4.15568  4.15568  0.00000 -0.31136
      15     H     0.45824  0.45824  0.00000  0.08352

   Total alpha = 32.00000, Total beta = 32.00000, Total charge = -0.00000
