  ==> Input File <==

--------------------------------------------------------------------------
set {
	reference rhf
	basis cc-pvtz
}

set_num_threads( 4 )
memory 2 gb

molecule MOL {
0 1

H	 -2.698799	 -0.000846	 0.036018
C	 -1.694291	 -0.000483	 0.434279
O	 -0.828718	 -0.000608	 -0.655022
H	 -1.576855	 0.881100	 1.056504
H	 -1.576401	 -0.881658	 1.057001
C	 -1.312588	 -0.422393	 -1.906359
C	 -1.728077	 -1.889236	 -1.909465
C	 -2.406473	 0.490281	 -2.449213
H	 -0.448997	 -0.322642	 -2.552021
H	 -0.944636	 -2.503839	 -1.483387
H	 -1.904031	 -2.219152	 -2.926786
H	 -2.640410	 -2.058055	 -1.349349
H	 -2.093477	 1.525852	 -2.397527
H	 -2.607186	 0.246808	 -3.486136
H	 -3.336755	 0.384676	 -1.903353

	symmetry c1
}
set optking {
	frozen_dihedral = ("
		6 3 2 1
	")
}

ee = optimize('scf')
oeprop('DIPOLE', 'QUADRUPOLE', 'MULLIKEN_CHARGES')
f=open( 'psi4out.xyz', 'w' )
f.write( "15  " )
f.write( str(ee) + "\n" )
f.write( MOL.save_string_xyz() )
f.close()
--------------------------------------------------------------------------

    Molecular point group: c1
  Charge       = 0
  Multiplicity = 1
  Basis Set: CC-PVTZ
  Basis Set:
  @DF-RHF Final Energy:  -232.22209067278180
    Total Energy =                       -232.2220906727818601
    Molecular point group: c1
  Basis Set: CC-PVTZ
  Basis Set:
  Basis Set: CC-PVTZ
  Basis Set:
  @DF-RHF Final Energy:  -232.22369091287058
    Total Energy =                       -232.2236909128706657
  Basis Set: CC-PVTZ
  Basis Set:
  Basis Set: CC-PVTZ
  Basis Set:
  @DF-RHF Final Energy:  -232.22446250577099
    Total Energy =                       -232.2244625057709868
  Basis Set: CC-PVTZ
  Basis Set:
  Basis Set: CC-PVTZ
  Basis Set:
  @DF-RHF Final Energy:  -232.22448170419656
    Total Energy =                       -232.2244817041967053
  Basis Set: CC-PVTZ
  Basis Set:
  Basis Set: CC-PVTZ
  Basis Set:
  @DF-RHF Final Energy:  -232.22448925954095
    Total Energy =                       -232.2244892595409738
  Basis Set: CC-PVTZ
  Basis Set:
  Basis Set: CC-PVTZ
  Basis Set:
  @DF-RHF Final Energy:  -232.22449208772895
    Total Energy =                       -232.2244920877289474
  Basis Set: CC-PVTZ
  Basis Set:
  Charge       = 0
  Multiplicity = 1
  Basis Set: CC-PVTZ
  Basis Set:

    Orbital Energies (a.u.)
    -----------------------

    Doubly Occupied:

       1A    -20.539964     2A    -11.273128     3A    -11.258949
       4A    -11.209089     5A    -11.208206     6A     -1.371732
       7A     -1.051073     8A     -0.940511     9A     -0.931585
      10A     -0.781777    11A     -0.677176    12A     -0.640677
      13A     -0.633815    14A     -0.570900    15A     -0.563643
      16A     -0.552896    17A     -0.537270    18A     -0.501009
      19A     -0.498431    20A     -0.443934    21A     -0.406468

  @DF-RHF Final Energy:  -232.22449218150999

   => Energetics <=

    Nuclear Repulsion Energy =            198.9444783475636029
    One-Electron Energy =                -709.1534724608941360
    Two-Electron Energy =                 277.9845019318204322
    DFT Exchange-Correlation Energy =       0.0000000000000000
    Empirical Dispersion Energy =           0.0000000000000000
    PCM Polarization Energy =               0.0000000000000000
    EFP Energy =                            0.0000000000000000
    Total Energy =                       -232.2244921815100724
    Molecular point group: c1
  Basis Set: CC-PVTZ
  Basis Set:

  -Total Gradient:
     Atom            X                  Y                   Z
    ------   -----------------  -----------------  -----------------
       1        0.000116041178    -0.001781710213     0.000009671589
       2       -0.000414000385     0.002962864885    -0.000157229002
       3        0.000784211327    -0.002498736905     0.000446629910
       4        0.000004159366     0.000001395012     0.000001135992
       5        0.000001436245     0.000002551464     0.000005150433
       6       -0.000477477686     0.001337169636    -0.000252531596
       7       -0.000007571240    -0.000007855534    -0.000033036869
       8        0.000007966891    -0.000004121064     0.000003207551
       9       -0.000012859550    -0.000007677897    -0.000009208090
      10        0.000002629068     0.000008457583    -0.000004370400
      11       -0.000005849871    -0.000015165368     0.000001007985
      12       -0.000001477128     0.000007930703     0.000000270528
      13        0.000000642898     0.000001230685     0.000000010063
      14        0.000006081953    -0.000003417220    -0.000008547990
      15       -0.000003933066    -0.000002915766    -0.000002160105

  **** Optimization is complete! (in 7 steps) ****
    Final optimized geometry and variables:
    Molecular point group: c1

    Geometry (in Angstrom), charge = 0, multiplicity = 1:

    H           -1.147620604009     0.248192690374     1.440567610309
    C           -0.104042531027     0.319274617342     1.721136899896
    O            0.753454815034     0.388730997129     0.623271579795
    H            0.030981802516     1.212123347166     2.317092118704
    H            0.131259977048    -0.543530019377     2.337020707778
    C            0.298508067729    -0.053651370756    -0.631234376052
    C           -0.118851716488    -1.519647196598    -0.615838275316
    C           -0.777001951566     0.858295626535    -1.210835605112
    H            1.175553992185     0.033598435824    -1.260408182130
    H            0.673273774942    -2.131528113720    -0.201894165960
    H           -0.320376291739    -1.860561098692    -1.624774508821
    H           -1.016367699312    -1.680459882162    -0.029303581618
    H           -0.443231754122     1.888223009976    -1.189738538640
    H           -0.978004954809     0.585474475017    -2.240647550064
    H           -1.712034605192     0.790893488958    -0.667075856050

  Mulliken Charges: (a.u.)
   Center  Symbol    Alpha    Beta     Spin     Total
       1     H     0.46955  0.46955  0.00000  0.06090
       2     C     3.03940  3.03940  0.00000 -0.07880
       3     O     4.18674  4.18674  0.00000 -0.37347
       4     H     0.44736  0.44736  0.00000  0.10528
       5     H     0.46012  0.46012  0.00000  0.07977
       6     C     2.93906  2.93906  0.00000  0.12189
       7     C     3.15611  3.15611  0.00000 -0.31221
       8     C     3.15428  3.15428  0.00000 -0.30857
       9     H     0.44625  0.44625  0.00000  0.10749
      10     H     0.44478  0.44478  0.00000  0.11045
      11     H     0.44941  0.44941  0.00000  0.10118
      12     H     0.45563  0.45563  0.00000  0.08873
      13     H     0.44478  0.44478  0.00000  0.11044
      14     H     0.45105  0.45105  0.00000  0.09790
      15     H     0.45549  0.45549  0.00000  0.08901

   Total alpha = 21.00000, Total beta = 21.00000, Total charge = -0.00000
