                              Psi4 1.0.54 Driver

  ==> Input File <==

--------------------------------------------------------------------------
set {
	reference rhf
	basis cc-pvtz
}

set_num_threads( 4 )
memory 2 gb

molecule MOL {
0 1

H	 -3.434956	 -0.163192	 -0.288955
O	 -2.650478	 -0.690742	 -0.291136
C	 -1.600973	 0.114802	 -0.154852
C	 -0.306301	 -0.651906	 -0.151220
O	 -1.716714	 1.287264	 -0.055317
C	 0.926581	 0.227233	 0.000178
H	 -0.272008	 -1.224711	 -1.072332
H	 -0.370572	 -1.382841	 0.648355
C	 2.220156	 -0.582071	 -0.000088
H	 0.947932	 0.954901	 -0.803238
H	 0.849256	 0.796589	 0.919568
C	 3.466689	 0.296012	 -0.000457
H	 2.239073	 -1.234095	 -0.869382
H	 2.239505	 -1.233985	 0.869270
H	 3.493549	 0.935857	 -0.875887
H	 4.368821	 -0.304526	 -0.001199
H	 3.494559	 0.935166	 0.875458

	symmetry c1
}
set optking {
	frozen_dihedral = ("
		10 6 9 13
	")
}

ee,wfn = optimize('scf', return_wfn=True)
oeprop( wfn, 'DIPOLE', 'QUADRUPOLE', 'MULLIKEN_CHARGES')
f=open( 'psi4out.xyz', 'w' )
f.write( "17  " )
f.write( str(ee) + "\n" )
f.write( MOL.save_string_xyz() )
f.close()
--------------------------------------------------------------------------

    Molecular point group: c1
  Charge       = 0
  Multiplicity = 1
  Basis Set: CC-PVTZ
  Basis Set:
  @DF-RHF Final Energy:  -345.04877503868016
    Total Energy =                       -345.0487750386801054
    Molecular point group: c1
  Basis Set: CC-PVTZ
  Basis Set:
  Basis Set: CC-PVTZ
  Basis Set:
  @DF-RHF Final Energy:  -345.04876327094814
    Total Energy =                       -345.0487632709483705
  Basis Set: CC-PVTZ
  Basis Set:
  Basis Set: CC-PVTZ
  Basis Set:
  @DF-RHF Final Energy:  -345.04863807419986
    Total Energy =                       -345.0486380741997436
  Basis Set: CC-PVTZ
  Basis Set:
  Basis Set: CC-PVTZ
  Basis Set:
  @DF-RHF Final Energy:  -345.04880005750505
    Total Energy =                       -345.0488000575048773
  Basis Set: CC-PVTZ
  Basis Set:
  Basis Set: CC-PVTZ
  Basis Set:
  @DF-RHF Final Energy:  -345.04880237468421
    Total Energy =                       -345.0488023746844419
  Basis Set: CC-PVTZ
  Basis Set:
  Charge       = 0
  Multiplicity = 1
  Basis Set: CC-PVTZ
  Basis Set:

    Orbital Energies (a.u.)
    -----------------------

    Doubly Occupied:

       1A    -20.604187     2A    -20.540767     3A    -11.373758
       4A    -11.239510     5A    -11.221269     6A    -11.220639
       7A    -11.210806     8A     -1.477769     9A     -1.369292
      10A     -1.092889    11A     -1.019947    12A     -0.915028
      13A     -0.825122    14A     -0.791213    15A     -0.704002
      16A     -0.688266    17A     -0.671958    18A     -0.631005
      19A     -0.593457    20A     -0.585778    21A     -0.574523
      22A     -0.538915    23A     -0.509231    24A     -0.484784
      25A     -0.483614    26A     -0.478507    27A     -0.471814
      28A     -0.446394

  @DF-RHF Final Energy:  -345.04880243581465

   => Energetics <=

    Nuclear Repulsion Energy =            304.7847518878983237
    One-Electron Energy =               -1074.1382199876129562
    Two-Electron Energy =                 424.3046656638998684
    DFT Exchange-Correlation Energy =       0.0000000000000000
    Empirical Dispersion Energy =           0.0000000000000000
    PCM Polarization Energy =               0.0000000000000000
    EFP Energy =                            0.0000000000000000
    Total Energy =                       -345.0488024358147641
    Molecular point group: c1
  Basis Set: CC-PVTZ
  Basis Set:

  -Total Gradient:
     Atom            X                  Y                   Z
    ------   -----------------  -----------------  -----------------
       1        0.000003705069     0.000000373028     0.000000408427
       2        0.000002349733    -0.000002769843    -0.000001581449
       3       -0.000006286293     0.000000946996     0.000009113294
       4       -0.000004415179    -0.000004532227    -0.000006325017
       5        0.000003527579     0.000002154609    -0.000005193991
       6       -0.000764256527    -0.001230948752    -0.000777976875
       7       -0.000000570317    -0.000000660517    -0.000002524241
       8        0.000003634069     0.000006213473    -0.000004028283
       9        0.000805362727     0.001283636143    -0.000614855375
      10        0.000504492602     0.000820468774     0.000756616808
      11        0.000002271974     0.000001278304     0.000002009014
      12        0.000005453799     0.000005441553    -0.000005100034
      13       -0.000551288155    -0.000871968498     0.000651703999
      14        0.000001546541    -0.000003901184     0.000000424135
      15        0.000002776812    -0.000002219646     0.000001837228
      16       -0.000004377287     0.000002080818     0.000001613487
      17       -0.000003927145    -0.000005593027    -0.000006141127

  **** Optimization is complete! (in 6 steps) ****
    Final optimized geometry and variables:
    Molecular point group: c1

    Geometry (in Angstrom), charge = 0, multiplicity = 1:

    H           -3.439674840595    -0.168624063112    -0.161803187595
    O           -2.655137738597    -0.695940527190    -0.175083223912
    C           -1.604472595705     0.110126964982    -0.051067293986
    C           -0.309561302777    -0.656019542628    -0.063545920138
    O           -1.719722115274     1.282180871186     0.053483878820
    C            0.924286439718     0.223216975193     0.073442826854
    H           -0.286379395013    -1.228412542992    -0.985130979609
    H           -0.363653901619    -1.387152824837     0.736683895727
    C            2.218774507313    -0.585169150625     0.080734874293
    H            0.945689159976     0.948469820032    -0.732269728996
    H            0.851002743830     0.801415283956     0.987796286153
    C            3.465720444745     0.291296462123     0.096350144048
    H            2.243772776094    -1.241705354467    -0.785072931169
    H            2.227626805548    -1.238336597584     0.949552172393
    H            3.509966563327     0.923566757944    -0.783787007403
    H            4.367016163670    -0.310047237030     0.118389438616
    H            3.477280447429     0.937901950352     0.967199663185

  Mulliken Charges: (a.u.)
   Center  Symbol    Alpha    Beta     Spin     Total
       1     H     0.38243  0.38243  0.00000  0.23514
       2     O     4.15974  4.15974  0.00000 -0.31948
       3     C     2.80468  2.80468  0.00000  0.39064
       4     C     3.11084  3.11084  0.00000 -0.22167
       5     O     4.19109  4.19109  0.00000 -0.38217
       6     C     3.08218  3.08218  0.00000 -0.16436
       7     H     0.43807  0.43807  0.00000  0.12385
       8     H     0.43811  0.43811  0.00000  0.12377
       9     C     3.08596  3.08596  0.00000 -0.17193
      10     H     0.44672  0.44672  0.00000  0.10657
      11     H     0.44593  0.44593  0.00000  0.10814
      12     C     3.14913  3.14913  0.00000 -0.29825
      13     H     0.45551  0.45551  0.00000  0.08899
      14     H     0.45439  0.45439  0.00000  0.09122
      15     H     0.45376  0.45376  0.00000  0.09248
      16     H     0.44800  0.44800  0.00000  0.10400
      17     H     0.45347  0.45347  0.00000  0.09307

   Total alpha = 28.00000, Total beta = 28.00000, Total charge = -0.00000

*** Psi4 exiting successfully. Buy a developer a beer!
