  ==> Input File <==

--------------------------------------------------------------------------
set {
	reference rhf
	basis 6-31G*
}

set_num_threads( 4 )
memory 2 gb

molecule MOL {
0 1

H	 -3.892951	 0.981613	 -0.358725
C	 -3.196921	 0.361773	 0.172313
C	 -2.076860	 -0.007332	 -0.404944
H	 -3.439953	 0.057760	 1.173024
O	 -1.180634	 -0.819263	 0.215062
H	 -1.811520	 0.292194	 -1.403480
C	 0.051604	 -1.018856	 -0.387932
C	 1.043764	 0.054862	 -0.001873
H	 -0.017620	 -1.041351	 -1.469781
H	 0.437898	 -1.966374	 -0.042284
F	 0.597126	 0.705649	 1.062456
F	 2.224541	 -0.455825	 0.306014
F	 1.224773	 0.931834	 -0.967557

	symmetry c1
}
set optking {
	frozen_dihedral = ("
		11 8 7 9
	")
}

ee = optimize('scf')
oeprop('DIPOLE', 'QUADRUPOLE', 'MULLIKEN_CHARGES')
f=open( 'psi4out.xyz', 'w' )
f.write( "13  " )
f.write( str(ee) + "\n" )
f.write( MOL.save_string_xyz() )
f.close()
--------------------------------------------------------------------------

    Molecular point group: c1
  Charge       = 0
  Multiplicity = 1
  Basis Set: 6-31G*
  Basis Set:
  @DF-RHF Final Energy:  -527.52909345555759
    Total Energy =                       -527.5290934555573585
    Molecular point group: c1
  Basis Set: 6-31G*
  Basis Set:
  Basis Set: 6-31G*
  Basis Set:
  @DF-RHF Final Energy:  -527.53029889932191
    Total Energy =                       -527.5302988993220197
  Basis Set: 6-31G*
  Basis Set:
  Basis Set: 6-31G*
  Basis Set:
  @DF-RHF Final Energy:  -527.53062504303011
    Total Energy =                       -527.5306250430304544
  Basis Set: 6-31G*
  Basis Set:
  Basis Set: 6-31G*
  Basis Set:
  @DF-RHF Final Energy:  -527.53066020321614
    Total Energy =                       -527.5306602032160299
  Basis Set: 6-31G*
  Basis Set:
  Basis Set: 6-31G*
  Basis Set:
  @DF-RHF Final Energy:  -527.53066628087845
    Total Energy =                       -527.5306662808786768
  Basis Set: 6-31G*
  Basis Set:
  Basis Set: 6-31G*
  Basis Set:
  @DF-RHF Final Energy:  -527.53066835284721
    Total Energy =                       -527.5306683528469875
  Basis Set: 6-31G*
  Basis Set:
  Charge       = 0
  Multiplicity = 1
  Basis Set: 6-31G*
  Basis Set:

    Orbital Energies (a.u.)
    -----------------------

    Doubly Occupied:

       1A    -26.344167     2A    -26.341848     3A    -26.340412
       4A    -20.606615     5A    -11.504314     6A    -11.318648
       7A    -11.298793     8A    -11.216839     9A     -1.741697
      10A     -1.640546    11A     -1.635949    12A     -1.437030
      13A     -1.080179    14A     -1.015465    15A     -0.925171
      16A     -0.835850    17A     -0.830041    18A     -0.820872
      19A     -0.791515    20A     -0.720410    21A     -0.714206
      22A     -0.694796    23A     -0.674663    24A     -0.661376
      25A     -0.654457    26A     -0.641966    27A     -0.628898
      28A     -0.584664    29A     -0.562568    30A     -0.522997
      31A     -0.511757    32A     -0.352190

  @DF-RHF Final Energy:  -527.53066908788651

   => Energetics <=

    Nuclear Repulsion Energy =            413.8967483393554971
    One-Electron Energy =               -1551.5530323978109664
    Two-Electron Energy =                 610.1256149705689040
    DFT Exchange-Correlation Energy =       0.0000000000000000
    Empirical Dispersion Energy =           0.0000000000000000
    PCM Polarization Energy =               0.0000000000000000
    EFP Energy =                            0.0000000000000000
    Total Energy =                       -527.5306690878865084
    Molecular point group: c1
  Basis Set: 6-31G*
  Basis Set:

  -Total Gradient:
     Atom            X                  Y                   Z
    ------   -----------------  -----------------  -----------------
       1       -0.000014391537    -0.000016898731    -0.000011991337
       2       -0.000003974971    -0.000004263650     0.000002318912
       3        0.000046812754     0.000070492759     0.000030019481
       4       -0.000000090452    -0.000000751031    -0.000004860620
       5       -0.000103890842    -0.000009046574     0.000051402712
       6       -0.000013254572    -0.000018186494    -0.000005225273
       7        0.003507292262    -0.002577164765    -0.000931293288
       8        0.001679550519    -0.002547828067     0.003076132002
       9       -0.003282153368     0.002758308453     0.000120117202
      10        0.000003108452    -0.000037066289    -0.000021115538
      11       -0.001788896728     0.002300833023    -0.002239053924
      12       -0.000018001443    -0.000000383189     0.000021597749
      13       -0.000012110077     0.000081954555    -0.000088048079

  **** Optimization is complete! (in 7 steps) ****
    Final optimized geometry and variables:
    Molecular point group: c1

    Geometry (in Angstrom), charge = 0, multiplicity = 1:

    H           -3.804918518158     1.048803126056    -0.335791897302
    C           -3.157594715296     0.357674885060     0.168234612143
    C           -2.025204287419    -0.004871549251    -0.388856604312
    H           -3.459098871629    -0.023182019205     1.125902980143
    O           -1.188400871867    -0.903183594088     0.193012164990
    H           -1.703217158490     0.370690336124    -1.345182267188
    C            0.069831606139    -1.065088125010    -0.368697030021
    C            1.032649399420     0.064288286739     0.004894269150
    H            0.004447180392    -1.098495927123    -1.449954053199
    H            0.467962761350    -1.994449436196     0.006398038712
    F            0.626268654963     0.749848900894     1.049421408913
    F            2.237752919148    -0.416742559448     0.260882416127
    F            1.164395047241     0.926589663306    -0.997638050572

  Mulliken Charges: (a.u.)
   Center  Symbol    Alpha    Beta     Spin     Total
       1     H     0.40685  0.40685  0.00000  0.18631
       2     C     3.23326  3.23326  0.00000 -0.46651
       3     C     2.90131  2.90131  0.00000  0.19738
       4     H     0.40160  0.40160  0.00000  0.19680
       5     O     4.29823  4.29823  0.00000 -0.59645
       6     H     0.40532  0.40532  0.00000  0.18935
       7     C     3.07670  3.07670  0.00000 -0.15339
       8     C     2.45058  2.45058  0.00000  1.09883
       9     H     0.40131  0.40131  0.00000  0.19739
      10     H     0.38616  0.38616  0.00000  0.22768
      11     F     4.67152  4.67152  0.00000 -0.34305
      12     F     4.68212  4.68212  0.00000 -0.36423
      13     F     4.68505  4.68505  0.00000 -0.37010

   Total alpha = 32.00000, Total beta = 32.00000, Total charge =  0.00000
