                              Psi4 1.0.54 Driver

  ==> Input File <==

--------------------------------------------------------------------------
set {
	reference rhf
	basis cc-pvtz
}

set_num_threads( 4 )
memory 2 gb

molecule MOL {
0 1

O	 1.087924	 -0.289095	 0.382649
C	 0.029490	 0.077183	 0.000078
C	 -1.232113	 -0.748027	 0.000015
O	 -0.186493	 1.287134	 -0.488391
C	 -2.501422	 0.088592	 -0.000052
H	 -1.188777	 -1.400384	 -0.865133
H	 -1.188857	 -1.400312	 0.865225
H	 -2.548170	 0.725504	 -0.873205
H	 -3.371613	 -0.556398	 -0.000040
H	 -2.548215	 0.725571	 0.873047
C	 0.915905	 2.169730	 -0.546567
H	 1.313959	 2.348117	 0.441344
H	 0.540315	 3.088003	 -0.967912
H	 1.696389	 1.763868	 -1.172958

	symmetry c1
}
set optking {
	frozen_dihedral = ("
		4 2 3 6
	")
}

ee,wfn = optimize('scf', return_wfn=True)
oeprop( wfn, 'DIPOLE', 'QUADRUPOLE', 'MULLIKEN_CHARGES')
f=open( 'psi4out.xyz', 'w' )
f.write( "14  " )
f.write( str(ee) + "\n" )
f.write( MOL.save_string_xyz() )
f.close()
--------------------------------------------------------------------------

    Molecular point group: c1
  Charge       = 0
  Multiplicity = 1
  Basis Set: CC-PVTZ
  Basis Set:
  @DF-RHF Final Energy:  -305.98436332397011
    Total Energy =                       -305.9843633239701148
    Molecular point group: c1
  Basis Set: CC-PVTZ
  Basis Set:
  Basis Set: CC-PVTZ
  Basis Set:
  @DF-RHF Final Energy:  -305.84617217440632
    Total Energy =                       -305.8461721744061492
  Basis Set: CC-PVTZ
  Basis Set:
  Basis Set: CC-PVTZ
  Basis Set:
  @DF-RHF Final Energy:  -305.93763534581774
    Total Energy =                       -305.9376353458177391
  Basis Set: CC-PVTZ
  Basis Set:
  Basis Set: CC-PVTZ
  Basis Set:
  @DF-RHF Final Energy:  -305.98311593261224
    Total Energy =                       -305.9831159326121792
  Basis Set: CC-PVTZ
  Basis Set:
  @DF-RHF Final Energy:  -305.98492713986559
    Total Energy =                       -305.9849271398657038
  @DF-RHF Final Energy:  -305.98388721397293
    Total Energy =                       -305.9838872139724799
  Basis Set: CC-PVTZ
  Basis Set:
  @DF-RHF Final Energy:  -305.98534790646409
    Total Energy =                       -305.9853479064640851
  Basis Set: CC-PVTZ
  Basis Set:
  Basis Set: CC-PVTZ
  Basis Set:
  @DF-RHF Final Energy:  -305.98536513364127
    Total Energy =                       -305.9853651336410394
  Basis Set: CC-PVTZ
  Basis Set:
  Basis Set: CC-PVTZ
  Basis Set:
  @DF-RHF Final Energy:  -305.98536797373845
    Total Energy =                       -305.9853679737383345
  Basis Set: CC-PVTZ
  Basis Set:
  Charge       = 0
  Multiplicity = 1
  Basis Set: CC-PVTZ
  Basis Set:

    Orbital Energies (a.u.)
    -----------------------

    Doubly Occupied:

       1A    -20.599707     2A    -20.531007     3A    -11.365368
       4A    -11.279985     5A    -11.237365     6A    -11.220134
       7A     -1.474006     8A     -1.365093     9A     -1.067309
      10A     -0.976259    11A     -0.888258    12A     -0.777290
      13A     -0.697321    14A     -0.685481    15A     -0.675703
      16A     -0.622071    17A     -0.587428    18A     -0.562334
      19A     -0.548441    20A     -0.523722    21A     -0.517399
      22A     -0.499529    23A     -0.458853    24A     -0.437131

  @DF-RHF Final Energy:  -305.98536845342420

   => Energetics <=

    Nuclear Repulsion Energy =            248.8331530033340755
    One-Electron Energy =                -910.4426511884148567
    Two-Electron Energy =                 355.6241297316568080
    DFT Exchange-Correlation Energy =       0.0000000000000000
    Empirical Dispersion Energy =           0.0000000000000000
    PCM Polarization Energy =               0.0000000000000000
    EFP Energy =                            0.0000000000000000
    Total Energy =                       -305.9853684534240301
    Molecular point group: c1
  Basis Set: CC-PVTZ
  Basis Set:

  -Total Gradient:
     Atom            X                  Y                   Z
    ------   -----------------  -----------------  -----------------
       1       -0.000004407048    -0.000033178616     0.000052089774
       2        0.000247705067    -0.000524792529    -0.000402346135
       3        0.000041503379     0.000521524062    -0.000495693253
       4       -0.000211242440     0.000359023699     0.000318232830
       5       -0.000012293660    -0.000010013608     0.000024738897
       6       -0.000080342982    -0.000317546872     0.000507114242
       7       -0.000014542338    -0.000005775420     0.000008195930
       8        0.000010720655     0.000000299748    -0.000014807481
       9       -0.000002312231     0.000000634252    -0.000003430177
      10        0.000004700184    -0.000004362233     0.000001018764
      11        0.000026954655     0.000009170176     0.000019201405
      12        0.000003869602    -0.000000595216    -0.000005823788
      13       -0.000003452411     0.000005068089    -0.000007273103
      14       -0.000006860431     0.000000544469    -0.000001217905

  **** Optimization is complete! (in 10 steps) ****
    Final optimized geometry and variables:
    Molecular point group: c1

    Geometry (in Angstrom), charge = 0, multiplicity = 1:

    O            0.621775758188    -0.889431429208     1.225852620272
    C            0.065471537039    -0.360299460827     0.323846190215
    C           -1.345391430553    -0.698957152536    -0.096400909845
    O            0.629752432613     0.566515409648    -0.428133314455
    C           -2.091421510785     0.367709225979    -0.887846957561
    H           -1.270661516263    -1.616518040255    -0.672124390327
    H           -1.874032412605    -0.957425654178     0.810908044151
    H           -1.597924098989     0.585165532072    -1.824600513809
    H           -3.096153512086     0.025954493195    -1.104190422037
    H           -2.166371837703     1.292219880011    -0.328608007666
    C            1.964656455147     0.921573580395    -0.125758343040
    H            2.036346303243     1.308861220276     0.879483544331
    H            2.238763274076     1.681621298833    -0.839216315414
    H            2.616529902164     0.066150361893    -0.221363534330

  Mulliken Charges: (a.u.)
   Center  Symbol    Alpha    Beta     Spin     Total
       1     O     4.20280  4.20280  0.00000 -0.40561
       2     C     2.80536  2.80536  0.00000  0.38927
       3     C     3.08954  3.08954  0.00000 -0.17907
       4     O     4.14382  4.14382  0.00000 -0.28763
       5     C     3.14177  3.14177  0.00000 -0.28354
       6     H     0.44429  0.44429  0.00000  0.11143
       7     H     0.43574  0.43574  0.00000  0.12853
       8     H     0.44779  0.44779  0.00000  0.10441
       9     H     0.44924  0.44924  0.00000  0.10151
      10     H     0.45125  0.45125  0.00000  0.09750
      11     C     3.03514  3.03514  0.00000 -0.07029
      12     H     0.45332  0.45332  0.00000  0.09336
      13     H     0.44645  0.44645  0.00000  0.10710
      14     H     0.45349  0.45349  0.00000  0.09303

   Total alpha = 24.00000, Total beta = 24.00000, Total charge =  0.00000

*** Psi4 exiting successfully. Buy a developer a beer!
