  ==> Input File <==

--------------------------------------------------------------------------
set {
	reference rhf
	basis 6-31G*
}

set_num_threads( 1 )
memory 2 gb

molecule MOL {
0 1

H	 -2.798360	 -0.862255	 -0.071053
N	 -1.863561	 -0.715187	 0.256814
C	 -1.344686	 0.554728	 -0.219830
H	 -1.300452	 -1.461917	 -0.101532
C	 0.081427	 0.741154	 0.254071
H	 -1.362155	 0.656231	 -1.305829
H	 -1.952773	 1.354456	 0.191809
O	 0.874168	 -0.245412	 -0.342030
H	 0.444037	 1.730782	 -0.023037
H	 0.121165	 0.653424	 1.337565
C	 0.494866	 -1.549307	 -0.036158
H	 1.174508	 -2.217226	 -0.547695
H	 0.553622	 -1.740258	 1.033920
H	 -0.520294	 -1.756359	 -0.368406

	symmetry c1
}
set optking {
	frozen_dihedral = ("
		8 5 3 6,
		6 3 2 4,
		5 8 11 13
	")
}

ee = energy('scf')
oeprop('DIPOLE', 'QUADRUPOLE', 'MULLIKEN_CHARGES')
f=open( 'psi4out.xyz', 'w' )
f.write( "14  " )
f.write( str(ee) + "\n" )
f.write( MOL.save_string_xyz() )
f.close()
--------------------------------------------------------------------------

    Molecular point group: c1

    Geometry (in Angstrom), charge = 0, multiplicity = 1:

       Center              X                  Y                   Z               Mass
    ------------   -----------------  -----------------  -----------------  -----------------
           H         -2.438436360510    -0.587134094351    -0.047731916301     1.007825032070
           N         -1.503637360510    -0.440066094351     0.280135083699    14.003074004780
           C         -0.984762360510     0.829848905649    -0.196508916301    12.000000000000
           H         -0.940528360510    -1.186796094351    -0.078210916301     1.007825032070
           C          0.441350639490     1.016274905649     0.277392083699    12.000000000000
           H         -1.002231360510     0.931351905649    -1.282507916301     1.007825032070
           H         -1.592849360510     1.629576905649     0.215130083699     1.007825032070
           O          1.234091639490     0.029708905649    -0.318708916301    15.994914619560
           H          0.803960639490     2.005902905649     0.000284083699     1.007825032070
           H          0.481088639490     0.928544905649     1.360886083699     1.007825032070
           C          0.854789639490    -1.274186094351    -0.012836916301    12.000000000000
           H          1.534431639490    -1.942105094351    -0.524373916301     1.007825032070
           H          0.913545639490    -1.465137094351     1.057241083699     1.007825032070
           H         -0.160370360510    -1.481238094351    -0.345084916301     1.007825032070

  Charge       = 0
  Multiplicity = 1
  Basis Set: 6-31G*
  Basis Set:

    Orbital Energies (a.u.)
    -----------------------

    Doubly Occupied:

       1A    -20.558946     2A    -15.523775     3A    -11.267927
       4A    -11.265668     5A    -11.242454     6A     -1.387236
       7A     -1.192593     8A     -1.020105     9A     -0.910446
      10A     -0.840127    11A     -0.738832    12A     -0.680421
      13A     -0.637994    14A     -0.597310    15A     -0.593356
      16A     -0.568587    17A     -0.541301    18A     -0.509881
      19A     -0.454778    20A     -0.401509    21A     -0.379571

  @DF-RHF Final Energy:  -248.02665445282193

   => Energetics <=

    Nuclear Repulsion Energy =            204.7016666655872825
    One-Electron Energy =                -742.8308611687619987
    Two-Electron Energy =                 290.1025400503530705
    DFT Exchange-Correlation Energy =       0.0000000000000000
    Empirical Dispersion Energy =           0.0000000000000000
    PCM Polarization Energy =               0.0000000000000000
    EFP Energy =                            0.0000000000000000
    Total Energy =                       -248.0266544528216741

  Mulliken Charges: (a.u.)
   Center  Symbol    Alpha    Beta     Spin     Total
       1     H     0.33526  0.33526  0.00000  0.32947
       2     N     3.93125  3.93125  0.00000 -0.86251
       3     C     3.08003  3.08003  0.00000 -0.16007
       4     H     0.30981  0.30981  0.00000  0.38037
       5     C     2.99821  2.99821  0.00000  0.00358
       6     H     0.42548  0.42548  0.00000  0.14904
       7     H     0.41911  0.41911  0.00000  0.16178
       8     O     4.30440  4.30440  0.00000 -0.60880
       9     H     0.41336  0.41336  0.00000  0.17328
      10     H     0.42118  0.42118  0.00000  0.15765
      11     C     3.07404  3.07404  0.00000 -0.14808
      12     H     0.41140  0.41140  0.00000  0.17721
      13     H     0.41821  0.41821  0.00000  0.16359
      14     H     0.45826  0.45826  0.00000  0.08349

   Total alpha = 21.00000, Total beta = 21.00000, Total charge = -0.00000
