                              Psi4 1.0.54 Driver

  ==> Input File <==

--------------------------------------------------------------------------
set {
	reference rhf
	basis cc-pvtz
}

set_num_threads( 4 )
memory 2 gb

molecule MOL {
0 1

H	 -2.510261	 1.398953	 0.987346
O	 -1.682194	 0.945013	 1.031636
C	 -1.605397	 0.107680	 0.001145
C	 -0.310616	 -0.658853	 0.000791
O	 -2.474958	 0.006981	 -0.793647
C	 0.926581	 0.227233	 0.000178
H	 -0.327628	 -1.313681	 -0.864448
H	 -0.327041	 -1.313334	 0.866298
C	 2.220156	 -0.582071	 -0.000088
H	 0.899945	 0.878221	 -0.866390
H	 0.900542	 0.878581	 0.866486
C	 3.466689	 0.296012	 -0.000457
H	 2.239073	 -1.234095	 -0.869382
H	 2.239505	 -1.233985	 0.869270
H	 3.493549	 0.935857	 -0.875887
H	 4.368821	 -0.304526	 -0.001199
H	 3.494559	 0.935166	 0.875458

	symmetry c1
}
set optking {
	frozen_dihedral = ("
		2 3 4 7
	")
}

ee,wfn = optimize('scf', return_wfn=True)
oeprop( wfn, 'DIPOLE', 'QUADRUPOLE', 'MULLIKEN_CHARGES')
f=open( 'psi4out.xyz', 'w' )
f.write( "17  " )
f.write( str(ee) + "\n" )
f.write( MOL.save_string_xyz() )
f.close()
--------------------------------------------------------------------------

    Molecular point group: c1
  Charge       = 0
  Multiplicity = 1
  Basis Set: CC-PVTZ
  Basis Set:
  @DF-RHF Final Energy:  -345.04717541095414
    Total Energy =                       -345.0471754109539688
    Molecular point group: c1
  Basis Set: CC-PVTZ
  Basis Set:
  Basis Set: CC-PVTZ
  Basis Set:
  @DF-RHF Final Energy:  -345.04741700561374
    Total Energy =                       -345.0474170056137382
  Basis Set: CC-PVTZ
  Basis Set:
  Basis Set: CC-PVTZ
  Basis Set:
  @DF-RHF Final Energy:  -345.04687078288703
    Total Energy =                       -345.0468707828871402
  Basis Set: CC-PVTZ
  Basis Set:
  Basis Set: CC-PVTZ
  Basis Set:
  @DF-RHF Final Energy:  -345.04750543600773
    Total Energy =                       -345.0475054360081231
  Basis Set: CC-PVTZ
  Basis Set:
  Basis Set: CC-PVTZ
  Basis Set:
  @DF-RHF Final Energy:  -345.04750968393438
    Total Energy =                       -345.0475096839342086
  Basis Set: CC-PVTZ
  Basis Set:
  Charge       = 0
  Multiplicity = 1
  Basis Set: CC-PVTZ
  Basis Set:

    Orbital Energies (a.u.)
    -----------------------

    Doubly Occupied:

       1A    -20.604567     2A    -20.539159     3A    -11.372613
       4A    -11.238213     5A    -11.229549     6A    -11.224389
       7A    -11.214075     8A     -1.477326     9A     -1.367894
      10A     -1.096304    11A     -1.021067    12A     -0.911456
      13A     -0.825044    14A     -0.808686    15A     -0.705051
      16A     -0.684678    17A     -0.657243    18A     -0.639520
      19A     -0.590890    20A     -0.586222    21A     -0.580952
      22A     -0.537790    23A     -0.515598    24A     -0.498417
      25A     -0.487542    26A     -0.478025    27A     -0.475894
      28A     -0.437520

  @DF-RHF Final Energy:  -345.04750991556369

   => Energetics <=

    Nuclear Repulsion Energy =            305.4748335680677087
    One-Electron Energy =               -1075.4333228135042191
    Two-Electron Energy =                 424.9109793298729301
    DFT Exchange-Correlation Energy =       0.0000000000000000
    Empirical Dispersion Energy =           0.0000000000000000
    PCM Polarization Energy =               0.0000000000000000
    EFP Energy =                            0.0000000000000000
    Total Energy =                       -345.0475099155636372
    Molecular point group: c1
  Basis Set: CC-PVTZ
  Basis Set:

  -Total Gradient:
     Atom            X                  Y                   Z
    ------   -----------------  -----------------  -----------------
       1       -0.000002190804    -0.000003201470    -0.000000659168
       2        0.000245473690     0.000363274381    -0.000281931269
       3       -0.000259462247    -0.000405046207     0.000330085214
       4       -0.000215355016    -0.000340692605     0.000300447306
       5       -0.000009861855    -0.000006988824    -0.000019510384
       6       -0.000022634283    -0.000025256776     0.000016871081
       7        0.000261217150     0.000418955278    -0.000334852549
       8       -0.000004228676    -0.000004760370    -0.000000163530
       9        0.000011468474    -0.000001360573    -0.000016842263
      10        0.000008654772    -0.000004802273     0.000001575583
      11       -0.000002625263     0.000006469228     0.000002709828
      12       -0.000003175963     0.000001535629     0.000006349286
      13       -0.000001576951    -0.000002889255    -0.000003660337
      14       -0.000004758667     0.000004820697    -0.000001674973
      15        0.000000186838    -0.000002753803    -0.000001236817
      16       -0.000001593523    -0.000000405719     0.000002268716
      17        0.000000462323     0.000003102667     0.000000224277

  **** Optimization is complete! (in 6 steps) ****
    Final optimized geometry and variables:
    Molecular point group: c1

    Geometry (in Angstrom), charge = 0, multiplicity = 1:

    H           -2.580966658367     1.375942146973     0.850532049167
    O           -1.755767486659     0.923458179612     0.940067422740
    C           -1.646813675487     0.049353064404    -0.056622336679
    C           -0.363248283299    -0.733661842842    -0.004212160002
    O           -2.490540233497    -0.074964404921    -0.876232365426
    C            0.888880558670     0.146942505918    -0.025730133364
    H           -0.372156580078    -1.408338769686    -0.847656290958
    H           -0.379134809490    -1.325780831707     0.905169709681
    C            2.172773945026    -0.677397394221    -0.013953491484
    H            0.870841459993     0.772421487761    -0.913804202047
    H            0.875663602002     0.815431082216     0.826663074786
    C            3.429767996573     0.185139307582    -0.041617472918
    H            2.177417130511    -1.349957927704    -0.866859747563
    H            2.186068616503    -1.306571999604     0.871762366777
    H            3.461825597844     0.801260631484    -0.933807110708
    H            4.323815096055    -0.427046312892    -0.030334873363
    H            3.469819296178     0.845989405129     0.817610513625

  Mulliken Charges: (a.u.)
   Center  Symbol    Alpha    Beta     Spin     Total
       1     H     0.38065  0.38065  0.00000  0.23870
       2     O     4.16300  4.16300  0.00000 -0.32600
       3     C     2.80952  2.80952  0.00000  0.38096
       4     C     3.08652  3.08652  0.00000 -0.17305
       5     O     4.19396  4.19396  0.00000 -0.38792
       6     C     3.09816  3.09816  0.00000 -0.19632
       7     H     0.43600  0.43600  0.00000  0.12800
       8     H     0.44481  0.44481  0.00000  0.11037
       9     C     3.08745  3.08745  0.00000 -0.17491
      10     H     0.44858  0.44858  0.00000  0.10284
      11     H     0.44196  0.44196  0.00000  0.11607
      12     C     3.14908  3.14908  0.00000 -0.29816
      13     H     0.45205  0.45205  0.00000  0.09591
      14     H     0.45339  0.45339  0.00000  0.09321
      15     H     0.45372  0.45372  0.00000  0.09256
      16     H     0.44713  0.44713  0.00000  0.10573
      17     H     0.45400  0.45400  0.00000  0.09201

   Total alpha = 28.00000, Total beta = 28.00000, Total charge = -0.00000

*** Psi4 exiting successfully. Buy a developer a beer!
