                              Psi4 1.0.54 Driver

  ==> Input File <==

--------------------------------------------------------------------------
set {
	reference rhf
	basis cc-pvtz
}

set_num_threads( 4 )
memory 2 gb

molecule MOL {
0 1

H	 1.166964	 -1.062386	 0.758429
O	 1.324748	 -0.612467	 -0.052206
C	 0.706474	 0.636793	 -0.025501
C	 1.588502	 1.780552	 -0.439594
H	 0.374975	 0.793192	 0.994279
H	 -0.187860	 0.640224	 -0.645867
C	 2.872964	 1.703037	 -0.708770
H	 1.087103	 2.731900	 -0.508761
H	 3.410936	 0.777263	 -0.634605
H	 3.431533	 2.571874	 -1.000630

	symmetry c1
}
set optking {
	frozen_dihedral = ("
		5 3 2 1
	")
}

ee,wfn = optimize('scf', return_wfn=True)
oeprop( wfn, 'DIPOLE', 'QUADRUPOLE', 'MULLIKEN_CHARGES')
f=open( 'psi4out.xyz', 'w' )
f.write( "10  " )
f.write( str(ee) + "\n" )
f.write( MOL.save_string_xyz() )
f.close()
--------------------------------------------------------------------------

    Molecular point group: c1
  Charge       = 0
  Multiplicity = 1
  Basis Set: CC-PVTZ
  Basis Set:
  @DF-RHF Final Energy:  -191.99550824839164
    Total Energy =                       -191.9955082483917295
    Molecular point group: c1
  Basis Set: CC-PVTZ
  Basis Set:
  Basis Set: CC-PVTZ
  Basis Set:
  @DF-RHF Final Energy:  -191.93375629794431
    Total Energy =                       -191.9337562979443419
  Basis Set: CC-PVTZ
  Basis Set:
  Basis Set: CC-PVTZ
  Basis Set:
  @DF-RHF Final Energy:  -191.99332449157816
    Total Energy =                       -191.9933244915780506
  Basis Set: CC-PVTZ
  Basis Set:
  Basis Set: CC-PVTZ
  Basis Set:
  @DF-RHF Final Energy:  -191.99673191602784
    Total Energy =                       -191.9967319160278976
  Basis Set: CC-PVTZ
  Basis Set:
  Basis Set: CC-PVTZ
  Basis Set:
  @DF-RHF Final Energy:  -191.99683258576113
    Total Energy =                       -191.9968325857610409
  Basis Set: CC-PVTZ
  Basis Set:
  Basis Set: CC-PVTZ
  Basis Set:
  @DF-RHF Final Energy:  -191.99685383144072
    Total Energy =                       -191.9968538314406601
  Basis Set: CC-PVTZ
  Basis Set:
  Charge       = 0
  Multiplicity = 1
  Basis Set: CC-PVTZ
  Basis Set:

    Orbital Energies (a.u.)
    -----------------------

    Doubly Occupied:

       1A    -20.553273     2A    -11.278485     3A    -11.223650
       4A    -11.208300     5A     -1.373119     6A     -1.058357
       7A     -0.927191     8A     -0.758974     9A     -0.710504
      10A     -0.650298    11A     -0.615441    12A     -0.584991
      13A     -0.514742    14A     -0.501736    15A     -0.452714
      16A     -0.361225

  @DF-RHF Final Energy:  -191.99685398601139

   => Energetics <=

    Nuclear Repulsion Energy =            119.4753047845720033
    One-Electron Energy =                -497.3983176535968482
    Two-Electron Energy =                 185.9261588830134428
    DFT Exchange-Correlation Energy =       0.0000000000000000
    Empirical Dispersion Energy =           0.0000000000000000
    PCM Polarization Energy =               0.0000000000000000
    EFP Energy =                            0.0000000000000000
    Total Energy =                       -191.9968539860113879
    Molecular point group: c1
  Basis Set: CC-PVTZ
  Basis Set:

  -Total Gradient:
     Atom            X                  Y                   Z
    ------   -----------------  -----------------  -----------------
       1        0.000178212538     0.000109033392     0.000240600473
       2       -0.000211334983    -0.000273039806    -0.000316834222
       3        0.000250585764     0.000234374284     0.000238789165
       4       -0.000034924350     0.000014603258    -0.000005802465
       5       -0.000180142109    -0.000125742435    -0.000156716887
       6       -0.000017874571     0.000026850359    -0.000002852395
       7       -0.000004442209    -0.000009813080     0.000019601748
       8        0.000004325897     0.000013949992    -0.000004110982
       9        0.000008661165     0.000000480734    -0.000012870300
      10        0.000006932857     0.000009303303     0.000000195865

  **** Optimization is complete! (in 7 steps) ****
    Final optimized geometry and variables:
    Molecular point group: c1

    Geometry (in Angstrom), charge = 0, multiplicity = 1:

    H           -0.283502518249    -2.088302313475     0.465113266695
    O            0.017254704179    -1.418983812296    -0.118395632814
    C           -0.877668971072    -0.343853251644    -0.131961425888
    C           -0.181162220524     0.975224628532     0.024088992057
    H           -1.618868513040    -0.444542617760     0.657226956141
    H           -1.425623672614    -0.341261686612    -1.071139256816
    C            1.107553604413     1.143030890368     0.215411770212
    H           -0.830497039680     1.832814966285    -0.039620100674
    H            1.777140449079     0.307756129383     0.274367448415
    H            1.527377195275     2.126334542310     0.312623841550

  Mulliken Charges: (a.u.)
   Center  Symbol    Alpha    Beta     Spin     Total
       1     H     0.38994  0.38994  0.00000  0.22011
       2     O     4.19792  4.19792  0.00000 -0.39584
       3     C     2.94421  2.94421  0.00000  0.11159
       4     C     3.07959  3.07959  0.00000 -0.15919
       5     H     0.47357  0.47357  0.00000  0.05286
       6     H     0.46745  0.46745  0.00000  0.06510
       7     C     3.17302  3.17302  0.00000 -0.34604
       8     H     0.42424  0.42424  0.00000  0.15152
       9     H     0.42013  0.42013  0.00000  0.15974
      10     H     0.42992  0.42992  0.00000  0.14015

   Total alpha = 16.00000, Total beta = 16.00000, Total charge = -0.00000

*** Psi4 exiting successfully. Buy a developer a beer!
