  ==> Input File <==

--------------------------------------------------------------------------
set {
	reference rhf
	basis 6-31G*
}

set_num_threads( 1 )
memory 2 gb

molecule MOL {
0 1

H	 -3.715184	 0.291623	 -1.074405
O	 -3.517110	 -0.026191	 -0.205115
C	 -2.306886	 0.532354	 0.237577
C	 -1.177863	 -0.397191	 -0.171080
H	 -2.156308	 1.517575	 -0.201710
H	 -2.315015	 0.655684	 1.319734
C	 0.198102	 0.111031	 0.262842
H	 -1.208843	 -0.518759	 -1.250427
H	 -1.368741	 -1.376554	 0.258909
C	 1.331804	 -0.827780	 -0.158768
H	 0.361943	 1.100838	 -0.156218
H	 0.217265	 0.229072	 1.345532
C	 2.723619	 -0.410569	 0.329459
H	 1.342964	 -0.912588	 -1.244120
H	 1.116806	 -1.824343	 0.220779
C	 3.243875	 0.895854	 -0.272975
H	 3.424222	 -1.207124	 0.091250
H	 2.714788	 -0.329854	 1.414619
H	 3.251977	 0.848779	 -1.358681
H	 2.637085	 1.747371	 0.016682
H	 4.259473	 1.094070	 0.055697

	symmetry c1
}
set optking {
	frozen_dihedral = ("
		2 3 4 8,
		8 4 7 10,
		4 7 10 14,
		16 13 10 14
	")
}

ee = energy('scf')
oeprop('DIPOLE', 'QUADRUPOLE', 'MULLIKEN_CHARGES')
f=open( 'psi4out.xyz', 'w' )
f.write( "21  " )
f.write( str(ee) + "\n" )
f.write( MOL.save_string_xyz() )
f.close()
--------------------------------------------------------------------------

    Molecular point group: c1

    Geometry (in Angstrom), charge = 0, multiplicity = 1:

       Center              X                  Y                   Z               Mass
    ------------   -----------------  -----------------  -----------------  -----------------
           H         -3.720329427744     0.294056279580    -1.063407475174     1.007825032070
           O         -3.522255427744    -0.023757720420    -0.194117475174    15.994914619560
           C         -2.312031427744     0.534787279580     0.248574524826    12.000000000000
           C         -1.183008427744    -0.394757720420    -0.160082475174    12.000000000000
           H         -2.161453427744     1.520008279580    -0.190712475174     1.007825032070
           H         -2.320160427744     0.658117279580     1.330731524826     1.007825032070
           C          0.192956572256     0.113464279580     0.273839524826    12.000000000000
           H         -1.213988427744    -0.516325720420    -1.239429475174     1.007825032070
           H         -1.373886427744    -1.374120720420     0.269906524826     1.007825032070
           C          1.326658572256    -0.825346720420    -0.147770475174    12.000000000000
           H          0.356797572256     1.103271279580    -0.145220475174     1.007825032070
           H          0.212119572256     0.231505279580     1.356529524826     1.007825032070
           C          2.718473572256    -0.408135720420     0.340456524826    12.000000000000
           H          1.337818572256    -0.910154720420    -1.233122475174     1.007825032070
           H          1.111660572256    -1.821909720420     0.231776524826     1.007825032070
           C          3.238729572256     0.898287279580    -0.261977475174    12.000000000000
           H          3.419076572256    -1.204690720420     0.102247524826     1.007825032070
           H          2.709642572256    -0.327420720420     1.425616524826     1.007825032070
           H          3.246831572256     0.851212279580    -1.347683475174     1.007825032070
           H          2.631939572256     1.749804279580     0.027679524826     1.007825032070
           H          4.254327572256     1.096503279580     0.066694524826     1.007825032070

  Charge       = 0
  Multiplicity = 1
  Basis Set: 6-31G*
  Basis Set:

    Orbital Energies (a.u.)
    -----------------------

    Doubly Occupied:

       1A    -20.551356     2A    -11.268072     3A    -11.215929
       4A    -11.215805     5A    -11.214482     6A    -11.210254
       7A    -11.209136     8A     -1.359493     9A     -1.086942
      10A     -1.033514    11A     -0.954659    12A     -0.877438
      13A     -0.813047    14A     -0.779448    15A     -0.699636
      16A     -0.645749    17A     -0.623908    18A     -0.605276
      19A     -0.593543    20A     -0.568941    21A     -0.545625
      22A     -0.521170    23A     -0.506258    24A     -0.494853
      25A     -0.471330    26A     -0.468585    27A     -0.461575
      28A     -0.456288    29A     -0.416771

  @DF-RHF Final Energy:  -310.21058713838613

   => Energetics <=

    Nuclear Repulsion Energy =            312.8461102635003499
    One-Electron Energy =               -1040.3752842970986876
    Two-Electron Energy =                 417.3185868952116380
    DFT Exchange-Correlation Energy =       0.0000000000000000
    Empirical Dispersion Energy =           0.0000000000000000
    PCM Polarization Energy =               0.0000000000000000
    EFP Energy =                            0.0000000000000000
    Total Energy =                       -310.2105871383866997

  Mulliken Charges: (a.u.)
   Center  Symbol    Alpha    Beta     Spin     Total
       1     H     0.28056  0.28056  0.00000  0.43888
       2     O     4.37072  4.37072  0.00000 -0.74144
       3     C     2.99649  2.99649  0.00000  0.00702
       4     C     3.15608  3.15608  0.00000 -0.31216
       5     H     0.43191  0.43191  0.00000  0.13618
       6     H     0.41806  0.41806  0.00000  0.16389
       7     C     3.16313  3.16313  0.00000 -0.32626
       8     H     0.42670  0.42670  0.00000  0.14661
       9     H     0.41413  0.41413  0.00000  0.17173
      10     C     3.15135  3.15135  0.00000 -0.30269
      11     H     0.42289  0.42289  0.00000  0.15422
      12     H     0.42327  0.42327  0.00000  0.15346
      13     C     3.15243  3.15243  0.00000 -0.30486
      14     H     0.42425  0.42425  0.00000  0.15151
      15     H     0.42088  0.42088  0.00000  0.15824
      16     C     3.24118  3.24118  0.00000 -0.48235
      17     H     0.42073  0.42073  0.00000  0.15855
      18     H     0.42319  0.42319  0.00000  0.15363
      19     H     0.42251  0.42251  0.00000  0.15499
      20     H     0.42058  0.42058  0.00000  0.15884
      21     H     0.41899  0.41899  0.00000  0.16202

   Total alpha = 29.00000, Total beta = 29.00000, Total charge = -0.00000
