                              Psi4 1.0.54 Driver

  ==> Input File <==

--------------------------------------------------------------------------
set {
	reference rhf
	basis cc-pvtz
}

set_num_threads( 4 )
memory 2 gb

molecule MOL {
0 1

O	 -2.071633	 -1.227563	 -0.223463
C	 -1.652164	 -0.152425	 0.058082
C	 -0.327811	 0.006324	 0.778296
C	 -2.402515	 1.108629	 -0.298924
C	 -0.051262	 -1.191146	 1.695361
H	 0.479154	 0.114354	 0.061174
H	 -0.382602	 0.911849	 1.368938
C	 1.266526	 -1.060644	 2.453409
H	 -0.037604	 -2.107192	 1.110239
H	 -0.870503	 -1.285327	 2.399874
C	 1.539748	 -2.243389	 3.376245
H	 2.082572	 -0.960515	 1.743081
H	 1.253450	 -0.143769	 3.035394
H	 1.593481	 -3.172044	 2.817903
H	 0.755735	 -2.349427	 4.118167
H	 2.478938	 -2.119572	 3.902548
H	 -3.240910	 0.874416	 -0.936711
H	 -1.747554	 1.818823	 -0.790984
H	 -2.760419	 1.579708	 0.610998

	symmetry c1
}
set optking {
	frozen_dihedral = ("
		5 3 2 4
	")
}

ee,wfn = optimize('scf', return_wfn=True)
oeprop( wfn, 'DIPOLE', 'QUADRUPOLE', 'MULLIKEN_CHARGES')
f=open( 'psi4out.xyz', 'w' )
f.write( "19  " )
f.write( str(ee) + "\n" )
f.write( MOL.save_string_xyz() )
f.close()
--------------------------------------------------------------------------

    Molecular point group: c1
  Charge       = 0
  Multiplicity = 1
  Basis Set: CC-PVTZ
  Basis Set:
  @DF-RHF Final Energy:  -309.17719612951794
    Total Energy =                       -309.1771961295183928
    Molecular point group: c1
  Basis Set: CC-PVTZ
  Basis Set:
  Basis Set: CC-PVTZ
  Basis Set:
  @DF-RHF Final Energy:  -309.17753576776846
    Total Energy =                       -309.1775357677682905
  Basis Set: CC-PVTZ
  Basis Set:
  Basis Set: CC-PVTZ
  Basis Set:
  @DF-RHF Final Energy:  -309.17601027836128
    Total Energy =                       -309.1760102783614457
  Basis Set: CC-PVTZ
  Basis Set:
  Basis Set: CC-PVTZ
  Basis Set:
  @DF-RHF Final Energy:  -309.17815226427757
    Total Energy =                       -309.1781522642777418
  Basis Set: CC-PVTZ
  Basis Set:
  Basis Set: CC-PVTZ
  Basis Set:
  @DF-RHF Final Energy:  -309.17823809887227
    Total Energy =                       -309.1782380988721570
  Basis Set: CC-PVTZ
  Basis Set:
  Basis Set: CC-PVTZ
  Basis Set:
  @DF-RHF Final Energy:  -309.17822807927473
    Total Energy =                       -309.1782280792748452
  Basis Set: CC-PVTZ
  Basis Set:
  Basis Set: CC-PVTZ
  Basis Set:
  @DF-RHF Final Energy:  -309.17826277296570
    Total Energy =                       -309.1782627729656951
  Basis Set: CC-PVTZ
  Basis Set:
  Charge       = 0
  Multiplicity = 1
  Basis Set: CC-PVTZ
  Basis Set:

    Orbital Energies (a.u.)
    -----------------------

    Doubly Occupied:

       1A    -20.537960     2A    -11.320840     3A    -11.229968
       4A    -11.227316     5A    -11.218478     6A    -11.217393
       7A    -11.208903     8A     -1.398612     9A     -1.087787
      10A     -1.030736    11A     -0.984953    12A     -0.887551
      13A     -0.802650    14A     -0.732427    15A     -0.660128
      16A     -0.650789    17A     -0.627217    18A     -0.612854
      19A     -0.582806    20A     -0.572425    21A     -0.555065
      22A     -0.532281    23A     -0.514095    24A     -0.491175
      25A     -0.476329    26A     -0.475196    27A     -0.469707
      28A     -0.401046

  @DF-RHF Final Energy:  -309.17826371366664

   => Energetics <=

    Nuclear Repulsion Energy =            301.3603765442285294
    One-Electron Energy =               -1016.0639042723794319
    Two-Electron Energy =                 405.5252640144843213
    DFT Exchange-Correlation Energy =       0.0000000000000000
    Empirical Dispersion Energy =           0.0000000000000000
    PCM Polarization Energy =               0.0000000000000000
    EFP Energy =                            0.0000000000000000
    Total Energy =                       -309.1782637136665812
    Molecular point group: c1
  Basis Set: CC-PVTZ
  Basis Set:

  -Total Gradient:
     Atom            X                  Y                   Z
    ------   -----------------  -----------------  -----------------
       1        0.000157088586     0.000157869217     0.000054069346
       2        0.000463193230     0.000170920763    -0.001097684385
       3        0.000520697599    -0.000672836430    -0.000725176330
       4       -0.000596186832    -0.000051980337     0.001016418624
       5       -0.000518227389     0.000389264715     0.000845832343
       6       -0.000069628705    -0.000025541664     0.000036864213
       7        0.000005407773    -0.000006441254    -0.000061618627
       8        0.000002302164     0.000027954321    -0.000049520187
       9        0.000021531654     0.000063505691     0.000048741885
      10        0.000055291058    -0.000006794188    -0.000036405300
      11       -0.000033558778    -0.000037077507     0.000032260786
      12       -0.000055711849     0.000002303143     0.000017909016
      13       -0.000015868645    -0.000040405710    -0.000051131149
      14        0.000002542316     0.000049675194     0.000035676788
      15        0.000043069431    -0.000013043974    -0.000025798473
      16       -0.000052740145    -0.000002467540    -0.000021844039
      17        0.000063299122    -0.000000047170     0.000043939515
      18       -0.000021351744    -0.000000002159     0.000004336672
      19        0.000028851152    -0.000004855110    -0.000066870698

  **** Optimization is complete! (in 8 steps) ****
    Final optimized geometry and variables:
    Molecular point group: c1

    Geometry (in Angstrom), charge = 0, multiplicity = 1:

    O           -1.549522430415    -0.543634690368    -1.410143802732
    C           -1.143679039318     0.520710079031    -1.074828777332
    C            0.151913859831     0.676192053790    -0.300672621689
    C           -1.892776968931     1.790584874366    -1.401158103852
    C            0.481552225387    -0.510988515126     0.597250544455
    H            0.935164294199     0.818319995957    -1.043077164595
    H            0.116751166755     1.595158067204     0.275623081701
    C            1.815043008357    -0.350027238842     1.320807029768
    H            0.490786721090    -1.414285317291     0.000766908613
    H           -0.313897452908    -0.636828749745     1.325989300502
    C            2.141570538965    -1.529616361599     2.230330333229
    H            2.608911112962    -0.229787801114     0.588481840312
    H            1.802346825521     0.564190893944     1.908423855831
    H            2.195470790225    -2.454199620203     1.666036780667
    H            1.383140582943    -1.654968913716     2.995671998031
    H            3.093878832700    -1.389046596054     2.728270901582
    H           -2.706681127958     1.578785516169    -2.077242839374
    H           -1.227106395784     2.526846274351    -1.838055840535
    H           -2.285450251687     2.217044349059    -0.483818471120

  Mulliken Charges: (a.u.)
   Center  Symbol    Alpha    Beta     Spin     Total
       1     O     4.17307  4.17307  0.00000 -0.34613
       2     C     2.86042  2.86042  0.00000  0.27916
       3     C     3.11026  3.11026  0.00000 -0.22051
       4     C     3.15268  3.15268  0.00000 -0.30536
       5     C     3.08436  3.08436  0.00000 -0.16872
       6     H     0.44411  0.44411  0.00000  0.11178
       7     H     0.44576  0.44576  0.00000  0.10848
       8     C     3.08511  3.08511  0.00000 -0.17022
       9     H     0.43986  0.43986  0.00000  0.12029
      10     H     0.45245  0.45245  0.00000  0.09509
      11     C     3.14951  3.14951  0.00000 -0.29901
      12     H     0.45456  0.45456  0.00000  0.09088
      13     H     0.45600  0.45600  0.00000  0.08800
      14     H     0.45310  0.45310  0.00000  0.09379
      15     H     0.45458  0.45458  0.00000  0.09083
      16     H     0.44856  0.44856  0.00000  0.10289
      17     H     0.43616  0.43616  0.00000  0.12767
      18     H     0.45020  0.45020  0.00000  0.09959
      19     H     0.44925  0.44925  0.00000  0.10150

   Total alpha = 28.00000, Total beta = 28.00000, Total charge = -0.00000

*** Psi4 exiting successfully. Buy a developer a beer!
