  ==> Input File <==

--------------------------------------------------------------------------
set {
	reference rhf
	basis 6-31G*
}

set_num_threads( 4 )
memory 2 gb

molecule MOL {
0 1

H	 3.297182	 -0.445357	 0.016088
C	 2.237858	 -0.260312	 0.012629
C	 1.694447	 0.621628	 -0.913516
C	 1.423915	 -0.902278	 0.930973
H	 2.332796	 1.116071	 -1.623137
C	 0.334430	 0.861556	 -0.920725
H	 1.847853	 -1.583803	 1.645847
C	 0.059675	 -0.660729	 0.922712
H	 -0.105174	 1.539409	 -1.628124
C	 -0.488460	 0.219100	 0.000000
H	 -0.578223	 -1.156724	 1.634065
C	 -1.949954	 0.470334	 0.000000
O	 -2.781584	 -0.381627	 0.000000
H	 -2.238022	 1.526388	 0.000000

	symmetry c1
}
set optking {
	frozen_dihedral = ("
		8 10 12 14
	")
}

ee = optimize('scf')
oeprop('DIPOLE', 'QUADRUPOLE', 'MULLIKEN_CHARGES')
f=open( 'psi4out.xyz', 'w' )
f.write( "14  " )
f.write( str(ee) + "\n" )
f.write( MOL.save_string_xyz() )
f.close()
--------------------------------------------------------------------------

    Molecular point group: c1
  Charge       = 0
  Multiplicity = 1
  Basis Set: 6-31G*
  Basis Set:
  @DF-RHF Final Energy:  -343.42470538214496
    Total Energy =                       -343.4247053821449072
    Molecular point group: c1
  Basis Set: 6-31G*
  Basis Set:
  Basis Set: 6-31G*
  Basis Set:
  @DF-RHF Final Energy:  -343.42307424552268
    Total Energy =                       -343.4230742455227983
  Basis Set: 6-31G*
  Basis Set:
  Basis Set: 6-31G*
  Basis Set:
  @DF-RHF Final Energy:  -343.42561607367281
    Total Energy =                       -343.4256160736726997
  Basis Set: 6-31G*
  Basis Set:
  Basis Set: 6-31G*
  Basis Set:
  @DF-RHF Final Energy:  -343.42575052430419
    Total Energy =                       -343.4257505243040214
  Basis Set: 6-31G*
  Basis Set:
  Basis Set: 6-31G*
  Basis Set:
  @DF-RHF Final Energy:  -343.42575292359845
    Total Energy =                       -343.4257529235987363
  Basis Set: 6-31G*
  Basis Set:
  Charge       = 0
  Multiplicity = 1
  Basis Set: 6-31G*
  Basis Set:

    Orbital Energies (a.u.)
    -----------------------

    Doubly Occupied:

       1A    -20.566899     2A    -11.333268     3A    -11.251210
       4A    -11.248836     5A    -11.247606     6A    -11.247233
       7A    -11.244626     8A    -11.243125     9A     -1.406624
      10A     -1.170270    11A     -1.046151    12A     -1.030401
      13A     -0.888100    14A     -0.842397    15A     -0.792515
      16A     -0.720861    17A     -0.677250    18A     -0.652070
      19A     -0.628526    20A     -0.617266    21A     -0.601908
      22A     -0.542586    23A     -0.527227    24A     -0.507071
      25A     -0.502851    26A     -0.422125    27A     -0.348071
      28A     -0.346687

  @DF-RHF Final Energy:  -343.42575361358104

   => Energetics <=

    Nuclear Repulsion Energy =            322.7552296931041838
    One-Electron Energy =               -1105.0544512993822082
    Two-Electron Energy =                 438.8734679926968738
    DFT Exchange-Correlation Energy =       0.0000000000000000
    Empirical Dispersion Energy =           0.0000000000000000
    PCM Polarization Energy =               0.0000000000000000
    EFP Energy =                            0.0000000000000000
    Total Energy =                       -343.4257536135811506
    Molecular point group: c1
  Basis Set: 6-31G*
  Basis Set:

  -Total Gradient:
     Atom            X                  Y                   Z
    ------   -----------------  -----------------  -----------------
       1        0.000003681573     0.000010428985    -0.000002636979
       2       -0.000021676253    -0.000082016475     0.000080666435
       3       -0.000099593672     0.000043185823    -0.000051430307
       4        0.000131676955     0.000034851701    -0.000044217938
       5        0.000009826757    -0.000004783154     0.000009911264
       6        0.000129119379     0.000001486872    -0.000069932575
       7       -0.000006179711    -0.000001728528    -0.000002752556
       8        0.000927643782     0.004784120849     0.003665745521
       9       -0.000008958250    -0.000004001408     0.000007763234
      10       -0.001481511039    -0.006842958255    -0.002929608307
      11        0.000001523485    -0.000000855358     0.000002788100
      12        0.000200907239     0.001783307532    -0.008161837247
      13       -0.000009223172     0.000022099013    -0.000002708609
      14        0.000222762924     0.000256862404     0.007498249962

  **** Optimization is complete! (in 6 steps) ****
    Final optimized geometry and variables:
    Molecular point group: c1

    Geometry (in Angstrom), charge = 0, multiplicity = 1:

    H            3.308906532244    -0.410770106462     0.023585087389
    C            2.247345804958    -0.240935525720     0.002148216396
    C            1.706363025176     0.634213007843    -0.927072608473
    C            1.424763303856    -0.888626404262     0.911166315479
    H            2.345474819483     1.141377409925    -1.626969897273
    C            0.341706969906     0.865618606086    -0.940766726427
    H            1.847878587985    -1.555450882422     1.640503340015
    C            0.057314702352    -0.676423200926     0.881152668022
    H           -0.077077516002     1.564089123052    -1.645070744230
    C           -0.490267195534     0.187722729098    -0.058592283062
    H           -0.590400008043    -1.180825724128     1.574328055985
    C           -1.951142389202     0.482817960409    -0.026678385039
    O           -2.793805145123    -0.342820612994     0.124652260713
    H           -2.217250648048     1.543696449211    -0.055764998868

  Mulliken Charges: (a.u.)
   Center  Symbol    Alpha    Beta     Spin     Total
       1     H     0.39498  0.39498  0.00000  0.21005
       2     C     3.09445  3.09445  0.00000 -0.18891
       3     C     3.10164  3.10164  0.00000 -0.20328
       4     C     3.10159  3.10159  0.00000 -0.20318
       5     H     0.39502  0.39502  0.00000  0.20996
       6     C     3.10323  3.10323  0.00000 -0.20646
       7     H     0.39449  0.39449  0.00000  0.21102
       8     C     3.09521  3.09521  0.00000 -0.19042
       9     H     0.39373  0.39373  0.00000  0.21254
      10     C     3.04100  3.04100  0.00000 -0.08201
      11     H     0.38297  0.38297  0.00000  0.23405
      12     C     2.84328  2.84328  0.00000  0.31343
      13     O     4.23596  4.23596  0.00000 -0.47192
      14     H     0.42244  0.42244  0.00000  0.15513

   Total alpha = 28.00000, Total beta = 28.00000, Total charge =  0.00000
