  ==> Input File <==

--------------------------------------------------------------------------
set {
	reference rhf
	basis cc-pvtz
}

set_num_threads( 4 )
memory 2 gb

molecule MOL {
0 1

H	 1.545000	 -0.366000	 0.950000
C	 1.178000	 0.000000	 0.000000
C	 -0.289000	 -0.000000	 -0.000000
H	 1.546000	 -0.639000	 -0.792000
H	 1.545000	 1.006000	 -0.157000
N	 -1.424000	 0.000000	 0.000000

	symmetry c1
}
ee = optimize('scf')
oeprop('DIPOLE', 'QUADRUPOLE', 'MULLIKEN_CHARGES')
f=open( 'psi4out.xyz', 'w' )
f.write( "6  " )
f.write( str(ee) + "\n" )
f.write( MOL.save_string_xyz() )
f.close()
--------------------------------------------------------------------------

    Molecular point group: c1
  Charge       = 0
  Multiplicity = 1
  Basis Set: CC-PVTZ
  Basis Set:
  @DF-RHF Final Energy:  -131.97508616248984
    Total Energy =                       -131.9750861624898164
    Molecular point group: c1
  Basis Set: CC-PVTZ
  Basis Set:
  Basis Set: CC-PVTZ
  Basis Set:
  @DF-RHF Final Energy:  -131.97527264233912
    Total Energy =                       -131.9752726423391778
  Basis Set: CC-PVTZ
  Basis Set:
  Basis Set: CC-PVTZ
  Basis Set:
  @DF-RHF Final Energy:  -131.97522916924387
    Total Energy =                       -131.9752291692438178
  Basis Set: CC-PVTZ
  Basis Set:
  Basis Set: CC-PVTZ
  Basis Set:
  @DF-RHF Final Energy:  -131.97516996557087
    Total Energy =                       -131.9751699655708421
  Basis Set: CC-PVTZ
  Basis Set:
  @DF-RHF Final Energy:  -131.97513112073983
    Total Energy =                       -131.9751311207397748
  @DF-RHF Final Energy:  -131.97481509699961
    Total Energy =                       -131.9748150969996914
  @DF-RHF Final Energy:  -131.97526547128609
    Total Energy =                       -131.9752654712860362
  @DF-RHF Final Energy:  -131.97516072710405
    Total Energy =                       -131.9751607271040541
  @DF-RHF Final Energy:  -131.97513372885930
    Total Energy =                       -131.9751337288591913
  @DF-RHF Final Energy:  -131.97217544595549
    Total Energy =                       -131.9721754459554859
  @DF-RHF Final Energy:  -131.97374795710584
    Total Energy =                       -131.9737479571058429
  @DF-RHF Final Energy:  -131.97203721969098
    Total Energy =                       -131.9720372196910034
  @DF-RHF Final Energy:  -131.97261731066791
    Total Energy =                       -131.9726173106679141
  @DF-RHF Final Energy:  -131.97504789512888
    Total Energy =                       -131.9750478951288812
  @DF-RHF Final Energy:  -131.97521549350117
    Total Energy =                       -131.9752154935011390
  @DF-RHF Final Energy:  -131.97517086382837
    Total Energy =                       -131.9751708638283390
  @DF-RHF Final Energy:  -131.97523772845972
    Total Energy =                       -131.9752377284597173
  @DF-RHF Final Energy:  -131.73040252567222
    Total Energy =                       -131.7304025256721616
  @DF-RHF Final Energy:  -131.76706049840698
    Total Energy =                       -131.7670604984068916
  @DF-RHF Final Energy:  -131.89312542812451
    Total Energy =                       -131.8931254281245060
  @DF-RHF Final Energy:  -131.74704077499675
    Total Energy =                       -131.7470407749967478
  @DF-RHF Final Energy:  -131.83908158551765
    Total Energy =                       -131.8390815855176470
  @DF-RHF Final Energy:  -131.67571105528043
    Total Energy =                       -131.6757110552804022
  @DF-RHF Final Energy:  -131.89874812127610
    Total Energy =                       -131.8987481212762134
  @DF-RHF Final Energy:  -131.80322610441706
    Total Energy =                       -131.8032261044170639
  @DF-RHF Final Energy:  -131.94707978682516
    Total Energy =                       -131.9470797868251282
  @DF-RHF Final Energy:  -131.93279304187575
    Total Energy =                       -131.9327930418757830
  @DF-RHF Final Energy:  -131.96406261254694
    Total Energy =                       -131.9640626125469112
  @DF-RHF Final Energy:  -131.81864344592356
    Total Energy =                       -131.8186434459235556
  @DF-RHF Final Energy:  -131.94502235145424
    Total Energy =                       -131.9450223514542699
  @DF-RHF Final Energy:  -131.97239959581452
    Total Energy =                       -131.9723995958144656
  @DF-RHF Final Energy:  -131.59341780333006
    Total Energy =                       -131.5934178033301123
  @DF-RHF Final Energy:  -131.68629240129582
    Total Energy =                       -131.6862924012957876
  @DF-RHF Final Energy:  -131.84615579070700
    Total Energy =                       -131.8461557907070016
  @DF-RHF Final Energy:  -131.16446529135646
    Total Energy =                       -131.1644652913564073
  @DF-RHF Final Energy:  -131.82395256494794
    Total Energy =                       -131.8239525649478878
  Basis Set: CC-PVTZ
  Basis Set:
  @DF-RHF Final Energy:  -131.84523923925553
    Total Energy =                       -131.8452392392555339
  Basis Set: CC-PVTZ
  Basis Set:
  Basis Set: CC-PVTZ
  Basis Set:
  @DF-RHF Final Energy:  -131.90075421227013
    Total Energy =                       -131.9007542122700443
  Basis Set: CC-PVTZ
  Basis Set:
  Basis Set: CC-PVTZ
  Basis Set:
  @DF-RHF Final Energy:  -131.94784085216006
    Total Energy =                       -131.9478408521600272
  Basis Set: CC-PVTZ
  Basis Set:
  Charge       = 0
  Multiplicity = 1
  Basis Set: CC-PVTZ
  Basis Set:

    Orbital Energies (a.u.)
    -----------------------

    Doubly Occupied:

       1A    -15.570907     2A    -11.317609     3A    -11.279706
       4A     -1.228773     5A     -0.994152     6A     -0.680506
       7A     -0.603320     8A     -0.591074     9A     -0.551834
      10A     -0.472892    11A     -0.466715

  @DF-RHF Final Energy:  -131.93579316267946

   => Energetics <=

    Nuclear Repulsion Energy =             56.5163974866884971
    One-Electron Energy =                -289.3894048932184546
    Two-Electron Energy =                 100.9372142438504767
    DFT Exchange-Correlation Energy =       0.0000000000000000
    Empirical Dispersion Energy =           0.0000000000000000
    PCM Polarization Energy =               0.0000000000000000
    EFP Energy =                            0.0000000000000000
    Total Energy =                       -131.9357931626794880
    Molecular point group: c1
  Basis Set: CC-PVTZ
  Basis Set:

  -Total Gradient:
     Atom            X                  Y                   Z
    ------   -----------------  -----------------  -----------------
       1        0.027291026036     0.001101049773    -0.006746479322
       2        0.007769003012    -0.052591125997     0.063531565406
       3       -0.044891677322     0.057715917910     0.006837716811
       4        0.010812290464    -0.027145466564    -0.039732546139
       5        0.016497495146     0.045105933097    -0.010229010724
       6       -0.017478137334    -0.024186308218    -0.013661246032

    Molecular point group: c1

    Geometry (in Angstrom), charge = 0, multiplicity = 1:

    H            1.791386249584    -0.417007794869     0.939868818019
    C            1.290157509387    -0.035952105963    -0.004304816575
    C           -0.195208534662     0.135755630075     0.062627424209
    H            1.494905160762    -0.774212440924    -0.834032693811
    H            1.715845847391     0.975469168602    -0.188986894364
    N           -1.298333982430    -0.069999127535    -0.043995330153

  Mulliken Charges: (a.u.)
   Center  Symbol    Alpha    Beta     Spin     Total
       1     H     0.42198  0.42198  0.00000  0.15605
       2     C     3.10204  3.10204  0.00000 -0.20407
       3     C     3.05541  3.05541  0.00000 -0.11081
       4     H     0.43508  0.43508  0.00000  0.12984
       5     H     0.44879  0.44879  0.00000  0.10242
       6     N     3.53671  3.53671  0.00000 -0.07341

   Total alpha = 11.00000, Total beta = 11.00000, Total charge = -0.00000
