  ==> Input File <==

--------------------------------------------------------------------------
set {
	reference rhf
	basis cc-pvtz
}

set_num_threads( 4 )
memory 2 gb

molecule MOL {
0 1

H	 2.457257	 -1.057460	 -0.194818
O	 1.675515	 -0.612943	 -0.465627
C	 1.135873	 0.113391	 0.608264
C	 0.027642	 1.012027	 0.090274
H	 1.902972	 0.727968	 1.072615
H	 0.756163	 -0.561896	 1.370018
C	 -1.138737	 0.285728	 -0.581921
H	 0.464661	 1.708096	 -0.618252
H	 -0.340737	 1.603071	 0.925246
C	 -1.933983	 -0.631436	 0.343653
H	 -0.763151	 -0.285569	 -1.422081
H	 -1.808359	 1.035291	 -0.992333
H	 -2.789188	 -1.049673	 -0.174718
H	 -1.335629	 -1.461368	 0.700418
H	 -2.305435	 -0.092167	 1.209725

	symmetry c1
}
set optking {
	frozen_dihedral = ("
		1 2 3 4
	")
}

ee = optimize('scf')
oeprop('DIPOLE', 'QUADRUPOLE', 'MULLIKEN_CHARGES')
f=open( 'psi4out.xyz', 'w' )
f.write( "15  " )
f.write( str(ee) + "\n" )
f.write( MOL.save_string_xyz() )
f.close()
--------------------------------------------------------------------------

    Molecular point group: c1
  Charge       = 0
  Multiplicity = 1
  Basis Set: CC-PVTZ
  Basis Set:
  @DF-RHF Final Energy:  -232.23751373721760
    Total Energy =                       -232.2375137372176255
    Molecular point group: c1
  Basis Set: CC-PVTZ
  Basis Set:
  Basis Set: CC-PVTZ
  Basis Set:
  @DF-RHF Final Energy:  -232.23751690483402
    Total Energy =                       -232.2375169048342514
  Basis Set: CC-PVTZ
  Basis Set:
  Charge       = 0
  Multiplicity = 1
  Basis Set: CC-PVTZ
  Basis Set:

    Orbital Energies (a.u.)
    -----------------------

    Doubly Occupied:

       1A    -20.546446     2A    -11.265377     3A    -11.210919
       4A    -11.207130     5A    -11.202494     6A     -1.364227
       7A     -1.065247     8A     -0.971270     9A     -0.869364
      10A     -0.775376    11A     -0.706665    12A     -0.649993
      13A     -0.609707    14A     -0.573049    15A     -0.566959
      16A     -0.532824    17A     -0.511101    18A     -0.476294
      19A     -0.467220    20A     -0.452641    21A     -0.433155

  @DF-RHF Final Energy:  -232.23751748525217

   => Energetics <=

    Nuclear Repulsion Energy =            191.9897043829823815
    One-Electron Energy =                -695.5395255850193053
    Two-Electron Energy =                 271.3123037167847542
    DFT Exchange-Correlation Energy =       0.0000000000000000
    Empirical Dispersion Energy =           0.0000000000000000
    PCM Polarization Energy =               0.0000000000000000
    EFP Energy =                            0.0000000000000000
    Total Energy =                       -232.2375174852521695
    Molecular point group: c1
  Basis Set: CC-PVTZ
  Basis Set:

  -Total Gradient:
     Atom            X                  Y                   Z
    ------   -----------------  -----------------  -----------------
       1        0.000389534369     0.000630675809    -0.000249784026
       2       -0.000322089538    -0.000712388805     0.000285788938
       3       -0.000457694231    -0.000355066206     0.000017017189
       4        0.000385135336     0.000479869819    -0.000101638388
       5       -0.000070708286     0.000011136110    -0.000022498574
       6        0.000043556747    -0.000091150144     0.000033660877
       7       -0.000015415834     0.000042249016     0.000047882140
       8        0.000022793704    -0.000009546359    -0.000010800803
       9       -0.000052004919     0.000013012335    -0.000020026419
      10        0.000035922520     0.000001498937    -0.000003281909
      11        0.000001055329     0.000027563068    -0.000018613987
      12       -0.000003936265    -0.000007094873     0.000018801354
      13        0.000012419528    -0.000018220495    -0.000008708506
      14        0.000027719659    -0.000014630853     0.000051716219
      15        0.000003711880     0.000002092641    -0.000019514106

  **** Optimization is complete! (in 3 steps) ****
    Final optimized geometry and variables:
    Molecular point group: c1

    Geometry (in Angstrom), charge = 0, multiplicity = 1:

    H            2.442635150276    -1.073349416510    -0.189563667278
    O            1.662255495107    -0.626808306286    -0.460121311170
    C            1.134389404753     0.115604218608     0.608973610105
    C            0.028291669859     1.016504805194     0.090093541182
    H            1.907432657960     0.732211765742     1.060095373752
    H            0.758844506375    -0.549722761032     1.381543867495
    C           -1.138018861665     0.290570342600    -0.582696218378
    H            0.466665191718     1.711651928135    -0.618355060016
    H           -0.340997350369     1.607291334168     0.924889020884
    C           -1.926118854119    -0.635283307075     0.340125672209
    H           -0.763194239565    -0.274571344503    -1.427376234840
    H           -1.811570093269     1.040142216496    -0.986576205465
    H           -2.778673493358    -1.057664984376    -0.179207360491
    H           -1.321257259963    -1.461922726468     0.693341084665
    H           -2.300767570325    -0.101553311931     1.208241419558

  Mulliken Charges: (a.u.)
   Center  Symbol    Alpha    Beta     Spin     Total
       1     H     0.39519  0.39519  0.00000  0.20961
       2     O     4.19940  4.19940  0.00000 -0.39880
       3     C     2.97606  2.97606  0.00000  0.04788
       4     C     3.09375  3.09375  0.00000 -0.18749
       5     H     0.46346  0.46346  0.00000  0.07308
       6     H     0.47220  0.47220  0.00000  0.05559
       7     C     3.08613  3.08613  0.00000 -0.17227
       8     H     0.44936  0.44936  0.00000  0.10129
       9     H     0.45498  0.45498  0.00000  0.09003
      10     C     3.15505  3.15505  0.00000 -0.31010
      11     H     0.44666  0.44666  0.00000  0.10668
      12     H     0.45093  0.45093  0.00000  0.09813
      13     H     0.44675  0.44675  0.00000  0.10649
      14     H     0.45283  0.45283  0.00000  0.09434
      15     H     0.45723  0.45723  0.00000  0.08553

   Total alpha = 21.00000, Total beta = 21.00000, Total charge = -0.00000
