                              Psi4 1.0.54 Driver

  ==> Input File <==

--------------------------------------------------------------------------
set {
	reference rhf
	basis cc-pvtz
}

set_num_threads( 4 )
memory 2 gb

molecule MOL {
0 1

H	 1.793554	 -1.431540	 -0.975070
C	 0.897073	 -2.065074	 -0.950372
C	 -0.409539	 -1.325717	 -1.033530
O	 1.004854	 -3.238885	 -0.859907
C	 -0.554654	 -0.292621	 0.086567
H	 -1.214606	 -2.048318	 -1.010038
H	 -0.436651	 -0.820075	 -1.996582
C	 -1.846385	 0.513195	 -0.016346
H	 -0.521242	 -0.799913	 1.046503
H	 0.294261	 0.386079	 0.067010
C	 -3.089953	 -0.365049	 -0.098564
H	 -1.798267	 1.154820	 -0.891143
H	 -1.925398	 1.173265	 0.842889
H	 -3.055079	 -1.012299	 -0.968245
H	 -3.988403	 0.236438	 -0.170014
H	 -3.183055	 -0.995885	 0.779079

	symmetry c1
}
set optking {
	frozen_dihedral = ("
		9 5 8 12
	")
}

ee,wfn = optimize('scf', return_wfn=True)
oeprop( wfn, 'DIPOLE', 'QUADRUPOLE', 'MULLIKEN_CHARGES')
f=open( 'psi4out.xyz', 'w' )
f.write( "16  " )
f.write( str(ee) + "\n" )
f.write( MOL.save_string_xyz() )
f.close()
--------------------------------------------------------------------------

    Molecular point group: c1
  Charge       = 0
  Multiplicity = 1
  Basis Set: CC-PVTZ
  Basis Set:
  @DF-RHF Final Energy:  -270.11621934923215
    Total Energy =                       -270.1162193492322103
    Molecular point group: c1
  Basis Set: CC-PVTZ
  Basis Set:
  Basis Set: CC-PVTZ
  Basis Set:
  @DF-RHF Final Energy:  -270.11654004293837
    Total Energy =                       -270.1165400429382544
  Basis Set: CC-PVTZ
  Basis Set:
  Basis Set: CC-PVTZ
  Basis Set:
  @DF-RHF Final Energy:  -270.11737397704837
    Total Energy =                       -270.1173739770483735
  Basis Set: CC-PVTZ
  Basis Set:
  Basis Set: CC-PVTZ
  Basis Set:
  @DF-RHF Final Energy:  -270.11724341077957
    Total Energy =                       -270.1172434107795084
  Basis Set: CC-PVTZ
  Basis Set:
  Basis Set: CC-PVTZ
  Basis Set:
  @DF-RHF Final Energy:  -270.11738675379166
    Total Energy =                       -270.1173867537917772
  Basis Set: CC-PVTZ
  Basis Set:
  Basis Set: CC-PVTZ
  Basis Set:
  @DF-RHF Final Energy:  -270.11743154983833
    Total Energy =                       -270.1174315498382157
  Basis Set: CC-PVTZ
  Basis Set:
  Basis Set: CC-PVTZ
  Basis Set:
  @DF-RHF Final Energy:  -270.11743688602894
    Total Energy =                       -270.1174368860288268
  Basis Set: CC-PVTZ
  Basis Set:
  Charge       = 0
  Multiplicity = 1
  Basis Set: CC-PVTZ
  Basis Set:

    Orbital Energies (a.u.)
    -----------------------

    Doubly Occupied:

       1A    -20.552206     2A    -11.321300     3A    -11.234862
       4A    -11.233663     5A    -11.227786     6A    -11.216167
       7A     -1.406988     8A     -1.097428     9A     -1.016536
      10A     -0.914618    11A     -0.810981    12A     -0.789333
      13A     -0.681758    14A     -0.647458    15A     -0.631560
      16A     -0.605406    17A     -0.581534    18A     -0.555853
      19A     -0.540342    20A     -0.508207    21A     -0.488069
      22A     -0.480109    23A     -0.473990    24A     -0.412289

  @DF-RHF Final Energy:  -270.11743719903916

   => Energetics <=

    Nuclear Repulsion Energy =            232.4841975559772891
    One-Electron Energy =                -826.3463810261122262
    Two-Electron Energy =                 323.7447462710959485
    DFT Exchange-Correlation Energy =       0.0000000000000000
    Empirical Dispersion Energy =           0.0000000000000000
    PCM Polarization Energy =               0.0000000000000000
    EFP Energy =                            0.0000000000000000
    Total Energy =                       -270.1174371990389886
    Molecular point group: c1
  Basis Set: CC-PVTZ
  Basis Set:

  -Total Gradient:
     Atom            X                  Y                   Z
    ------   -----------------  -----------------  -----------------
       1       -0.000003977488     0.000001370036     0.000003712401
       2        0.000022030065     0.000028861440     0.000006577599
       3        0.000004590402    -0.000007224199     0.000036100213
       4       -0.000019441952    -0.000007380484    -0.000019589778
       5       -0.000880854976    -0.001468307975    -0.000725627302
       6        0.000003402387    -0.000008740087     0.000000616382
       7       -0.000008790079    -0.000011056454     0.000000927036
       8       -0.000748779681    -0.001294247188    -0.001072460521
       9        0.000871923517     0.001439876648     0.000745745955
      10        0.000010847993    -0.000012165850     0.000001961097
      11       -0.000007477343     0.000013394663    -0.000014926205
      12        0.000764979258     0.001307952409     0.001032922273
      13       -0.000018608305     0.000004454202     0.000001545368
      14        0.000005240482     0.000007566326     0.000008124387
      15       -0.000000914857    -0.000002074864    -0.000000226933
      16        0.000005830573     0.000007721379    -0.000005401973

  **** Optimization is complete! (in 8 steps) ****
    Final optimized geometry and variables:
    Molecular point group: c1

    Geometry (in Angstrom), charge = 0, multiplicity = 1:

    H            2.470640248244    -0.214996630270    -0.515487277308
    C            1.613080748340    -0.899246345234    -0.471340579968
    C            0.264113031169    -0.239564213067    -0.555879670765
    O            1.789776371953    -2.062851995979    -0.360580751613
    C            0.072446298842     0.790437445619     0.561085999300
    H           -0.490814013093    -1.012024177254    -0.530108881350
    H            0.207027825145     0.260940030483    -1.520846423741
    C           -1.194553266254     1.637934194367     0.434084076512
    H            0.077238080126     0.287760002412     1.524028537643
    H            0.927997802398     1.460514660354     0.571406462216
    C           -2.497722057995     0.846181094738     0.386587310305
    H           -1.113676626461     2.272635715783    -0.444109958521
    H           -1.227025397248     2.313770716722     1.282938990178
    H           -2.568893842023     0.233416554364    -0.503793010918
    H           -3.350004924572     1.515238821346     0.389804665085
    H           -2.588279653037     0.191786249845     1.247432158800

  Mulliken Charges: (a.u.)
   Center  Symbol    Alpha    Beta     Spin     Total
       1     H     0.46396  0.46396  0.00000  0.07208
       2     C     2.91093  2.91093  0.00000  0.17815
       3     C     3.08134  3.08134  0.00000 -0.16267
       4     O     4.16319  4.16319  0.00000 -0.32638
       5     C     3.10864  3.10864  0.00000 -0.21729
       6     H     0.44139  0.44139  0.00000  0.11721
       7     H     0.44900  0.44900  0.00000  0.10200
       8     C     3.09078  3.09078  0.00000 -0.18156
       9     H     0.44393  0.44393  0.00000  0.11215
      10     H     0.44721  0.44721  0.00000  0.10559
      11     C     3.15277  3.15277  0.00000 -0.30553
      12     H     0.45239  0.45239  0.00000  0.09522
      13     H     0.44661  0.44661  0.00000  0.10679
      14     H     0.45171  0.45171  0.00000  0.09658
      15     H     0.44436  0.44436  0.00000  0.11127
      16     H     0.45180  0.45180  0.00000  0.09640

   Total alpha = 24.00000, Total beta = 24.00000, Total charge = -0.00000

*** Psi4 exiting successfully. Buy a developer a beer!
