                              Psi4 1.0.54 Driver

  ==> Input File <==

--------------------------------------------------------------------------
set {
	reference rhf
	basis cc-pvtz
}

set_num_threads( 4 )
memory 2 gb

molecule MOL {
0 1

H	 3.459101	 0.139266	 -0.762951
C	 2.749156	 -0.051729	 0.031265
C	 1.322304	 0.099773	 -0.484271
H	 2.929445	 -1.053887	 0.403481
H	 2.954281	 0.646699	 0.834672
C	 0.308557	 -0.162619	 0.622645
H	 1.143368	 -0.594400	 -1.295960
H	 1.169532	 1.100095	 -0.870217
N	 -1.069352	 -0.004081	 0.085342
H	 0.371632	 -1.172932	 0.991288
H	 0.400391	 0.548875	 1.426218
O	 -1.938595	 0.184535	 0.868551
O	 -1.209751	 -0.105946	 -1.087200

	symmetry c1
}
set optking {
	frozen_dihedral = ("
		12 9 6 3
	")
}

ee,wfn = optimize('scf', return_wfn=True)
oeprop( wfn, 'DIPOLE', 'QUADRUPOLE', 'MULLIKEN_CHARGES')
f=open( 'psi4out.xyz', 'w' )
f.write( "13  " )
f.write( str(ee) + "\n" )
f.write( MOL.save_string_xyz() )
f.close()
--------------------------------------------------------------------------

    Molecular point group: c1
  Charge       = 0
  Multiplicity = 1
  Basis Set: CC-PVTZ
  Basis Set:
  @DF-RHF Final Energy:  -321.85899628404098
    Total Energy =                       -321.8589962840413250
    Molecular point group: c1
  Basis Set: CC-PVTZ
  Basis Set:
  Basis Set: CC-PVTZ
  Basis Set:
  @DF-RHF Final Energy:  -321.85997000122319
    Total Energy =                       -321.8599700012231892
  Basis Set: CC-PVTZ
  Basis Set:
  Basis Set: CC-PVTZ
  Basis Set:
  @DF-RHF Final Energy:  -321.85740883915173
    Total Energy =                       -321.8574088391519581
  Basis Set: CC-PVTZ
  Basis Set:
  Basis Set: CC-PVTZ
  Basis Set:
  @DF-RHF Final Energy:  -321.86003644940217
    Total Energy =                       -321.8600364494019459
  Basis Set: CC-PVTZ
  Basis Set:
  Basis Set: CC-PVTZ
  Basis Set:
  @DF-RHF Final Energy:  -321.86050752796643
    Total Energy =                       -321.8605075279663197
  Basis Set: CC-PVTZ
  Basis Set:
  Basis Set: CC-PVTZ
  Basis Set:
  @DF-RHF Final Energy:  -321.86061054489988
    Total Energy =                       -321.8606105448999415
  Basis Set: CC-PVTZ
  Basis Set:
  Basis Set: CC-PVTZ
  Basis Set:
  @DF-RHF Final Energy:  -321.86061268296658
    Total Energy =                       -321.8606126829666891
  Basis Set: CC-PVTZ
  Basis Set:
  Charge       = 0
  Multiplicity = 1
  Basis Set: CC-PVTZ
  Basis Set:

    Orbital Energies (a.u.)
    -----------------------

    Doubly Occupied:

       1A    -20.592630     2A    -20.588780     3A    -15.838400
       4A    -11.298978     5A    -11.247493     6A    -11.235071
       7A     -1.637180     8A     -1.421274     9A     -1.131776
      10A     -1.026789    11A     -0.884859    12A     -0.827247
      13A     -0.763399    14A     -0.750981    15A     -0.730846
      16A     -0.658808    17A     -0.607064    18A     -0.577499
      19A     -0.553388    20A     -0.522323    21A     -0.509759
      22A     -0.488032    23A     -0.474498    24A     -0.453980

  @DF-RHF Final Energy:  -321.86061278990138

   => Energetics <=

    Nuclear Repulsion Energy =            247.6336258615073689
    One-Electron Energy =                -929.3463735369193728
    Two-Electron Energy =                 359.8521348855102815
    DFT Exchange-Correlation Energy =       0.0000000000000000
    Empirical Dispersion Energy =           0.0000000000000000
    PCM Polarization Energy =               0.0000000000000000
    EFP Energy =                            0.0000000000000000
    Total Energy =                       -321.8606127899016656
    Molecular point group: c1
  Basis Set: CC-PVTZ
  Basis Set:

  -Total Gradient:
     Atom            X                  Y                   Z
    ------   -----------------  -----------------  -----------------
       1       -0.000003729826     0.000000139841    -0.000001548981
       2        0.000004065630    -0.000005248330     0.000003635994
       3       -0.000017924419    -0.000211713379    -0.000065198828
       4        0.000000339898    -0.000000365445     0.000001796446
       5        0.000000913823     0.000001578356    -0.000000323374
       6       -0.000003069465     0.000206336719     0.000092939560
       7       -0.000004542534    -0.000001180832     0.000005597736
       8       -0.000003629311     0.000002428242     0.000003245207
       9        0.000043706469     0.000297996428     0.000033280728
      10        0.000004558880     0.000002284716    -0.000004177094
      11        0.000010689277    -0.000000821256    -0.000005064572
      12       -0.000025520145    -0.000294299420    -0.000029219768
      13       -0.000005858283     0.000002864362    -0.000034963050

  **** Optimization is complete! (in 8 steps) ****
    Final optimized geometry and variables:
    Molecular point group: c1

    Geometry (in Angstrom), charge = 0, multiplicity = 1:

    H            3.432544852558    -0.080708016868    -1.038242423359
    C            2.754595575384    -0.244306588049    -0.210773130041
    C            1.315963890304     0.027506807698    -0.641981981908
    H            2.881025974411    -1.268732349246     0.122146463199
    H            3.057880505345     0.409169723496     0.599675063024
    C            0.362532519339    -0.199270094798     0.513851453293
    H            1.044192744545    -0.614368541101    -1.467344258004
    H            1.219806780516     1.048020002259    -0.991965334144
    N           -1.066538495602     0.076673612621     0.177514959039
    H            0.363477214126    -1.228965885039     0.845057544433
    H            0.573946806982     0.427970258120     1.364306871619
    O           -1.790924561944     0.274994651394     1.094481006630
    O           -1.393434065565     0.052423111739    -0.959945327472

  Mulliken Charges: (a.u.)
   Center  Symbol    Alpha    Beta     Spin     Total
       1     H     0.44129  0.44129  0.00000  0.11742
       2     C     3.15250  3.15250  0.00000 -0.30499
       3     C     3.09186  3.09186  0.00000 -0.18372
       4     H     0.45303  0.45303  0.00000  0.09393
       5     H     0.45289  0.45289  0.00000  0.09421
       6     C     3.04574  3.04574  0.00000 -0.09148
       7     H     0.43607  0.43607  0.00000  0.12787
       8     H     0.44230  0.44230  0.00000  0.11539
       9     N     3.27376  3.27376  0.00000  0.45248
      10     H     0.43532  0.43532  0.00000  0.12935
      11     H     0.43204  0.43204  0.00000  0.13593
      12     O     4.17322  4.17322  0.00000 -0.34644
      13     O     4.16997  4.16997  0.00000 -0.33994

   Total alpha = 24.00000, Total beta = 24.00000, Total charge = -0.00000

*** Psi4 exiting successfully. Buy a developer a beer!
