  ==> Input File <==

--------------------------------------------------------------------------
set {
	reference rhf
	basis 6-31G*
}

set_num_threads( 1 )
memory 2 gb

molecule MOL {
0 1

H	 -2.853265	 -0.542794	 1.059176
C	 -2.734409	 -0.390949	 -0.011785
O	 -1.392607	 -0.295399	 -0.366433
H	 -3.150003	 -1.241562	 -0.534165
H	 -3.288917	 0.502057	 -0.297247
C	 -0.719715	 0.768384	 0.229244
C	 0.719720	 0.768376	 -0.229267
H	 -1.185038	 1.714362	 -0.050570
H	 -0.750528	 0.687237	 1.313896
O	 1.392611	 -0.295398	 0.366430
H	 0.750534	 0.687200	 -1.313918
H	 1.185043	 1.714359	 0.050526
C	 2.706965	 -0.449871	 -0.062409
H	 2.756559	 -0.644779	 -1.131878
H	 3.305899	 0.433456	 0.155466
H	 3.125548	 -1.294566	 0.467107

	symmetry c1
}
set optking {
	frozen_dihedral = ("
		3 6 7 11,
		7 10 13 14
	")
}

ee = energy('scf')
oeprop('DIPOLE', 'QUADRUPOLE', 'MULLIKEN_CHARGES')
f=open( 'psi4out.xyz', 'w' )
f.write( "16  " )
f.write( str(ee) + "\n" )
f.write( MOL.save_string_xyz() )
f.close()
--------------------------------------------------------------------------

    Molecular point group: c1

    Geometry (in Angstrom), charge = 0, multiplicity = 1:

       Center              X                  Y                   Z               Mass
    ------------   -----------------  -----------------  -----------------  -----------------
           H         -2.848444344998    -0.553144721776     1.072215720335     1.007825032070
           C         -2.729588344998    -0.401299721776     0.001254720335    12.000000000000
           O         -1.387786344998    -0.305749721776    -0.353393279665    15.994914619560
           H         -3.145182344998    -1.251912721776    -0.521125279665     1.007825032070
           H         -3.284096344998     0.491706278224    -0.284207279665     1.007825032070
           C         -0.714894344998     0.758033278224     0.242283720335    12.000000000000
           C          0.724540655002     0.758025278224    -0.216227279665    12.000000000000
           H         -1.180217344998     1.704011278224    -0.037530279665     1.007825032070
           H         -0.745707344998     0.676886278224     1.326935720335     1.007825032070
           O          1.397431655002    -0.305748721776     0.379469720335    15.994914619560
           H          0.755354655002     0.676849278224    -1.300878279665     1.007825032070
           H          1.189863655002     1.704008278224     0.063565720335     1.007825032070
           C          2.711785655002    -0.460221721776    -0.049369279665    12.000000000000
           H          2.761379655002    -0.655129721776    -1.118838279665     1.007825032070
           H          3.310719655002     0.423105278224     0.168505720335     1.007825032070
           H          3.130368655002    -1.304916721776     0.480146720335     1.007825032070

  Charge       = 0
  Multiplicity = 1
  Basis Set: 6-31G*
  Basis Set:

    Orbital Energies (a.u.)
    -----------------------

    Doubly Occupied:

       1A    -20.553672     2A    -20.553550     3A    -11.269095
       4A    -11.268436     5A    -11.263728     6A    -11.263478
       7A     -1.388326     8A     -1.370759     9A     -1.030873
      10A     -0.936013    11A     -0.892152    12A     -0.823970
      13A     -0.684481    14A     -0.680288    15A     -0.656943
      16A     -0.636144    17A     -0.629669    18A     -0.596945
      19A     -0.551505    20A     -0.534842    21A     -0.508712
      22A     -0.477362    23A     -0.463070    24A     -0.419981
      25A     -0.410370

  @DF-RHF Final Energy:  -306.97768403947799

   => Energetics <=

    Nuclear Repulsion Energy =            258.7319474101179253
    One-Electron Energy =                -931.6904464571603057
    Two-Electron Energy =                 365.9808150075647291
    DFT Exchange-Correlation Energy =       0.0000000000000000
    Empirical Dispersion Energy =           0.0000000000000000
    PCM Polarization Energy =               0.0000000000000000
    EFP Energy =                            0.0000000000000000
    Total Energy =                       -306.9776840394775945

  Mulliken Charges: (a.u.)
   Center  Symbol    Alpha    Beta     Spin     Total
       1     H     0.42843  0.42843  0.00000  0.14315
       2     C     3.07952  3.07952  0.00000 -0.15903
       3     O     4.30075  4.30075  0.00000 -0.60149
       4     H     0.41118  0.41118  0.00000  0.17763
       5     H     0.43177  0.43177  0.00000  0.13646
       6     C     2.99332  2.99332  0.00000  0.01336
       7     C     2.99326  2.99326  0.00000  0.01349
       8     H     0.43262  0.43262  0.00000  0.13476
       9     H     0.42242  0.42242  0.00000  0.15516
      10     O     4.30080  4.30080  0.00000 -0.60160
      11     H     0.42288  0.42288  0.00000  0.15424
      12     H     0.43230  0.43230  0.00000  0.13540
      13     C     3.07951  3.07951  0.00000 -0.15902
      14     H     0.42811  0.42811  0.00000  0.14378
      15     H     0.43191  0.43191  0.00000  0.13618
      16     H     0.41123  0.41123  0.00000  0.17753

   Total alpha = 25.00000, Total beta = 25.00000, Total charge =  0.00000
