  ==> Input File <==

--------------------------------------------------------------------------
set {
	reference rhf
	basis 6-31G*
}

set_num_threads( 4 )
memory 2 gb

molecule MOL {
0 1

H	 -2.153054	 -2.250733	 0.000000
O	 -2.462445	 -1.355403	 0.000000
C	 -1.434260	 -0.483044	 0.000000
C	 -0.160282	 -0.998433	 0.214627
C	 -1.606806	 0.873172	 -0.202032
H	 -0.050522	 -2.055314	 0.369249
C	 0.931284	 -0.154718	 0.225708
H	 -2.586306	 1.284548	 -0.369080
C	 -0.495009	 1.711703	 -0.187945
H	 1.912113	 -0.560710	 0.392185
C	 0.777868	 1.209965	 0.024721
C	 -0.683838	 3.129388	 -0.400099
H	 1.624995	 1.868669	 0.032793
N	 -0.834692	 4.242998	 -0.567494

	symmetry c1
}
set optking {
	frozen_dihedral = ("
		14 12 9 5
	")
}

ee = optimize('scf')
oeprop('DIPOLE', 'QUADRUPOLE', 'MULLIKEN_CHARGES')
f=open( 'psi4out.xyz', 'w' )
f.write( "14  " )
f.write( str(ee) + "\n" )
f.write( MOL.save_string_xyz() )
f.close()
--------------------------------------------------------------------------

    Molecular point group: c1
  Charge       = 0
  Multiplicity = 1
  Basis Set: 6-31G*
  Basis Set:
  @DF-RHF Final Energy:  -397.28898560103039
    Total Energy =                       -397.2889856010298217
    Molecular point group: c1
  Basis Set: 6-31G*
  Basis Set:
  Basis Set: 6-31G*
  Basis Set:
  @DF-RHF Final Energy:  -396.79223052651912
    Total Energy =                       -396.7922305265194609
  Basis Set: 6-31G*
  Basis Set:
  Basis Set: 6-31G*
  Basis Set:
  @DF-RHF Final Energy:  -396.80702292850509
    Total Energy =                       -396.8070229285053188
  Basis Set: 6-31G*
  Basis Set:
  Basis Set: 6-31G*
  Basis Set:
  @DF-RHF Final Energy:  -396.81243002619124
    Total Energy =                       -396.8124300261918620
  Basis Set: 6-31G*
  Basis Set:
  @DF-RHF Final Energy:  -396.82049622273092
    Total Energy =                       -396.8204962227311512
  @DF-RHF Final Energy:  -396.86539481573578
    Total Energy =                       -396.8653948157353852
  @DF-RHF Final Energy:  -396.90372973563194
    Total Energy =                       -396.9037297356321119
  @DF-RHF Final Energy:  -396.92921913380781
    Total Energy =                       -396.9292191338077487
  @DF-RHF Final Energy:  -396.93588410251681
    Total Energy =                       -396.9358841025169227
  @DF-RHF Final Energy:  -396.95500893083624
    Total Energy =                       -396.9550089308359020
  @DF-RHF Final Energy:  -396.95872454283131
    Total Energy =                       -396.9587245428313054
  @DF-RHF Final Energy:  -396.96010938495704
    Total Energy =                       -396.9601093849568088
  @DF-RHF Final Energy:  -396.96319996895193
    Total Energy =                       -396.9631999689518693
  @DF-RHF Final Energy:  -396.96728963132909
    Total Energy =                       -396.9672896313290948
  @DF-RHF Final Energy:  -396.93378083251889
    Total Energy =                       -396.9337808325187780
  @DF-RHF Final Energy:  -396.97094007798790
    Total Energy =                       -396.9709400779877910
  @DF-RHF Final Energy:  -396.97302174711632
    Total Energy =                       -396.9730217471167180
  @DF-RHF Final Energy:  -396.97377035070571
    Total Energy =                       -396.9737703507053652
  @DF-RHF Final Energy:  -396.97440946161021
    Total Energy =                       -396.9744094616103212
  @DF-RHF Final Energy:  -396.97479430826752
    Total Energy =                       -396.9747943082675192
  @DF-RHF Final Energy:  -396.97593199802299
    Total Energy =                       -396.9759319980228724
  @DF-RHF Final Energy:  -396.97595372619412
    Total Energy =                       -396.9759537261942342
  @DF-RHF Final Energy:  -396.97593623533953
    Total Energy =                       -396.9759362353393612
  @DF-RHF Final Energy:  -396.97598043253805
    Total Energy =                       -396.9759804325381651
  @DF-RHF Final Energy:  -396.97377974362661
    Total Energy =                       -396.9737797436264373
  @DF-RHF Final Energy:  -396.96817589788770
    Total Energy =                       -396.9681758978875905
  @DF-RHF Final Energy:  -396.97587446770001
    Total Energy =                       -396.9758744677000095
  @DF-RHF Final Energy:  -396.97584475413117
    Total Energy =                       -396.9758447541311170
  @DF-RHF Final Energy:  -396.97590943400093
    Total Energy =                       -396.9759094340007550
  @DF-RHF Final Energy:  -396.97591071226202
    Total Energy =                       -396.9759107122621913
  @DF-RHF Final Energy:  -396.97590608510706
    Total Energy =                       -396.9759060851066579
  @DF-RHF Final Energy:  -396.97589982409471
    Total Energy =                       -396.9758998240947676
  @DF-RHF Final Energy:  -396.97589482385195
    Total Energy =                       -396.9758948238514904
  @DF-RHF Final Energy:  -396.97588870221523
    Total Energy =                       -396.9758887022155136
  @DF-RHF Final Energy:  -396.97588222536427
    Total Energy =                       -396.9758822253642165
  @DF-RHF Final Energy:  -396.97587898921967
    Total Energy =                       -396.9758789892196091
  Basis Set: 6-31G*
  Basis Set:
  @DF-RHF Final Energy:  -396.97588066609046
    Total Energy =                       -396.9758806660898927
  Basis Set: 6-31G*
  Basis Set:
  Basis Set: 6-31G*
  Basis Set:
  @DF-RHF Final Energy:  -396.97588269858056
    Total Energy =                       -396.9758826985810174
  Basis Set: 6-31G*
  Basis Set:
  Basis Set: 6-31G*
  Basis Set:
  @DF-RHF Final Energy:  -396.97588144728633
    Total Energy =                       -396.9758814472865538
  Basis Set: 6-31G*
  Basis Set:
  Charge       = 0
  Multiplicity = 1
  Basis Set: 6-31G*
  Basis Set:

    Orbital Energies (a.u.)
    -----------------------

    Doubly Occupied:

       1A    -20.611478     2A    -15.614143     3A    -11.322340
       4A    -11.281362     5A    -11.274769     6A    -11.263978
       7A    -11.263906     8A    -11.260352     9A    -11.248131
      10A     -1.430809    11A     -1.184790    12A     -1.099902
      13A     -1.045710    14A     -1.016965    15A     -0.891015
      16A     -0.851357    17A     -0.788863    18A     -0.714636
      19A     -0.703863    20A     -0.664793    21A     -0.630918
      22A     -0.611641    23A     -0.589770    24A     -0.575495
      25A     -0.528483    26A     -0.507906    27A     -0.503233
      28A     -0.434997    29A     -0.377941    30A     -0.338154
      31A     -0.313261

  @DF-RHF Final Energy:  -396.97587780526243

   => Energetics <=

    Nuclear Repulsion Energy =            376.1797193452184160
    One-Electron Energy =               -1284.4212772278310695
    Two-Electron Energy =                 511.2656800773504528
    DFT Exchange-Correlation Energy =       0.0000000000000000
    Empirical Dispersion Energy =           0.0000000000000000
    PCM Polarization Energy =               0.0000000000000000
    EFP Energy =                            0.0000000000000000
    Total Energy =                       -396.9758778052621437
    Molecular point group: c1
  Basis Set: 6-31G*
  Basis Set:

  -Total Gradient:
     Atom            X                  Y                   Z
    ------   -----------------  -----------------  -----------------
       1        0.000133159771    -0.000320218617    -0.000069340344
       2       -0.000012866810     0.000405154316    -0.000040148267
       3        0.000332600472    -0.000288100873     0.000018917493
       4       -0.000253453716     0.000050779781     0.000103305477
       5       -0.000096740953     0.000045580919    -0.000086956107
       6       -0.000078174499     0.000203441319     0.000024845985
       7        0.000061770700     0.000042128770    -0.000027597719
       8        0.000064473149    -0.000036727377    -0.000120262915
       9        0.000379013297     0.000040137608    -0.001137789112
      10       -0.000266818404     0.000116201440     0.000086299241
      11        0.000169424838    -0.000079047181     0.000270107542
      12       -0.000055150656     0.000470633654     0.001834865620
      13       -0.000182240595    -0.000141511474     0.000158789687
      14       -0.000194996592    -0.000508452278    -0.001015036581

    Molecular point group: c1

    Geometry (in Angstrom), charge = 0, multiplicity = 1:

    H           -1.455791136049    -3.146022862971     0.198650275847
    O           -1.763518074096    -2.261379271829     0.057145453116
    C           -0.743255720258    -1.373847719020     0.087241991477
    C            0.571467572846    -1.747549613222     0.334046950157
    C           -1.029793621354    -0.041906214662    -0.127541342082
    H            0.801269475755    -2.784488182117     0.514580716549
    C            1.598301088510    -0.809584258684     0.353087536281
    H           -2.039743116640     0.272525516879    -0.306984997881
    C           -0.006672589128     0.923509243469    -0.120959118519
    H            2.602834509539    -1.135163411588     0.549036894084
    C            1.324538154165     0.519002797052     0.119848516250
    C           -0.442644340223     2.278832066347    -0.343489901598
    H            2.100944686978     1.255225242211     0.121098187922
    N            0.779742758799     3.197180195779    -0.401744361140

  Mulliken Charges: (a.u.)
   Center  Symbol    Alpha    Beta     Spin     Total
       1     H     0.27016  0.27016  0.00000  0.45968
       2     O     4.37609  4.37609  0.00000 -0.75218
       3     C     2.80587  2.80587  0.00000  0.38827
       4     C     3.11127  3.11127  0.00000 -0.22254
       5     C     3.08694  3.08694  0.00000 -0.17388
       6     H     0.39182  0.39182  0.00000  0.21635
       7     C     3.10795  3.10795  0.00000 -0.21589
       8     H     0.37005  0.37005  0.00000  0.25991
       9     C     3.08421  3.08421  0.00000 -0.16842
      10     H     0.38877  0.38877  0.00000  0.22245
      11     C     3.07444  3.07444  0.00000 -0.14887
      12     C     2.92131  2.92131  0.00000  0.15737
      13     H     0.36947  0.36947  0.00000  0.26105
      14     N     3.64165  3.64165  0.00000 -0.28330

   Total alpha = 31.00000, Total beta = 31.00000, Total charge =  0.00000
