  ==> Input File <==

--------------------------------------------------------------------------
set {
	reference rhf
	basis 6-31G*
}

set_num_threads( 1 )
memory 2 gb

molecule MOL {
0 1

H	 3.155912	 0.966558	 -1.147972
O	 2.223730	 0.831975	 -1.007684
C	 2.077727	 -0.067559	 -0.035091
C	 0.624473	 -0.343591	 0.253101
O	 3.008669	 -0.564869	 0.509928
C	 -0.265902	 0.883932	 0.072916
H	 0.324016	 -1.163849	 -0.390541
H	 0.565024	 -0.726111	 1.268924
C	 -1.728698	 0.646073	 0.462102
H	 -0.209144	 1.219470	 -0.958188
H	 0.135059	 1.692851	 0.673903
C	 -2.482460	 -0.343073	 -0.431425
H	 -2.245265	 1.602650	 0.432430
H	 -1.779332	 0.308348	 1.496285
C	 -3.960546	 -0.461025	 -0.060175
H	 -2.395034	 -0.026811	 -1.468912
H	 -2.024850	 -1.327147	 -0.371646
H	 -4.472726	 -1.168004	 -0.705284
H	 -4.465146	 0.496508	 -0.151489
H	 -4.081218	 -0.800940	 0.964585

	symmetry c1
}
set optking {
	frozen_dihedral = ("
		16 12 9 6,
		7 4 6 10,
		12 9 6 10,
		1 2 3 5
	")
}

ee = energy('scf')
oeprop('DIPOLE', 'QUADRUPOLE', 'MULLIKEN_CHARGES')
f=open( 'psi4out.xyz', 'w' )
f.write( "20  " )
f.write( str(ee) + "\n" )
f.write( MOL.save_string_xyz() )
f.close()
--------------------------------------------------------------------------

    Molecular point group: c1

    Geometry (in Angstrom), charge = 0, multiplicity = 1:

       Center              X                  Y                   Z               Mass
    ------------   -----------------  -----------------  -----------------  -----------------
           H          3.179711043314     0.887896287064    -1.103304807136     1.007825032070
           O          2.247529043314     0.753313287064    -0.963016807136    15.994914619560
           C          2.101526043314    -0.146220712936     0.009576192864    12.000000000000
           C          0.648272043314    -0.422252712936     0.297768192864    12.000000000000
           O          3.032468043314    -0.643530712936     0.554595192864    15.994914619560
           C         -0.242102956686     0.805270287064     0.117583192864    12.000000000000
           H          0.347815043314    -1.242510712936    -0.345873807136     1.007825032070
           H          0.588823043314    -0.804772712936     1.313591192864     1.007825032070
           C         -1.704898956686     0.567411287064     0.506769192864    12.000000000000
           H         -0.185344956686     1.140808287064    -0.913520807136     1.007825032070
           H          0.158858043314     1.614189287064     0.718570192864     1.007825032070
           C         -2.458660956686    -0.421734712936    -0.386757807136    12.000000000000
           H         -2.221465956686     1.523988287064     0.477097192864     1.007825032070
           H         -1.755532956686     0.229686287064     1.540952192864     1.007825032070
           C         -3.936746956686    -0.539686712936    -0.015507807136    12.000000000000
           H         -2.371234956686    -0.105472712936    -1.424244807136     1.007825032070
           H         -2.001050956686    -1.405808712936    -0.326978807136     1.007825032070
           H         -4.448926956686    -1.246665712936    -0.660616807136     1.007825032070
           H         -4.441346956686     0.417846287064    -0.106821807136     1.007825032070
           H         -4.057418956686    -0.879601712936     1.009252192864     1.007825032070

  Charge       = 0
  Multiplicity = 1
  Basis Set: 6-31G*
  Basis Set:

    Orbital Energies (a.u.)
    -----------------------

    Doubly Occupied:

       1A    -20.613288     2A    -20.549407     3A    -11.380809
       4A    -11.239437     5A    -11.227100     6A    -11.222499
       7A    -11.221755     8A    -11.213523     9A     -1.474611
      10A     -1.364653    11A     -1.099045    12A     -1.042657
      13A     -0.959702    14A     -0.861991    15A     -0.825121
      16A     -0.791616    17A     -0.699598    18A     -0.682237
      19A     -0.660632    20A     -0.631010    21A     -0.607392
      22A     -0.590304    23A     -0.575605    24A     -0.553461
      25A     -0.548298    26A     -0.519137    27A     -0.497879
      28A     -0.481556    29A     -0.477070    30A     -0.469400
      31A     -0.458242    32A     -0.434114

  @DF-RHF Final Energy:  -383.94600803500100

   => Energetics <=

    Nuclear Repulsion Energy =            377.6058662533331471
    One-Electron Energy =               -1271.1574722227242091
    Two-Electron Energy =                 509.6055979343892091
    DFT Exchange-Correlation Energy =       0.0000000000000000
    Empirical Dispersion Energy =           0.0000000000000000
    PCM Polarization Energy =               0.0000000000000000
    EFP Energy =                            0.0000000000000000
    Total Energy =                       -383.9460080350018529

  Mulliken Charges: (a.u.)
   Center  Symbol    Alpha    Beta     Spin     Total
       1     H     0.26760  0.26760  0.00000  0.46480
       2     O     4.34775  4.34775  0.00000 -0.69551
       3     C     2.62372  2.62372  0.00000  0.75257
       4     C     3.21168  3.21168  0.00000 -0.42336
       5     O     4.28136  4.28136  0.00000 -0.56273
       6     C     3.15958  3.15958  0.00000 -0.31917
       7     H     0.39704  0.39704  0.00000  0.20592
       8     H     0.39740  0.39740  0.00000  0.20519
       9     C     3.15492  3.15492  0.00000 -0.30985
      10     H     0.40647  0.40647  0.00000  0.18706
      11     H     0.41430  0.41430  0.00000  0.17139
      12     C     3.15499  3.15499  0.00000 -0.30999
      13     H     0.41831  0.41831  0.00000  0.16339
      14     H     0.42232  0.42232  0.00000  0.15537
      15     C     3.23935  3.23935  0.00000 -0.47870
      16     H     0.42139  0.42139  0.00000  0.15723
      17     H     0.42223  0.42223  0.00000  0.15554
      18     H     0.41801  0.41801  0.00000  0.16398
      19     H     0.42078  0.42078  0.00000  0.15845
      20     H     0.42080  0.42080  0.00000  0.15840

   Total alpha = 32.00000, Total beta = 32.00000, Total charge =  0.00000
