  ==> Input File <==

--------------------------------------------------------------------------
set {
	reference rhf
	basis cc-pvtz
}

set_num_threads( 4 )
memory 2 gb

molecule MOL {
0 1

H	 -1.088256	 -1.364742	 0.152233
O	 -1.432053	 -0.565244	 -0.200812
C	 -0.727158	 0.534527	 0.310686
C	 0.680222	 0.664433	 -0.252229
H	 -1.306802	 1.408001	 0.044211
H	 -0.690821	 0.490158	 1.397609
C	 1.254319	 2.075269	 -0.162791
H	 1.328616	 -0.029144	 0.272907
H	 0.655481	 0.349841	 -1.291974
H	 1.350571	 2.401549	 0.866967
H	 2.241801	 2.121283	 -0.605864
H	 0.625478	 2.789842	 -0.685191

	symmetry c1
}
set optking {
	frozen_dihedral = ("
		8 4 3 2
	")
}

ee = optimize('scf')
oeprop('DIPOLE', 'QUADRUPOLE', 'MULLIKEN_CHARGES')
f=open( 'psi4out.xyz', 'w' )
f.write( "12  " )
f.write( str(ee) + "\n" )
f.write( MOL.save_string_xyz() )
f.close()
--------------------------------------------------------------------------

    Molecular point group: c1
  Charge       = 0
  Multiplicity = 1
  Basis Set: CC-PVTZ
  Basis Set:
  @DF-RHF Final Energy:  -193.18928495658844
    Total Energy =                       -193.1892849565882955
    Molecular point group: c1
  Basis Set: CC-PVTZ
  Basis Set:
  Basis Set: CC-PVTZ
  Basis Set:
  @DF-RHF Final Energy:  -193.18967958511095
    Total Energy =                       -193.1896795851109232
  Basis Set: CC-PVTZ
  Basis Set:
  Basis Set: CC-PVTZ
  Basis Set:
  @DF-RHF Final Energy:  -193.18972981371220
    Total Energy =                       -193.1897298137122334
  Basis Set: CC-PVTZ
  Basis Set:
  Basis Set: CC-PVTZ
  Basis Set:
  @DF-RHF Final Energy:  -193.18973479259881
    Total Energy =                       -193.1897347925989266
  Basis Set: CC-PVTZ
  Basis Set:
  Charge       = 0
  Multiplicity = 1
  Basis Set: CC-PVTZ
  Basis Set:

    Orbital Energies (a.u.)
    -----------------------

    Doubly Occupied:

       1A    -20.546155     2A    -11.265524     3A    -11.217004
       4A    -11.213462     5A     -1.363829     6A     -1.053671
       7A     -0.918458     8A     -0.819484     9A     -0.695606
      10A     -0.634842    11A     -0.602318    12A     -0.589345
      13A     -0.540506    14A     -0.504390    15A     -0.497002
      16A     -0.469401    17A     -0.432569

  @DF-RHF Final Energy:  -193.18973529662173

   => Energetics <=

    Nuclear Repulsion Energy =            131.1157041758106061
    One-Electron Energy =                -521.8837482145157765
    Two-Electron Energy =                 197.5783087420833795
    DFT Exchange-Correlation Energy =       0.0000000000000000
    Empirical Dispersion Energy =           0.0000000000000000
    PCM Polarization Energy =               0.0000000000000000
    EFP Energy =                            0.0000000000000000
    Total Energy =                       -193.1897352966217909
    Molecular point group: c1
  Basis Set: CC-PVTZ
  Basis Set:

  -Total Gradient:
     Atom            X                  Y                   Z
    ------   -----------------  -----------------  -----------------
       1       -0.000008906500    -0.000016904014    -0.000002062822
       2       -0.001145914133     0.001765580642    -0.002377362584
       3        0.001792313149    -0.001662502022     0.003880878288
       4       -0.001567963324    -0.002989842375    -0.004147273173
       5        0.000016580083     0.000014295557     0.000002715003
       6       -0.000000071426    -0.000030186685     0.000002439813
       7        0.000005069868     0.000008139188     0.000005278515
       8        0.000914445822     0.002936529596     0.002631447544
       9        0.000005814980    -0.000012212692    -0.000006223996
      10        0.000003525014    -0.000006940409     0.000017977178
      11       -0.000014344680     0.000001065114     0.000006541222
      12       -0.000000548855    -0.000007021900    -0.000014354989

  **** Optimization is complete! (in 5 steps) ****
    Final optimized geometry and variables:
    Molecular point group: c1

    Geometry (in Angstrom), charge = 0, multiplicity = 1:

    H           -0.939512845039    -1.996845779042     0.184794782859
    O           -1.353022167224    -1.198043627201    -0.088673336736
    C           -0.629989810564    -0.093290932314     0.383411410225
    C            0.766149756145     0.011663180417    -0.217954909406
    H           -1.213708415876     0.773006733052     0.098988271658
    H           -0.575071746437    -0.100205204067     1.469480611434
    C            1.340486422048     1.421111094094    -0.097168239604
    H            1.436729847360    -0.672389168503     0.296344112558
    H            0.718496506074    -0.286039029165    -1.258710930700
    H            1.371668734396     1.746179088509     0.937912726454
    H            2.351165887819     1.464818409995    -0.484529316732
    H            0.741500363784     2.136298031529    -0.650066682282

  Mulliken Charges: (a.u.)
   Center  Symbol    Alpha    Beta     Spin     Total
       1     H     0.39504  0.39504  0.00000  0.20992
       2     O     4.20068  4.20068  0.00000 -0.40136
       3     C     2.96461  2.96461  0.00000  0.07078
       4     C     3.09212  3.09212  0.00000 -0.18424
       5     H     0.45955  0.45955  0.00000  0.08091
       6     H     0.47017  0.47017  0.00000  0.05966
       7     C     3.15226  3.15226  0.00000 -0.30452
       8     H     0.46065  0.46065  0.00000  0.07871
       9     H     0.44821  0.44821  0.00000  0.10357
      10     H     0.45579  0.45579  0.00000  0.08841
      11     H     0.44778  0.44778  0.00000  0.10445
      12     H     0.45315  0.45315  0.00000  0.09370

   Total alpha = 17.00000, Total beta = 17.00000, Total charge =  0.00000
