                              Psi4 1.0.54 Driver

  ==> Input File <==

--------------------------------------------------------------------------
set {
	reference rhf
	basis cc-pvtz
}

set_num_threads( 4 )
memory 2 gb

molecule MOL {
0 1

H	 2.867672	 -0.456275	 0.875795
C	 2.403497	 -0.020426	 0.000000
N	 0.989899	 -0.304564	 0.000000
H	 2.867672	 -0.456275	 -0.875795
H	 2.620366	 1.051270	 0.000000
C	 0.277836	 0.429829	 -1.025281
C	 0.382290	 -0.089833	 1.297023
H	 0.369520	 1.510602	 -0.879446
H	 0.702363	 0.192425	 -1.993860
C	 -1.190360	 0.049714	 -1.012913
H	 0.883458	 -0.708530	 2.032396
H	 0.481831	 0.951853	 1.617530
C	 -1.088590	 -0.456596	 1.249722
H	 -1.745870	 0.659172	 -1.711910
H	 -1.298325	 -0.993475	 -1.303084
O	 -1.754114	 0.254673	 0.248562
H	 -1.570537	 -0.213118	 2.186244
H	 -1.191288	 -1.525985	 1.076636

	symmetry c1
}
set optking {
	frozen_dihedral = ("
		6 3 2 5
	")
}

ee,wfn = optimize('scf', return_wfn=True)
oeprop( wfn, 'DIPOLE', 'QUADRUPOLE', 'MULLIKEN_CHARGES')
f=open( 'psi4out.xyz', 'w' )
f.write( "18  " )
f.write( str(ee) + "\n" )
f.write( MOL.save_string_xyz() )
f.close()
--------------------------------------------------------------------------

    Molecular point group: c1
  Charge       = 0
  Multiplicity = 1
  Basis Set: CC-PVTZ
  Basis Set:
  @DF-RHF Final Energy:  -325.14514435311787
    Total Energy =                       -325.1451443531182122
    Molecular point group: c1
  Basis Set: CC-PVTZ
  Basis Set:
  Basis Set: CC-PVTZ
  Basis Set:
  @DF-RHF Final Energy:  -325.14521185467805
    Total Energy =                       -325.1452118546776546
  Basis Set: CC-PVTZ
  Basis Set:
  Charge       = 0
  Multiplicity = 1
  Basis Set: CC-PVTZ
  Basis Set:

    Orbital Energies (a.u.)
    -----------------------

    Doubly Occupied:

       1A    -20.547591     2A    -15.544989     3A    -11.264433
       4A    -11.264328     5A    -11.242591     6A    -11.242549
       7A    -11.239186     8A     -1.386552     9A     -1.234226
      10A     -1.039045    11A     -0.982095    12A     -0.883831
      13A     -0.869674    14A     -0.775108    15A     -0.685174
      16A     -0.646503    17A     -0.645171    18A     -0.635063
      19A     -0.631211    20A     -0.574332    21A     -0.557405
      22A     -0.540558    23A     -0.527543    24A     -0.501606
      25A     -0.484825    26A     -0.453956    27A     -0.410622
      28A     -0.356884

  @DF-RHF Final Energy:  -325.14521542243267

   => Energetics <=

    Nuclear Repulsion Energy =            341.9709895194741875
    One-Electron Energy =               -1119.8983122634444953
    Two-Electron Energy =                 452.7821073215374099
    DFT Exchange-Correlation Energy =       0.0000000000000000
    Empirical Dispersion Energy =           0.0000000000000000
    PCM Polarization Energy =               0.0000000000000000
    EFP Energy =                            0.0000000000000000
    Total Energy =                       -325.1452154224328979
    Molecular point group: c1
  Basis Set: CC-PVTZ
  Basis Set:

  -Total Gradient:
     Atom            X                  Y                   Z
    ------   -----------------  -----------------  -----------------
       1        0.000035278668    -0.000007288767     0.000002163603
       2       -0.000239395559     0.000569805664     0.004328184915
       3        0.000373903862    -0.002109303442    -0.002622426779
       4       -0.000030488435     0.000024786358    -0.000012389213
       5        0.000020561305     0.000017802808    -0.002924126883
       6       -0.000218343231     0.001435106696     0.001426227108
       7        0.000152985899    -0.000101417854    -0.000026328687
       8       -0.000045437678     0.000004731256    -0.000022427372
       9       -0.000012964741     0.000048427716    -0.000074877796
      10       -0.000047619963     0.000112731923    -0.000044393143
      11       -0.000013736903     0.000015801452     0.000060065205
      12        0.000010960836     0.000030880874    -0.000024361471
      13        0.000037147461    -0.000060448635    -0.000068255316
      14       -0.000015702599    -0.000006240526    -0.000013198861
      15        0.000032679683     0.000015715323     0.000004423741
      16       -0.000044670008     0.000018134414     0.000011150629
      17        0.000024853480     0.000012197992    -0.000013406852
      18       -0.000020012080    -0.000021423251     0.000013977173

  **** Optimization is complete! (in 3 steps) ****
    Final optimized geometry and variables:
    Molecular point group: c1

    Geometry (in Angstrom), charge = 0, multiplicity = 1:

    H            2.879621759711    -0.456545374634     0.750442225941
    C            2.401785649786    -0.008099403909    -0.110344077011
    N            0.988465982091    -0.301840014449    -0.105998305713
    H            2.860171144445    -0.423431333494    -1.000477906373
    H            2.610691051359     1.064599117933    -0.108810959967
    C            0.278432412336     0.435605363857    -1.131196202387
    C            0.377567064667    -0.070085416284     1.188152181573
    H            0.372235629513     1.515161327996    -0.979805242682
    H            0.705336863605     0.202826445896    -2.100477320756
    C           -1.190579470369     0.058930557240    -1.124798942440
    H            0.874086689513    -0.681464679808     1.932527203136
    H            0.476114042960     0.975086866656     1.497505997568
    C           -1.093584093077    -0.436621304143     1.140244055188
    H           -1.741314668422     0.668724973564    -1.827415604671
    H           -1.299744227465    -0.984391829775    -1.414053352806
    O           -1.758641783361     0.267756067313     0.133964079727
    H           -1.576512922205    -0.187493880586     2.074843238582
    H           -1.195236050427    -1.507330004686     0.974172771905

  Mulliken Charges: (a.u.)
   Center  Symbol    Alpha    Beta     Spin     Total
       1     H     0.45214  0.45214  0.00000  0.09573
       2     C     3.09499  3.09499  0.00000 -0.18998
       3     N     3.61751  3.61751  0.00000 -0.23503
       4     H     0.45051  0.45051  0.00000  0.09897
       5     H     0.46900  0.46900  0.00000  0.06200
       6     C     3.04208  3.04208  0.00000 -0.08416
       7     C     3.04023  3.04023  0.00000 -0.08047
       8     H     0.46796  0.46796  0.00000  0.06408
       9     H     0.45411  0.45411  0.00000  0.09179
      10     C     2.98337  2.98337  0.00000  0.03325
      11     H     0.45380  0.45380  0.00000  0.09239
      12     H     0.46940  0.46940  0.00000  0.06120
      13     C     2.98387  2.98387  0.00000  0.03226
      14     H     0.44981  0.44981  0.00000  0.10039
      15     H     0.46744  0.46744  0.00000  0.06511
      16     O     4.18649  4.18649  0.00000 -0.37297
      17     H     0.44974  0.44974  0.00000  0.10052
      18     H     0.46755  0.46755  0.00000  0.06490

   Total alpha = 28.00000, Total beta = 28.00000, Total charge = -0.00000

*** Psi4 exiting successfully. Buy a developer a beer!
