  ==> Input File <==

--------------------------------------------------------------------------
set {
	reference rhf
	basis 6-31G*
}

set_num_threads( 1 )
memory 2 gb

molecule MOL {
0 1

H	 3.276176	 0.174363	 -0.109463
N	 2.434251	 -0.367735	 -0.081097
C	 1.267428	 0.496480	 0.024474
H	 2.501951	 -0.965776	 0.720575
C	 -0.016086	 -0.325158	 -0.029487
H	 1.288818	 1.183521	 -0.816092
H	 1.267576	 1.109062	 0.929528
C	 -1.282277	 0.529072	 0.046735
H	 -0.012495	 -0.908639	 -0.945788
H	 -0.015903	 -1.041248	 0.791956
C	 -1.431738	 1.477780	 -1.142096
H	 -1.271972	 1.107181	 0.968510
H	 -2.155307	 -0.117985	 0.102340
H	 -0.590578	 2.162065	 -1.204738
H	 -2.336672	 2.071862	 -1.060358
H	 -1.479996	 0.928389	 -2.078078

	symmetry c1
}
set optking {
	frozen_dihedral = ("
		6 3 5 9,
		1 2 3 6
	")
}

ee = energy('scf')
oeprop('DIPOLE', 'QUADRUPOLE', 'MULLIKEN_CHARGES')
f=open( 'psi4out.xyz', 'w' )
f.write( "16  " )
f.write( str(ee) + "\n" )
f.write( MOL.save_string_xyz() )
f.close()
--------------------------------------------------------------------------

    Molecular point group: c1

    Geometry (in Angstrom), charge = 0, multiplicity = 1:

       Center              X                  Y                   Z               Mass
    ------------   -----------------  -----------------  -----------------  -----------------
           H          3.043443654389    -0.191438043925     0.123989483875     1.007825032070
           N          2.201518654389    -0.733536043925     0.152355483875    14.003074004780
           C          1.034695654389     0.130678956075     0.257926483875    12.000000000000
           H          2.269218654389    -1.331577043925     0.954027483875     1.007825032070
           C         -0.248818345611    -0.690959043925     0.203965483875    12.000000000000
           H          1.056085654389     0.817719956075    -0.582639516125     1.007825032070
           H          1.034843654389     0.743260956075     1.162980483875     1.007825032070
           C         -1.515009345611     0.163270956075     0.280187483875    12.000000000000
           H         -0.245227345611    -1.274440043925    -0.712335516125     1.007825032070
           H         -0.248635345611    -1.407049043925     1.025408483875     1.007825032070
           C         -1.664470345611     1.111978956075    -0.908643516125    12.000000000000
           H         -1.504704345611     0.741379956075     1.201962483875     1.007825032070
           H         -2.388039345611    -0.483786043925     0.335792483875     1.007825032070
           H         -0.823310345611     1.796263956075    -0.971285516125     1.007825032070
           H         -2.569404345611     1.706060956075    -0.826905516125     1.007825032070
           H         -1.712728345611     0.562587956075    -1.844625516125     1.007825032070

  Charge       = 0
  Multiplicity = 1
  Basis Set: 6-31G*
  Basis Set:

    Orbital Energies (a.u.)
    -----------------------

    Doubly Occupied:

       1A    -15.532620     2A    -11.239297     3A    -11.214951
       4A    -11.209559     5A    -11.207333     6A     -1.176728
       7A     -1.060637     8A     -0.953605     9A     -0.858303
      10A     -0.779709    11A     -0.663956    12A     -0.630379
      13A     -0.609387    14A     -0.595954    15A     -0.544603
      16A     -0.523580    17A     -0.515645    18A     -0.466930
      19A     -0.465862    20A     -0.454622    21A     -0.381425

  @DF-RHF Final Energy:  -212.31485291365510

   => Energetics <=

    Nuclear Repulsion Energy =            189.4339509937730099
    One-Electron Energy =                -661.3273906219449145
    Two-Electron Energy =                 259.5785867145162342
    DFT Exchange-Correlation Energy =       0.0000000000000000
    Empirical Dispersion Energy =           0.0000000000000000
    PCM Polarization Energy =               0.0000000000000000
    EFP Energy =                            0.0000000000000000
    Total Energy =                       -212.3148529136556704

  Mulliken Charges: (a.u.)
   Center  Symbol    Alpha    Beta     Spin     Total
       1     H     0.33255  0.33255  0.00000  0.33491
       2     N     3.92169  3.92169  0.00000 -0.84339
       3     C     3.06239  3.06239  0.00000 -0.12478
       4     H     0.33542  0.33542  0.00000  0.32915
       5     C     3.15208  3.15208  0.00000 -0.30416
       6     H     0.41874  0.41874  0.00000  0.16252
       7     H     0.43505  0.43505  0.00000  0.12990
       8     C     3.15672  3.15672  0.00000 -0.31344
       9     H     0.41371  0.41371  0.00000  0.17258
      10     H     0.42586  0.42586  0.00000  0.14828
      11     C     3.24217  3.24217  0.00000 -0.48433
      12     H     0.42398  0.42398  0.00000  0.15204
      13     H     0.41940  0.41940  0.00000  0.16121
      14     H     0.42101  0.42101  0.00000  0.15798
      15     H     0.41914  0.41914  0.00000  0.16171
      16     H     0.42008  0.42008  0.00000  0.15984

   Total alpha = 21.00000, Total beta = 21.00000, Total charge = -0.00000
