  ==> Input File <==

--------------------------------------------------------------------------
set {
	reference rhf
	basis 6-31G*
}

set_num_threads( 4 )
memory 2 gb

molecule MOL {
0 1

H	 -3.301617	 0.570527	 0.000000
C	 -2.250981	 0.344174	 0.000000
C	 -1.813665	 -0.976045	 0.000000
C	 -1.315303	 1.358057	 0.000000
H	 -2.528860	 -1.779366	 0.000000
C	 -0.467298	 -1.270142	 0.000000
H	 -1.635074	 2.385107	 0.000000
C	 0.047081	 1.078114	 0.000000
H	 -0.115948	 -2.285222	 0.000000
C	 0.472063	 -0.241155	 0.000000
H	 0.749976	 1.888426	 0.000000
O	 1.765256	 -0.628444	 0.000000
C	 2.549293	 -0.429893	 1.140586
H	 2.630079	 0.623302	 1.388754
H	 3.530217	 -0.813766	 0.903435
H	 2.152915	 -0.969992	 1.994113

	symmetry c1
}
set optking {
	frozen_dihedral = ("
		13 12 10 8
	")
}

ee = optimize('scf')
oeprop('DIPOLE', 'QUADRUPOLE', 'MULLIKEN_CHARGES')
f=open( 'psi4out.xyz', 'w' )
f.write( "16  " )
f.write( str(ee) + "\n" )
f.write( MOL.save_string_xyz() )
f.close()
--------------------------------------------------------------------------

    Molecular point group: c1
  Charge       = 0
  Multiplicity = 1
  Basis Set: 6-31G*
  Basis Set:
  @DF-RHF Final Energy:  -344.57878758129311
    Total Energy =                       -344.5787875812932270
    Molecular point group: c1
  Basis Set: 6-31G*
  Basis Set:
  Basis Set: 6-31G*
  Basis Set:
  @DF-RHF Final Energy:  -344.58018979208839
    Total Energy =                       -344.5801897920882766
  Basis Set: 6-31G*
  Basis Set:
  Basis Set: 6-31G*
  Basis Set:
  @DF-RHF Final Energy:  -344.58036052497505
    Total Energy =                       -344.5803605249749353
  Basis Set: 6-31G*
  Basis Set:
  Basis Set: 6-31G*
  Basis Set:
  @DF-RHF Final Energy:  -344.58038340589189
    Total Energy =                       -344.5803834058915527
  Basis Set: 6-31G*
  Basis Set:
  Basis Set: 6-31G*
  Basis Set:
  @DF-RHF Final Energy:  -344.58038637798967
    Total Energy =                       -344.5803863779897256
  Basis Set: 6-31G*
  Basis Set:
  Charge       = 0
  Multiplicity = 1
  Basis Set: 6-31G*
  Basis Set:

    Orbital Energies (a.u.)
    -----------------------

    Doubly Occupied:

       1A    -20.572664     2A    -11.286414     3A    -11.275590
       4A    -11.233708     5A    -11.232840     6A    -11.226301
       7A    -11.225707     8A    -11.223998     9A     -1.400976
      10A     -1.147515    11A     -1.017549    12A     -1.014692
      13A     -0.933933    14A     -0.834227    15A     -0.806204
      16A     -0.714470    17A     -0.666236    18A     -0.662414
      19A     -0.636977    20A     -0.612800    21A     -0.596144
      22A     -0.584422    23A     -0.529866    24A     -0.506921
      25A     -0.504861    26A     -0.482933    27A     -0.438330
      28A     -0.335146    29A     -0.319097

  @DF-RHF Final Energy:  -344.58038681186184

   => Energetics <=

    Nuclear Repulsion Energy =            348.0261532003290199
    One-Electron Energy =               -1157.1672060101973329
    Two-Electron Energy =                 464.5606659980064137
    DFT Exchange-Correlation Energy =       0.0000000000000000
    Empirical Dispersion Energy =           0.0000000000000000
    PCM Polarization Energy =               0.0000000000000000
    EFP Energy =                            0.0000000000000000
    Total Energy =                       -344.5803868118619562
    Molecular point group: c1
  Basis Set: 6-31G*
  Basis Set:

  -Total Gradient:
     Atom            X                  Y                   Z
    ------   -----------------  -----------------  -----------------
       1        0.000000029511    -0.000010515096     0.000002282432
       2       -0.000006134219     0.000022835117     0.000030315172
       3       -0.000005754690    -0.000013568599    -0.000017849858
       4       -0.000001581478    -0.000033346908    -0.000036008870
       5       -0.000018468838     0.000002072137     0.000001244311
       6        0.000015472294    -0.000062930498     0.000001656789
       7        0.000005893358     0.000003044710     0.000001907566
       8        0.000059651569    -0.000028175662     0.000416455598
       9       -0.000005456401     0.000021658927     0.000007279804
      10       -0.000064649838     0.000279434911    -0.000692207552
      11        0.000001492287    -0.000000365422     0.000013752208
      12       -0.000082780888    -0.000539500982     0.000365018479
      13        0.000097640709     0.000362521514    -0.000072391272
      14        0.000003621475    -0.000001676459    -0.000008506452
      15       -0.000005198508    -0.000001548764    -0.000003927989
      16        0.000006223657     0.000000061074    -0.000009020366

  **** Optimization is complete! (in 6 steps) ****
    Final optimized geometry and variables:
    Molecular point group: c1

    Geometry (in Angstrom), charge = 0, multiplicity = 1:

    H           -3.250578524587     0.715726953258    -0.145378748839
    C           -2.204627982014     0.467361539465    -0.149221377220
    C           -1.801502405339    -0.857995210143    -0.172994267338
    C           -1.248880812102     1.471259795294    -0.137341183972
    H           -2.535651390667    -1.643819026550    -0.187382027116
    C           -0.454089020275    -1.180782248663    -0.175907108664
    H           -1.552542676415     2.502972355047    -0.128222579384
    C            0.099969681181     1.157216790744    -0.146445119043
    H           -0.125641329140    -2.203598919434    -0.197434421251
    C            0.495059564789    -0.172076763260    -0.162590210517
    H            0.842960173003     1.933901443498    -0.157343927907
    O            1.813134873190    -0.514354137956    -0.200719005023
    C            2.557000847971    -0.258579133168     0.963107584106
    H            2.588879421072     0.800818189751     1.192994536521
    H            3.560975095320    -0.609900346324     0.773711644383
    H            2.142428954300    -0.791421508528     1.813045744700

  Mulliken Charges: (a.u.)
   Center  Symbol    Alpha    Beta     Spin     Total
       1     H     0.39999  0.39999  0.00000  0.20003
       2     C     3.10640  3.10640  0.00000 -0.21280
       3     C     3.09647  3.09647  0.00000 -0.19293
       4     C     3.09609  3.09609  0.00000 -0.19218
       5     H     0.39833  0.39833  0.00000  0.20333
       6     C     3.12129  3.12129  0.00000 -0.24259
       7     H     0.39859  0.39859  0.00000  0.20281
       8     C     3.12338  3.12338  0.00000 -0.24675
       9     H     0.39359  0.39359  0.00000  0.21281
      10     C     2.79898  2.79898  0.00000  0.40203
      11     H     0.39604  0.39604  0.00000  0.20792
      12     O     4.33211  4.33211  0.00000 -0.66422
      13     C     3.08280  3.08280  0.00000 -0.16559
      14     H     0.42416  0.42416  0.00000  0.15167
      15     H     0.40989  0.40989  0.00000  0.18021
      16     H     0.42188  0.42188  0.00000  0.15625

   Total alpha = 29.00000, Total beta = 29.00000, Total charge = -0.00000
