                              Psi4 1.0.54 Driver

  ==> Input File <==

--------------------------------------------------------------------------
set {
	reference rhf
	basis cc-pvtz
}

set_num_threads( 4 )
memory 2 gb

molecule MOL {
0 1

H	 1.501015	 1.156143	 -1.125074
O	 0.707861	 0.644930	 -1.180158
C	 0.489979	 0.078084	 0.002623
C	 -0.763662	 -0.754014	 0.000816
O	 1.214404	 0.239903	 0.922914
C	 -2.038001	 0.074705	 -0.000833
H	 -0.712945	 -1.405886	 -0.864342
H	 -0.715137	 -1.405770	 0.866182
H	 -2.087267	 0.710831	 -0.874232
H	 -2.903419	 -0.576199	 -0.001922
H	 -2.089467	 0.710909	 0.872389

	symmetry c1
}
set optking {
	frozen_dihedral = ("
		2 3 4 7
	")
}

ee,wfn = optimize('scf', return_wfn=True)
oeprop( wfn, 'DIPOLE', 'QUADRUPOLE', 'MULLIKEN_CHARGES')
f=open( 'psi4out.xyz', 'w' )
f.write( "11  " )
f.write( str(ee) + "\n" )
f.write( MOL.save_string_xyz() )
f.close()
--------------------------------------------------------------------------

    Molecular point group: c1
  Charge       = 0
  Multiplicity = 1
  Basis Set: CC-PVTZ
  Basis Set:
  @DF-RHF Final Energy:  -266.95123171888275
    Total Energy =                       -266.9512317188825818
    Molecular point group: c1
  Basis Set: CC-PVTZ
  Basis Set:
  Basis Set: CC-PVTZ
  Basis Set:
  @DF-RHF Final Energy:  -266.95167645231834
    Total Energy =                       -266.9516764523184520
  Basis Set: CC-PVTZ
  Basis Set:
  Basis Set: CC-PVTZ
  Basis Set:
  @DF-RHF Final Energy:  -266.95170018182262
    Total Energy =                       -266.9517001818226163
  Basis Set: CC-PVTZ
  Basis Set:
  Basis Set: CC-PVTZ
  Basis Set:
  @DF-RHF Final Energy:  -266.95170195173694
    Total Energy =                       -266.9517019517369931
  Basis Set: CC-PVTZ
  Basis Set:
  Charge       = 0
  Multiplicity = 1
  Basis Set: CC-PVTZ
  Basis Set:

    Orbital Energies (a.u.)
    -----------------------

    Doubly Occupied:

       1A    -20.605587     2A    -20.540304     3A    -11.373442
       4A    -11.241659     5A    -11.228901     6A     -1.478209
       7A     -1.369142     8A     -1.069091     9A     -0.913679
      10A     -0.819743    11A     -0.706212    12A     -0.687822
      13A     -0.644460    14A     -0.618371    15A     -0.594410
      16A     -0.546787    17A     -0.527919    18A     -0.513339
      19A     -0.481820    20A     -0.443853

  @DF-RHF Final Energy:  -266.95170180181611

   => Energetics <=

    Nuclear Repulsion Energy =            180.4112436354504894
    One-Electron Energy =                -721.9163891912503459
    Two-Electron Energy =                 274.5534437539837427
    DFT Exchange-Correlation Energy =       0.0000000000000000
    Empirical Dispersion Energy =           0.0000000000000000
    PCM Polarization Energy =               0.0000000000000000
    EFP Energy =                            0.0000000000000000
    Total Energy =                       -266.9517018018160570
    Molecular point group: c1
  Basis Set: CC-PVTZ
  Basis Set:

  -Total Gradient:
     Atom            X                  Y                   Z
    ------   -----------------  -----------------  -----------------
       1       -0.000007076330     0.000006425977    -0.000001459721
       2       -0.000021210372     0.000057695914     0.000007015443
       3        0.000169531354    -0.000250697411    -0.000078272057
       4       -0.000015695603     0.000012739988     0.000098428088
       5       -0.000082442548     0.000105061064     0.000019252056
       6       -0.000025404771    -0.000004886523    -0.000024788023
       7       -0.000015626101     0.000076037451    -0.000018833910
       8        0.000000282474     0.000005067782    -0.000003947920
       9        0.000002095825     0.000001220042     0.000004420492
      10       -0.000008368486    -0.000001390987     0.000003233441
      11        0.000003914558    -0.000007273298    -0.000005047890

  **** Optimization is complete! (in 5 steps) ****
    Final optimized geometry and variables:
    Molecular point group: c1

    Geometry (in Angstrom), charge = 0, multiplicity = 1:

    H            1.524873545226     1.119564184096    -1.033333859936
    O            0.744235631093     0.590315586989    -1.099030046755
    C            0.543361100263    -0.010986586119     0.070301282884
    C           -0.701517447882    -0.855549343372     0.074729479643
    O            1.274945125965     0.136859379368     0.987620919660
    C           -1.970868310134     0.000093121169     0.061487826660
    H           -0.681037777309    -1.495806627984    -0.798628604214
    H           -0.665958921142    -1.473510792930     0.959149839367
    H           -2.019521509358     0.613633937295    -0.828148439564
    H           -2.845291714796    -0.637312343397     0.082262742865
    H           -2.008995657273     0.649223311850     0.927860554644

  Mulliken Charges: (a.u.)
   Center  Symbol    Alpha    Beta     Spin     Total
       1     H     0.38036  0.38036  0.00000  0.23927
       2     O     4.16447  4.16447  0.00000 -0.32895
       3     C     2.79947  2.79947  0.00000  0.40107
       4     C     3.08988  3.08988  0.00000 -0.17976
       5     O     4.19453  4.19453  0.00000 -0.38905
       6     C     3.15003  3.15003  0.00000 -0.30006
       7     H     0.44469  0.44469  0.00000  0.11063
       8     H     0.43614  0.43614  0.00000  0.12773
       9     H     0.44580  0.44580  0.00000  0.10839
      10     H     0.44664  0.44664  0.00000  0.10673
      11     H     0.44800  0.44800  0.00000  0.10399

   Total alpha = 20.00000, Total beta = 20.00000, Total charge = -0.00000

*** Psi4 exiting successfully. Buy a developer a beer!
