  ==> Input File <==

--------------------------------------------------------------------------
set {
	reference rhf
	basis 6-31G*
}

set_num_threads( 4 )
memory 2 gb

molecule MOL {
0 1

H	 -2.172150	 0.880146	 0.502514
C	 -2.018062	 -0.000025	 -0.114509
O	 -0.774054	 0.001095	 -0.743181
H	 -2.760490	 0.003458	 -0.901350
H	 -2.173624	 -0.884374	 0.496163
C	 -0.260404	 -1.203270	 -1.283737
C	 1.085727	 -0.788961	 -1.873900
C	 -0.049686	 -2.254500	 -0.189341
C	 -1.171222	 -1.745505	 -2.389859
H	 1.723305	 -0.379899	 -1.098276
H	 0.942695	 -0.024939	 -2.629669
H	 1.590855	 -1.635500	 -2.327638
H	 0.536485	 -1.838257	 0.623170
H	 0.481692	 -3.112090	 -0.589065
H	 -0.988167	 -2.615746	 0.217240
H	 -1.372596	 -0.971915	 -3.123384
H	 -0.693827	 -2.578794	 -2.895088
H	 -2.119019	 -2.102337	 -2.001292

	symmetry c1
}
set optking {
	frozen_dihedral = ("
		6 3 2 5
	")
}

ee = optimize('scf')
oeprop('DIPOLE', 'QUADRUPOLE', 'MULLIKEN_CHARGES')
f=open( 'psi4out.xyz', 'w' )
f.write( "18  " )
f.write( str(ee) + "\n" )
f.write( MOL.save_string_xyz() )
f.close()
--------------------------------------------------------------------------

    Molecular point group: c1
  Charge       = 0
  Multiplicity = 1
  Basis Set: 6-31G*
  Basis Set:
  @DF-RHF Final Energy:  -271.17265037670012
    Total Energy =                       -271.1726503767003464
    Molecular point group: c1
  Basis Set: 6-31G*
  Basis Set:
  Basis Set: 6-31G*
  Basis Set:
  @DF-RHF Final Energy:  -271.17444759173969
    Total Energy =                       -271.1744475917398631
  Basis Set: 6-31G*
  Basis Set:
  Basis Set: 6-31G*
  Basis Set:
  @DF-RHF Final Energy:  -271.17502650992014
    Total Energy =                       -271.1750265099200305
  Basis Set: 6-31G*
  Basis Set:
  Basis Set: 6-31G*
  Basis Set:
  @DF-RHF Final Energy:  -271.17492721746595
    Total Energy =                       -271.1749272174658927
  Basis Set: 6-31G*
  Basis Set:
  @DF-RHF Final Energy:  -271.17505653960444
    Total Energy =                       -271.1750565396047250
  Basis Set: 6-31G*
  Basis Set:
  @DF-RHF Final Energy:  -271.17504748276832
    Total Energy =                       -271.1750474827686048
  Basis Set: 6-31G*
  Basis Set:
  Basis Set: 6-31G*
  Basis Set:
  @DF-RHF Final Energy:  -271.17506504763872
    Total Energy =                       -271.1750650476387818
  Basis Set: 6-31G*
  Basis Set:
  Basis Set: 6-31G*
  Basis Set:
  @DF-RHF Final Energy:  -271.17506702677287
    Total Energy =                       -271.1750670267728083
  Basis Set: 6-31G*
  Basis Set:
  Charge       = 0
  Multiplicity = 1
  Basis Set: 6-31G*
  Basis Set:

    Orbital Energies (a.u.)
    -----------------------

    Doubly Occupied:

       1A    -20.546168     2A    -11.281460     3A    -11.260912
       4A    -11.209727     5A    -11.207730     6A    -11.203285
       7A     -1.369599     8A     -1.072825     9A     -0.946249
      10A     -0.939480    11A     -0.912503    12A     -0.752528
      13A     -0.655360    14A     -0.644152    15A     -0.637990
      16A     -0.591264    17A     -0.573129    18A     -0.552960
      19A     -0.535419    20A     -0.524111    21A     -0.514846
      22A     -0.489001    23A     -0.486640    24A     -0.438922
      25A     -0.402977

  @DF-RHF Final Energy:  -271.17506665540299

   => Energetics <=

    Nuclear Repulsion Energy =            272.3392800266138352
    One-Electron Energy =                -907.5302234300878581
    Two-Electron Energy =                 364.0158767480708093
    DFT Exchange-Correlation Energy =       0.0000000000000000
    Empirical Dispersion Energy =           0.0000000000000000
    PCM Polarization Energy =               0.0000000000000000
    EFP Energy =                            0.0000000000000000
    Total Energy =                       -271.1750666554031568
    Molecular point group: c1
  Basis Set: 6-31G*
  Basis Set:

  -Total Gradient:
     Atom            X                  Y                   Z
    ------   -----------------  -----------------  -----------------
       1        0.000006437440     0.000003189542     0.000001449532
       2        0.000865238874     0.000612316852     0.002194317349
       3       -0.000741348664     0.000367803401    -0.001903382178
       4        0.000002344185     0.000001638475     0.000010600979
       5       -0.000502130463    -0.000590507983    -0.001246505460
       6        0.000324399507    -0.000333591512     0.001003929928
       7       -0.000021293187    -0.000032348725     0.000016782163
       8        0.000031542341     0.000036424095    -0.000004276747
       9        0.000035304274    -0.000052402581    -0.000054839997
      10        0.000007708118     0.000014645746    -0.000003312399
      11       -0.000023002871    -0.000018370250     0.000000016099
      12        0.000010197728    -0.000010333992     0.000021042156
      13       -0.000022303869    -0.000007489197     0.000015489319
      14        0.000024788098    -0.000006194933    -0.000000339420
      15       -0.000009655503     0.000021038375    -0.000012694402
      16       -0.000009483892    -0.000002100041    -0.000009886449
      17       -0.000011862459     0.000004051776    -0.000015482844
      18        0.000033120342    -0.000007769048    -0.000012907631

  **** Optimization is complete! (in 9 steps) ****
    Final optimized geometry and variables:
    Molecular point group: c1

    Geometry (in Angstrom), charge = 0, multiplicity = 1:

    H           -1.569416177802     1.822489685217     1.594457895101
    C           -1.509743637577     0.993138697223     0.902127281405
    O           -0.211078666017     0.975853453297     0.393391933916
    H           -2.244474355492     1.147619919535     0.116362943941
    H           -1.768533075346     0.081852004641     1.430932081453
    C            0.297566133192    -0.214218256562    -0.182453958430
    C            1.628756211026     0.214966772879    -0.794861073992
    C            0.539575909618    -1.274266611184     0.897017506998
    C           -0.634465568821    -0.747601949408    -1.274577279430
    H            2.274358466444     0.630667367287    -0.029519722196
    H            1.465611583781     0.977368168549    -1.548188735868
    H            2.135848138831    -0.626329933636    -1.256272812680
    H            1.159788976821    -0.865516891620     1.687277512356
    H            1.046290283968    -2.136183368170     0.474718701964
    H           -0.385314350967    -1.627385271395     1.339842354588
    H           -0.841831925948     0.026973048724    -2.005579467988
    H           -0.173498028205    -1.584985203903    -1.788077621890
    H           -1.579154307663    -1.094074199083    -0.868581398849

  Mulliken Charges: (a.u.)
   Center  Symbol    Alpha    Beta     Spin     Total
       1     H     0.41355  0.41355  0.00000  0.17291
       2     C     3.07867  3.07867  0.00000 -0.15734
       3     O     4.31940  4.31940  0.00000 -0.63879
       4     H     0.42748  0.42748  0.00000  0.14503
       5     H     0.43087  0.43087  0.00000  0.13825
       6     C     2.84362  2.84362  0.00000  0.31276
       7     C     3.23305  3.23305  0.00000 -0.46610
       8     C     3.24359  3.24359  0.00000 -0.48718
       9     C     3.24889  3.24889  0.00000 -0.49778
      10     H     0.41363  0.41363  0.00000  0.17275
      11     H     0.41472  0.41472  0.00000  0.17055
      12     H     0.42510  0.42510  0.00000  0.14980
      13     H     0.41322  0.41322  0.00000  0.17355
      14     H     0.42106  0.42106  0.00000  0.15787
      15     H     0.42080  0.42080  0.00000  0.15841
      16     H     0.41360  0.41360  0.00000  0.17280
      17     H     0.41871  0.41871  0.00000  0.16259
      18     H     0.42004  0.42004  0.00000  0.15993

   Total alpha = 25.00000, Total beta = 25.00000, Total charge =  0.00000
