                              Psi4 1.0.54 Driver

  ==> Input File <==

--------------------------------------------------------------------------
set {
	reference rhf
	basis cc-pvtz
}

set_num_threads( 4 )
memory 2 gb

molecule MOL {
0 1

H	 -2.842362	 -0.585087	 0.010376
N	 -1.898194	 -0.452982	 0.303914
C	 -1.294476	 0.677945	 -0.376286
H	 -1.395843	 -1.288316	 0.089769
C	 0.138180	 0.861265	 0.069287
H	 -1.307822	 0.588262	 -1.461792
H	 -1.847203	 1.574291	 -0.117236
O	 0.881195	 -0.248324	 -0.336237
H	 0.549246	 1.768212	 -0.371900
H	 0.174237	 0.962043	 1.151633
C	 2.208068	 -0.234417	 0.074171
H	 2.725499	 -1.027054	 -0.446768
H	 2.688377	 0.712084	 -0.164856
H	 2.295137	 -0.403407	 1.144883

	symmetry c1
}
set optking {
	frozen_dihedral = ("
		5 8 11 13
	")
}

ee,wfn = optimize('scf', return_wfn=True)
oeprop( wfn, 'DIPOLE', 'QUADRUPOLE', 'MULLIKEN_CHARGES')
f=open( 'psi4out.xyz', 'w' )
f.write( "14  " )
f.write( str(ee) + "\n" )
f.write( MOL.save_string_xyz() )
f.close()
--------------------------------------------------------------------------

    Molecular point group: c1
  Charge       = 0
  Multiplicity = 1
  Basis Set: CC-PVTZ
  Basis Set:
  @DF-RHF Final Energy:  -248.22592472579041
    Total Energy =                       -248.2259247257906054
    Molecular point group: c1
  Basis Set: CC-PVTZ
  Basis Set:
  Basis Set: CC-PVTZ
  Basis Set:
  @DF-RHF Final Energy:  -248.22593506297602
    Total Energy =                       -248.2259350629761911
  Basis Set: CC-PVTZ
  Basis Set:
  Charge       = 0
  Multiplicity = 1
  Basis Set: CC-PVTZ
  Basis Set:

    Orbital Energies (a.u.)
    -----------------------

    Doubly Occupied:

       1A    -20.550517     2A    -15.523576     3A    -11.264003
       4A    -11.263640     5A    -11.239898     6A     -1.384334
       7A     -1.176051     8A     -1.000569     9A     -0.907685
      10A     -0.815851    11A     -0.685617    12A     -0.675752
      13A     -0.647277    14A     -0.612349    15A     -0.607303
      16A     -0.542300    17A     -0.530584    18A     -0.498144
      19A     -0.474732    20A     -0.419582    21A     -0.383935

  @DF-RHF Final Energy:  -248.22593668256638

   => Energetics <=

    Nuclear Repulsion Energy =            194.6929820018615374
    One-Electron Energy =                -723.4304403246974289
    Two-Electron Energy =                 280.5115216402693932
    DFT Exchange-Correlation Energy =       0.0000000000000000
    Empirical Dispersion Energy =           0.0000000000000000
    PCM Polarization Energy =               0.0000000000000000
    EFP Energy =                            0.0000000000000000
    Total Energy =                       -248.2259366825664983
    Molecular point group: c1
  Basis Set: CC-PVTZ
  Basis Set:

  -Total Gradient:
     Atom            X                  Y                   Z
    ------   -----------------  -----------------  -----------------
       1        0.000005854952    -0.000004332222    -0.000001201470
       2       -0.000014039354     0.000001693955     0.000003419088
       3        0.000021390234    -0.000036434914    -0.000000165502
       4        0.000000889740     0.000003349614    -0.000003323905
       5        0.000311239219     0.000589299358    -0.000978460974
       6        0.000002114274     0.000000163975    -0.000000197061
       7        0.000015238619     0.000002050967     0.000008571323
       8       -0.000572599385    -0.000662019390     0.001717549853
       9        0.000001007018    -0.000004072215     0.000002994240
      10       -0.000000510647    -0.000003251056     0.000003779961
      11        0.000612926489    -0.000387511868    -0.002031727006
      12       -0.000006600543    -0.000023749687    -0.000014190549
      13       -0.000393544674     0.000508601835     0.001314709105
      14        0.000016634061     0.000016211650    -0.000021757102

  **** Optimization is complete! (in 3 steps) ****
    Final optimized geometry and variables:
    Molecular point group: c1

    Geometry (in Angstrom), charge = 0, multiplicity = 1:

    H           -2.855855738384    -0.693288375812     0.077476925337
    N           -1.910318746148    -0.559658636401     0.365810484379
    C           -1.312875692504     0.573812587803    -0.315621997911
    H           -1.407599084959    -1.393525003982     0.146928650386
    C            0.121419077575     0.760544773808     0.123155319273
    H           -1.330720229162     0.485332345016    -1.401186126948
    H           -1.866753822780     1.468475353443    -0.053142876738
    O            0.865274633885    -0.346100751760    -0.288854137045
    H            0.528689850715     1.668601409592    -0.318663448822
    H            0.161443700050     0.860177209646     1.205633306778
    C            2.192634081205    -0.335523426368     0.121704160457
    H            2.709994550414    -1.130435280579    -0.395624896904
    H            2.674013407309     0.611691390905    -0.110729181859
    H            2.276040222959    -0.501010384218     1.193490599378

  Mulliken Charges: (a.u.)
   Center  Symbol    Alpha    Beta     Spin     Total
       1     H     0.43023  0.43023  0.00000  0.13955
       2     N     3.69415  3.69415  0.00000 -0.38831
       3     C     3.02230  3.02230  0.00000 -0.04459
       4     H     0.42247  0.42247  0.00000  0.15507
       5     C     2.96910  2.96910  0.00000  0.06180
       6     H     0.46458  0.46458  0.00000  0.07085
       7     H     0.45869  0.45869  0.00000  0.08262
       8     O     4.18026  4.18026  0.00000 -0.36052
       9     H     0.46888  0.46888  0.00000  0.06224
      10     H     0.46944  0.46944  0.00000  0.06112
      11     C     3.03162  3.03162  0.00000 -0.06325
      12     H     0.44810  0.44810  0.00000  0.10379
      13     H     0.47250  0.47250  0.00000  0.05499
      14     H     0.46768  0.46768  0.00000  0.06463

   Total alpha = 21.00000, Total beta = 21.00000, Total charge = -0.00000

*** Psi4 exiting successfully. Buy a developer a beer!
