                              Psi4 1.0.54 Driver

  ==> Input File <==

--------------------------------------------------------------------------
set {
	reference rhf
	basis cc-pvtz
}

set_num_threads( 4 )
memory 2 gb

molecule MOL {
0 1

H	 -4.230259	 0.539112	 0.036360
O	 -3.515113	 -0.019339	 -0.206321
C	 -2.302264	 0.528872	 0.237390
C	 -1.175688	 -0.398187	 -0.171891
H	 -2.148018	 1.514076	 -0.197759
H	 -2.310727	 0.646384	 1.319032
C	 0.196029	 0.106276	 0.266738
H	 -1.201873	 -0.515469	 -1.250677
H	 -1.365975	 -1.378728	 0.252664
C	 1.330220	 -0.826136	 -0.155230
H	 0.359542	 1.097229	 -0.145561
H	 0.212134	 0.218135	 1.348778
C	 2.719700	 -0.407669	 0.328325
H	 1.339388	 -0.911200	 -1.239363
H	 1.119001	 -1.821953	 0.224128
C	 3.091349	 -0.914791	 1.719750
H	 2.769387	 0.676875	 0.329329
H	 3.464779	 -0.743293	 -0.388368
H	 2.359601	 -0.600129	 2.457039
H	 3.152302	 -1.995861	 1.755234
H	 4.055510	 -0.525101	 2.025864

	symmetry c1
}
set optking {
	frozen_dihedral = ("
		16 13 10 14
	")
}

ee,wfn = optimize('scf', return_wfn=True)
oeprop( wfn, 'DIPOLE', 'QUADRUPOLE', 'MULLIKEN_CHARGES')
f=open( 'psi4out.xyz', 'w' )
f.write( "21  " )
f.write( str(ee) + "\n" )
f.write( MOL.save_string_xyz() )
f.close()
--------------------------------------------------------------------------

    Molecular point group: c1
  Charge       = 0
  Multiplicity = 1
  Basis Set: CC-PVTZ
  Basis Set:
  @DF-RHF Final Energy:  -310.33143832709436
    Total Energy =                       -310.3314383270944745
    Molecular point group: c1
  Basis Set: CC-PVTZ
  Basis Set:
  Basis Set: CC-PVTZ
  Basis Set:
  @DF-RHF Final Energy:  -310.33176107112126
    Total Energy =                       -310.3317610711210932
  Basis Set: CC-PVTZ
  Basis Set:
  Basis Set: CC-PVTZ
  Basis Set:
  @DF-RHF Final Energy:  -310.33179477528893
    Total Energy =                       -310.3317947752889268
  Basis Set: CC-PVTZ
  Basis Set:
  Charge       = 0
  Multiplicity = 1
  Basis Set: CC-PVTZ
  Basis Set:

    Orbital Energies (a.u.)
    -----------------------

    Doubly Occupied:

       1A    -20.545433     2A    -11.265068     3A    -11.213755
       4A    -11.212754     5A    -11.210899     6A    -11.208973
       7A    -11.206336     8A     -1.363301     9A     -1.087074
      10A     -1.034659    11A     -0.956218    12A     -0.873083
      13A     -0.806133    14A     -0.784602    15A     -0.696448
      16A     -0.662646    17A     -0.618741    18A     -0.612191
      19A     -0.588314    20A     -0.568021    21A     -0.539125
      22A     -0.522247    23A     -0.509573    24A     -0.488025
      25A     -0.480121    26A     -0.462550    27A     -0.454655
      28A     -0.443889    29A     -0.437437

  @DF-RHF Final Energy:  -310.33179545126450

   => Energetics <=

    Nuclear Repulsion Energy =            312.0434731791012837
    One-Electron Energy =               -1039.0459919595571137
    Two-Electron Energy =                 416.6707233291911052
    DFT Exchange-Correlation Energy =       0.0000000000000000
    Empirical Dispersion Energy =           0.0000000000000000
    PCM Polarization Energy =               0.0000000000000000
    EFP Energy =                            0.0000000000000000
    Total Energy =                       -310.3317954512647248
    Molecular point group: c1
  Basis Set: CC-PVTZ
  Basis Set:

  -Total Gradient:
     Atom            X                  Y                   Z
    ------   -----------------  -----------------  -----------------
       1        0.000008642464     0.000002982717     0.000002129761
       2        0.000012359866    -0.000009710460    -0.000007395363
       3        0.000003831247     0.000023444161    -0.000016981021
       4       -0.000026012891     0.000014256278    -0.000033522482
       5       -0.000006395618     0.000008870916     0.000002418539
       6        0.000004784919    -0.000010966166    -0.000004302259
       7       -0.000012742901    -0.000006599107     0.000028678415
       8       -0.000005387170    -0.000011713672    -0.000007942529
       9        0.000018557856     0.000012313294     0.000017372602
      10       -0.000678968236     0.002943560066    -0.000610089441
      11       -0.000000390319     0.000013051655     0.000015816439
      12        0.000023851474    -0.000022340666    -0.000013096255
      13       -0.001089879417     0.001855818467     0.001268693847
      14        0.000834048789    -0.002928549503     0.000240909831
      15        0.000065178232    -0.000023077553     0.000027813259
      16        0.000881331685    -0.001847543432    -0.000879754502
      17       -0.000053954672    -0.000011014851    -0.000028372406
      18        0.000027103234     0.000011464730    -0.000012942947
      19        0.000024585189    -0.000008951844     0.000012357620
      20       -0.000023016517    -0.000002880651    -0.000004764324
      21       -0.000007527212    -0.000002414381     0.000002973214

  **** Optimization is complete! (in 4 steps) ****
    Final optimized geometry and variables:
    Molecular point group: c1

    Geometry (in Angstrom), charge = 0, multiplicity = 1:

    H           -4.201660620812     0.828107438639    -0.232884228365
    O           -3.492241856615     0.265498463023    -0.482499700079
    C           -2.273364039527     0.798511359731    -0.036962552400
    C           -1.156250226303    -0.134620506453    -0.458110185337
    H           -2.111389002983     1.786366761631    -0.463168329400
    H           -2.277867268568     0.905765016133     1.045765081464
    C            0.220836083785     0.353486149957    -0.019727635823
    H           -1.186783030367    -0.242373317945    -1.537752829006
    H           -1.353354625217    -1.117088458808    -0.041224391576
    C            1.351688454439    -0.571637054323    -0.462172371008
    H            0.399322353488     1.346983648120    -0.424118121740
    H            0.239255360296     0.457529274085     1.062150548428
    C            2.742392700058    -0.134861434714     0.015402799732
    H            1.348801277946    -0.657680408862    -1.544460138240
    H            1.153694779286    -1.576093441837    -0.095374119304
    C            3.105184526221    -0.650257471883     1.406112932026
    H            2.811984828635     0.948870852749    -0.006330678293
    H            3.487804658799    -0.497398595316    -0.685233970206
    H            2.394186271790    -0.320744510908     2.156206662867
    H            3.120875849171    -1.734614027995     1.421641817737
    H            4.085490679360    -0.300356397345     1.709305886285

  Mulliken Charges: (a.u.)
   Center  Symbol    Alpha    Beta     Spin     Total
       1     H     0.39760  0.39760  0.00000  0.20480
       2     O     4.19432  4.19432  0.00000 -0.38863
       3     C     2.96321  2.96321  0.00000  0.07359
       4     C     3.08502  3.08502  0.00000 -0.17004
       5     H     0.47482  0.47482  0.00000  0.05036
       6     H     0.47497  0.47497  0.00000  0.05005
       7     C     3.10060  3.10060  0.00000 -0.20121
       8     H     0.45081  0.45081  0.00000  0.09838
       9     H     0.45055  0.45055  0.00000  0.09890
      10     C     3.09429  3.09429  0.00000 -0.18859
      11     H     0.45508  0.45508  0.00000  0.08984
      12     H     0.45469  0.45469  0.00000  0.09062
      13     C     3.09038  3.09038  0.00000 -0.18077
      14     H     0.44732  0.44732  0.00000  0.10536
      15     H     0.45558  0.45558  0.00000  0.08885
      16     C     3.14768  3.14768  0.00000 -0.29536
      17     H     0.45561  0.45561  0.00000  0.08879
      18     H     0.44855  0.44855  0.00000  0.10290
      19     H     0.45586  0.45586  0.00000  0.08828
      20     H     0.45471  0.45471  0.00000  0.09057
      21     H     0.44835  0.44835  0.00000  0.10330

   Total alpha = 29.00000, Total beta = 29.00000, Total charge = -0.00000

*** Psi4 exiting successfully. Buy a developer a beer!
