  ==> Input File <==

--------------------------------------------------------------------------
set {
	reference rhf
	basis 6-31G*
}

set_num_threads( 4 )
memory 2 gb

molecule MOL {
0 1

H	 -3.135461	 -1.215070	 0.001379
O	 -2.310168	 -0.871793	 -0.309793
C	 -2.026376	 0.340750	 0.341611
C	 -0.673256	 0.843270	 -0.132153
H	 -2.792215	 1.080697	 0.115987
H	 -2.013526	 0.200402	 1.421792
C	 0.486613	 -0.083066	 0.235839
H	 -0.715586	 0.970948	 -1.210718
H	 -0.508072	 1.829858	 0.297090
C	 1.840406	 0.433480	 -0.254303
H	 0.300215	 -1.068318	 -0.178947
H	 0.519509	 -0.203625	 1.318070
C	 2.237495	 -0.135980	 -1.615813
H	 1.810667	 1.519463	 -0.313240
H	 2.608880	 0.188918	 0.476506
H	 1.505496	 0.121606	 -2.375889
H	 3.199868	 0.249242	 -1.938903
H	 2.309584	 -1.219563	 -1.581722

	symmetry c1
}
set optking {
	frozen_dihedral = ("
		14 10 7 11
	")
}

ee = optimize('scf')
oeprop('DIPOLE', 'QUADRUPOLE', 'MULLIKEN_CHARGES')
f=open( 'psi4out.xyz', 'w' )
f.write( "18  " )
f.write( str(ee) + "\n" )
f.write( MOL.save_string_xyz() )
f.close()
--------------------------------------------------------------------------

    Molecular point group: c1
  Charge       = 0
  Multiplicity = 1
  Basis Set: 6-31G*
  Basis Set:
  @DF-RHF Final Energy:  -271.17604996731859
    Total Energy =                       -271.1760499673188178
    Molecular point group: c1
  Basis Set: 6-31G*
  Basis Set:
  Basis Set: 6-31G*
  Basis Set:
  @DF-RHF Final Energy:  -271.17629078065431
    Total Energy =                       -271.1762907806543126
  Basis Set: 6-31G*
  Basis Set:
  Basis Set: 6-31G*
  Basis Set:
  @DF-RHF Final Energy:  -271.17637073412186
    Total Energy =                       -271.1763707341218606
  Basis Set: 6-31G*
  Basis Set:
  Basis Set: 6-31G*
  Basis Set:
  @DF-RHF Final Energy:  -271.17637174270681
    Total Energy =                       -271.1763717427068059
  Basis Set: 6-31G*
  Basis Set:
  Charge       = 0
  Multiplicity = 1
  Basis Set: 6-31G*
  Basis Set:

    Orbital Energies (a.u.)
    -----------------------

    Doubly Occupied:

       1A    -20.553196     2A    -11.267938     3A    -11.212015
       4A    -11.210485     5A    -11.206243     6A    -11.202963
       7A     -1.359856     8A     -1.073561     9A     -1.006120
      10A     -0.912168    11A     -0.823307    12A     -0.778211
      13A     -0.704461    14A     -0.639958    15A     -0.615776
      16A     -0.597764    17A     -0.566854    18A     -0.556300
      19A     -0.513157    20A     -0.500360    21A     -0.497524
      22A     -0.463714    23A     -0.454107    24A     -0.447684
      25A     -0.427821

  @DF-RHF Final Energy:  -271.17637221927362

   => Energetics <=

    Nuclear Repulsion Energy =            251.5666602345208673
    One-Electron Energy =                -866.3029780858387312
    Two-Electron Energy =                 343.5599456320442755
    DFT Exchange-Correlation Energy =       0.0000000000000000
    Empirical Dispersion Energy =           0.0000000000000000
    PCM Polarization Energy =               0.0000000000000000
    EFP Energy =                            0.0000000000000000
    Total Energy =                       -271.1763722192735599
    Molecular point group: c1
  Basis Set: 6-31G*
  Basis Set:

  -Total Gradient:
     Atom            X                  Y                   Z
    ------   -----------------  -----------------  -----------------
       1       -0.000000253376    -0.000000660331    -0.000000496798
       2       -0.000005120984     0.000013062198     0.000000702233
       3       -0.000001580535    -0.000018599769     0.000010825705
       4        0.000017380794    -0.000005775525    -0.000005777102
       5       -0.000006257626    -0.000013135826    -0.000009429905
       6       -0.000011239743     0.000008167754     0.000008221320
       7        0.001590058060    -0.001727178517     0.002479027871
       8        0.000007722475     0.000012986626    -0.000004329516
       9        0.000003643206    -0.000007791386     0.000008299619
      10        0.001019365402     0.000604447736     0.003183269678
      11       -0.001507687857     0.001362698156    -0.002594314309
      12        0.000011140236     0.000007407799    -0.000002022873
      13        0.000000140980     0.000005998033     0.000009077012
      14       -0.001120868790    -0.000242781577    -0.003082235517
      15       -0.000000379972    -0.000001179593     0.000000249871
      16       -0.000000620511     0.000002078431     0.000001817171
      17        0.000007856996    -0.000001904087    -0.000005952344
      18       -0.000003298752     0.000002159879     0.000003067885

  **** Optimization is complete! (in 5 steps) ****
    Final optimized geometry and variables:
    Molecular point group: c1

    Geometry (in Angstrom), charge = 0, multiplicity = 1:

    H           -2.988435089396    -1.286593586978     0.231037060776
    O           -2.160111639003    -0.931166251134    -0.057650014137
    C           -1.898384074640     0.271163166766     0.621577030345
    C           -0.539055257592     0.791363014957     0.186016406898
    H           -2.664606243324     1.009818141268     0.393041976881
    H           -1.907524925878     0.111358318652     1.699176871013
    C            0.622098149736    -0.127495363133     0.578771878193
    H           -0.558305882226     0.929040637407    -0.891876209333
    H           -0.393711752152     1.775241504986     0.627903472639
    C            1.980507332713     0.367447975713     0.050001162655
    H            0.414053189920    -1.116104858197     0.184052487716
    H            0.650091956969    -0.212420605365     1.662536663366
    C            2.331639406391    -0.205249114894    -1.325540578459
    H            1.967571705244     1.452473044318    -0.026846634112
    H            2.769705727667     0.111142196819     0.750792157633
    H            1.565294697230     0.027585564760    -2.059176969175
    H            3.271255174292     0.198438598312    -1.691117293609
    H            2.428114688002    -1.286220639174    -1.284161024496

  Mulliken Charges: (a.u.)
   Center  Symbol    Alpha    Beta     Spin     Total
       1     H     0.28052  0.28052  0.00000  0.43896
       2     O     4.36975  4.36975  0.00000 -0.73950
       3     C     2.99734  2.99734  0.00000  0.00531
       4     C     3.16156  3.16156  0.00000 -0.32313
       5     H     0.42926  0.42926  0.00000  0.14149
       6     H     0.43272  0.43272  0.00000  0.13456
       7     C     3.15779  3.15779  0.00000 -0.31559
       8     H     0.41482  0.41482  0.00000  0.17035
       9     H     0.42383  0.42383  0.00000  0.15233
      10     C     3.15465  3.15465  0.00000 -0.30930
      11     H     0.40592  0.40592  0.00000  0.18815
      12     H     0.42476  0.42476  0.00000  0.15048
      13     C     3.23959  3.23959  0.00000 -0.47918
      14     H     0.42385  0.42385  0.00000  0.15229
      15     H     0.42081  0.42081  0.00000  0.15837
      16     H     0.42027  0.42027  0.00000  0.15946
      17     H     0.42166  0.42166  0.00000  0.15668
      18     H     0.42086  0.42086  0.00000  0.15827

   Total alpha = 25.00000, Total beta = 25.00000, Total charge =  0.00000
