  ==> Input File <==

--------------------------------------------------------------------------
set {
	reference rhf
	basis 6-31G*
}

set_num_threads( 4 )
memory 2 gb

molecule MOL {
0 1

H	 -2.743162	 0.177291	 -0.482200
O	 -2.035884	 -0.060112	 0.102722
C	 -0.955155	 0.788182	 -0.092531
C	 0.353668	 0.040312	 -0.004810
H	 -0.985057	 1.290372	 -1.054184
H	 -0.974469	 1.533190	 0.688632
F	 0.394464	 -0.937475	 -0.903053
F	 1.368604	 0.853376	 -0.249821
F	 0.546173	 -0.502608	 1.179981

	symmetry c1
}
set optking {
	frozen_dihedral = ("
		1 2 3 5
	")
}

ee = optimize('scf')
oeprop('DIPOLE', 'QUADRUPOLE', 'MULLIKEN_CHARGES')
f=open( 'psi4out.xyz', 'w' )
f.write( "9  " )
f.write( str(ee) + "\n" )
f.write( MOL.save_string_xyz() )
f.close()
--------------------------------------------------------------------------

    Molecular point group: c1
  Charge       = 0
  Multiplicity = 1
  Basis Set: 6-31G*
  Basis Set:
  @DF-RHF Final Energy:  -450.65816865044826
    Total Energy =                       -450.6581686504482605
    Molecular point group: c1
  Basis Set: 6-31G*
  Basis Set:
  Basis Set: 6-31G*
  Basis Set:
  @DF-RHF Final Energy:  -450.65917693112527
    Total Energy =                       -450.6591769311254438
  Basis Set: 6-31G*
  Basis Set:
  Basis Set: 6-31G*
  Basis Set:
  @DF-RHF Final Energy:  -450.65943575002365
    Total Energy =                       -450.6594357500233627
  Basis Set: 6-31G*
  Basis Set:
  Basis Set: 6-31G*
  Basis Set:
  @DF-RHF Final Energy:  -450.65944349419567
    Total Energy =                       -450.6594434941956706
  Basis Set: 6-31G*
  Basis Set:
  Charge       = 0
  Multiplicity = 1
  Basis Set: 6-31G*
  Basis Set:

    Orbital Energies (a.u.)
    -----------------------

    Doubly Occupied:

       1A    -26.336530     2A    -26.333115     3A    -26.332543
       4A    -20.588933     5A    -11.495375     6A    -11.309971
       7A     -1.733115     8A     -1.631045     9A     -1.629508
      10A     -1.400794    11A     -1.047588    12A     -0.916955
      13A     -0.824636    14A     -0.822757    15A     -0.784272
      16A     -0.736428    17A     -0.705599    18A     -0.695478
      19A     -0.663716    20A     -0.649563    21A     -0.634993
      22A     -0.634263    23A     -0.594714    24A     -0.530858
      25A     -0.478474

  @DF-RHF Final Energy:  -450.65944484545565

   => Energetics <=

    Nuclear Repulsion Energy =            276.9584677133930768
    One-Electron Energy =               -1176.2133793475288712
    Two-Electron Energy =                 448.5954667886802554
    DFT Exchange-Correlation Energy =       0.0000000000000000
    Empirical Dispersion Energy =           0.0000000000000000
    PCM Polarization Energy =               0.0000000000000000
    EFP Energy =                            0.0000000000000000
    Total Energy =                       -450.6594448454555959
    Molecular point group: c1
  Basis Set: 6-31G*
  Basis Set:

  -Total Gradient:
     Atom            X                  Y                   Z
    ------   -----------------  -----------------  -----------------
       1       -0.000119099686     0.000163502468     0.000156269371
       2        0.000210557766    -0.000189721486    -0.000279571234
       3       -0.000192092527     0.000181592925     0.000237174638
       4        0.000052883198     0.000180286454     0.000099308582
       5        0.000082983697    -0.000190773059    -0.000096083107
       6       -0.000011163458    -0.000004294731    -0.000013914247
       7        0.000021906211    -0.000026589590    -0.000028506797
       8       -0.000033808898    -0.000098496793    -0.000032333927
       9       -0.000012166295    -0.000015506188    -0.000042343280

  **** Optimization is complete! (in 5 steps) ****
    Final optimized geometry and variables:
    Molecular point group: c1

    Geometry (in Angstrom), charge = 0, multiplicity = 1:

    H           -2.712901971711     0.110122065506    -0.461588712981
    O           -1.999602194405    -0.069233277398     0.132048124462
    C           -0.939896436292     0.802104938074    -0.099759929787
    C            0.350490294276     0.024904378889    -0.017302045178
    H           -0.977494173392     1.254886927314    -1.083642989120
    H           -0.903638250688     1.588818361645     0.644832138591
    F            0.420402859356    -0.909217893133    -0.947756236046
    F            1.375974141619     0.847324893449    -0.196164256607
    F            0.503096403392    -0.558878780551     1.154452453669

  Mulliken Charges: (a.u.)
   Center  Symbol    Alpha    Beta     Spin     Total
       1     H     0.27094  0.27094  0.00000  0.45812
       2     O     4.36350  4.36350  0.00000 -0.72700
       3     C     3.05458  3.05458  0.00000 -0.10916
       4     C     2.45399  2.45399  0.00000  1.09203
       5     H     0.41015  0.41015  0.00000  0.17969
       6     H     0.40616  0.40616  0.00000  0.18768
       7     F     4.67890  4.67890  0.00000 -0.35781
       8     F     4.68534  4.68534  0.00000 -0.37068
       9     F     4.67644  4.67644  0.00000 -0.35288

   Total alpha = 25.00000, Total beta = 25.00000, Total charge = -0.00000
