  ==> Input File <==

--------------------------------------------------------------------------
set {
	reference rhf
	basis 6-31G*
}

set_num_threads( 1 )
memory 2 gb

molecule MOL {
0 1

O	 -0.524041	 -1.816361	 -1.460572
C	 -1.451018	 -1.526599	 -0.774011
C	 -2.718711	 -2.337135	 -0.688840
O	 -1.481751	 -0.454642	 0.000584
H	 -2.468944	 -3.340766	 -0.366033
H	 -3.432194	 -1.898813	 -0.006744
H	 -3.152377	 -2.409798	 -1.679059
C	 -0.334255	 0.388708	 0.000906
C	 0.891947	 -0.504646	 0.000751
H	 -0.365390	 1.025305	 -0.873475
H	 -0.365484	 1.024911	 0.875569
C	 2.191998	 0.301789	 0.000897
H	 0.855148	 -1.151283	 -0.871571
H	 0.855132	 -1.151660	 0.872805
C	 3.441114	 -0.581407	 0.000108
H	 2.215074	 0.954890	 -0.869742
H	 2.215465	 0.953923	 0.872248
C	 4.739576	 0.224112	 -0.001102
H	 3.419457	 -1.233487	 -0.870178
H	 3.420834	 -1.233096	 0.870717
H	 4.804918	 0.861552	 -0.878265
H	 5.606527	 -0.429058	 -0.001824
H	 4.806469	 0.861674	 0.875853

	symmetry c1
}
set optking {
	frozen_dihedral = ("
		13 9 8 10,
		16 12 9 13,
		19 15 12 16,
		1 2 4 8
	")
}

ee = energy('scf')
oeprop('DIPOLE', 'QUADRUPOLE', 'MULLIKEN_CHARGES')
f=open( 'psi4out.xyz', 'w' )
f.write( "23  " )
f.write( str(ee) + "\n" )
f.write( MOL.save_string_xyz() )
f.close()
--------------------------------------------------------------------------

    Molecular point group: c1

    Geometry (in Angstrom), charge = 0, multiplicity = 1:

       Center              X                  Y                   Z               Mass
    ------------   -----------------  -----------------  -----------------  -----------------
           O         -1.043675071176    -1.109452072490    -1.130411983335    15.994914619560
           C         -1.970652071176    -0.819690072490    -0.443850983335    12.000000000000
           C         -3.238345071176    -1.630226072490    -0.358679983335    12.000000000000
           O         -2.001385071176     0.252266927510     0.330744016665    15.994914619560
           H         -2.988578071176    -2.633857072490    -0.035872983335     1.007825032070
           H         -3.951828071176    -1.191904072490     0.323416016665     1.007825032070
           H         -3.672011071176    -1.702889072490    -1.348898983335     1.007825032070
           C         -0.853889071176     1.095616927510     0.331066016665    12.000000000000
           C          0.372312928824     0.202262927510     0.330911016665    12.000000000000
           H         -0.885024071176     1.732213927510    -0.543314983335     1.007825032070
           H         -0.885118071176     1.731819927510     1.205729016665     1.007825032070
           C          1.672363928824     1.008697927510     0.331057016665    12.000000000000
           H          0.335513928824    -0.444374072490    -0.541410983335     1.007825032070
           H          0.335497928824    -0.444751072490     1.202965016665     1.007825032070
           C          2.921479928824     0.125501927510     0.330268016665    12.000000000000
           H          1.695439928824     1.661798927510    -0.539581983335     1.007825032070
           H          1.695830928824     1.660831927510     1.202408016665     1.007825032070
           C          4.219941928824     0.931020927510     0.329058016665    12.000000000000
           H          2.899822928824    -0.526578072490    -0.540017983335     1.007825032070
           H          2.901199928824    -0.526187072490     1.200877016665     1.007825032070
           H          4.285283928824     1.568460927510    -0.548104983335     1.007825032070
           H          5.086892928824     0.277850927510     0.328336016665     1.007825032070
           H          4.286834928824     1.568582927510     1.206013016665     1.007825032070

  Charge       = 0
  Multiplicity = 1
  Basis Set: 6-31G*
  Basis Set:

    Orbital Energies (a.u.)
    -----------------------

    Doubly Occupied:

       1A    -20.606253     2A    -20.542144     3A    -11.382460
       4A    -11.281864     5A    -11.235955     6A    -11.210212
       7A    -11.208264     8A    -11.204441     9A    -11.190464
      10A     -1.476693    11A     -1.370006    12A     -1.082236
      13A     -1.040155    14A     -0.996211    15A     -0.927348
      16A     -0.849830    17A     -0.791940    18A     -0.765168
      19A     -0.708930    20A     -0.688637    21A     -0.660519
      22A     -0.636683    23A     -0.604677    24A     -0.588702
      25A     -0.577965    26A     -0.565330    27A     -0.556645
      28A     -0.532365    29A     -0.524904    30A     -0.518864
      31A     -0.491783    32A     -0.470971    33A     -0.461963
      34A     -0.458446    35A     -0.435629    36A     -0.396647

  @DF-RHF Final Energy:  -422.94260462639380

   => Energetics <=

    Nuclear Repulsion Energy =            469.0140170123341363
    One-Electron Energy =               -1505.8303855279959862
    Two-Electron Energy =                 613.8737638892695259
    DFT Exchange-Correlation Energy =       0.0000000000000000
    Empirical Dispersion Energy =           0.0000000000000000
    PCM Polarization Energy =               0.0000000000000000
    EFP Energy =                            0.0000000000000000
    Total Energy =                       -422.9426046263923809

  Mulliken Charges: (a.u.)
   Center  Symbol    Alpha    Beta     Spin     Total
       1     O     4.29261  4.29261  0.00000 -0.58522
       2     C     2.60408  2.60408  0.00000  0.79184
       3     C     3.28768  3.28768  0.00000 -0.57537
       4     O     4.31368  4.31368  0.00000 -0.62735
       5     H     0.39729  0.39729  0.00000  0.20542
       6     H     0.39811  0.39811  0.00000  0.20378
       7     H     0.39682  0.39682  0.00000  0.20637
       8     C     2.99700  2.99700  0.00000  0.00601
       9     C     3.20386  3.20386  0.00000 -0.40772
      10     H     0.41404  0.41404  0.00000  0.17191
      11     H     0.40763  0.40763  0.00000  0.18473
      12     C     3.15425  3.15425  0.00000 -0.30850
      13     H     0.35370  0.35370  0.00000  0.29260
      14     H     0.42501  0.42501  0.00000  0.14998
      15     C     3.15006  3.15006  0.00000 -0.30012
      16     H     0.42573  0.42573  0.00000  0.14854
      17     H     0.43062  0.43062  0.00000  0.13876
      18     C     3.23912  3.23912  0.00000 -0.47824
      19     H     0.41998  0.41998  0.00000  0.16005
      20     H     0.42366  0.42366  0.00000  0.15269
      21     H     0.42230  0.42230  0.00000  0.15540
      22     H     0.41993  0.41993  0.00000  0.16014
      23     H     0.42284  0.42284  0.00000  0.15431

   Total alpha = 36.00000, Total beta = 36.00000, Total charge = -0.00000
