  ==> Input File <==

--------------------------------------------------------------------------
set {
	reference rhf
	basis 6-31G*
}

set_num_threads( 1 )
memory 2 gb

molecule MOL {
0 1

H	 -2.172150	 0.880146	 0.502514
C	 -2.018062	 -0.000025	 -0.114509
O	 -0.774054	 0.001095	 -0.743181
H	 -2.760490	 0.003458	 -0.901350
H	 -2.173624	 -0.884374	 0.496163
C	 0.340447	 0.584067	 -0.091596
C	 1.484683	 0.381305	 -1.082366
C	 0.118313	 2.080423	 0.150816
C	 0.652904	 -0.138761	 1.222560
H	 1.254924	 0.869241	 -2.022877
H	 1.626633	 -0.675654	 -1.277460
H	 2.412831	 0.790623	 -0.696800
H	 -0.172562	 2.571118	 -0.772027
H	 1.031990	 2.542842	 0.509933
H	 -0.651264	 2.265000	 0.892596
H	 0.737992	 -1.206902	 1.052601
H	 1.592108	 0.217251	 1.633271
H	 -0.112471	 0.027444	 1.973032

	symmetry c1
}
set optking {
	frozen_dihedral = ("
		2 3 6 7
	")
}

ee = energy('scf')
oeprop('DIPOLE', 'QUADRUPOLE', 'MULLIKEN_CHARGES')
f=open( 'psi4out.xyz', 'w' )
f.write( "18  " )
f.write( str(ee) + "\n" )
f.write( MOL.save_string_xyz() )
f.close()
--------------------------------------------------------------------------

    Molecular point group: c1

    Geometry (in Angstrom), charge = 0, multiplicity = 1:

       Center              X                  Y                   Z               Mass
    ------------   -----------------  -----------------  -----------------  -----------------
           H         -2.117400861639     0.399270849427     0.609994013304     1.007825032070
           C         -1.963312861639    -0.480900150573    -0.007028986696    12.000000000000
           O         -0.719304861639    -0.479780150573    -0.635700986696    15.994914619560
           H         -2.705740861639    -0.477417150573    -0.793869986696     1.007825032070
           H         -2.118874861639    -1.365249150573     0.603643013304     1.007825032070
           C          0.395196138361     0.103191849427     0.015884013304    12.000000000000
           C          1.539432138361    -0.099570150573    -0.974885986696    12.000000000000
           C          0.173062138361     1.599547849427     0.258296013304    12.000000000000
           C          0.707653138361    -0.619636150573     1.330040013304    12.000000000000
           H          1.309673138361     0.388365849427    -1.915396986696     1.007825032070
           H          1.681382138361    -1.156529150573    -1.169979986696     1.007825032070
           H          2.467580138361     0.309747849427    -0.589319986696     1.007825032070
           H         -0.117812861639     2.090242849427    -0.664546986696     1.007825032070
           H          1.086739138361     2.061966849427     0.617413013304     1.007825032070
           H         -0.596514861639     1.784124849427     1.000076013304     1.007825032070
           H          0.792741138361    -1.687777150573     1.160081013304     1.007825032070
           H          1.646857138361    -0.263624150573     1.740751013304     1.007825032070
           H         -0.057721861639    -0.453431150573     2.080512013304     1.007825032070

  Charge       = 0
  Multiplicity = 1
  Basis Set: 6-31G*
  Basis Set:

    Orbital Energies (a.u.)
    -----------------------

    Doubly Occupied:

       1A    -20.545982     2A    -11.281597     3A    -11.260263
       4A    -11.208909     5A    -11.208670     6A    -11.203257
       7A     -1.369750     8A     -1.073076     9A     -0.946026
      10A     -0.939805    11A     -0.912244    12A     -0.752572
      13A     -0.655550    14A     -0.644137    15A     -0.638014
      16A     -0.591493    17A     -0.573586    18A     -0.552726
      19A     -0.535999    20A     -0.523609    21A     -0.514985
      22A     -0.488442    23A     -0.486218    24A     -0.438615
      25A     -0.403132

  @DF-RHF Final Energy:  -271.17418515532523

   => Energetics <=

    Nuclear Repulsion Energy =            272.2991099309658125
    One-Electron Energy =                -907.4489878091310402
    Two-Electron Energy =                 363.9756927228399945
    DFT Exchange-Correlation Energy =       0.0000000000000000
    Empirical Dispersion Energy =           0.0000000000000000
    PCM Polarization Energy =               0.0000000000000000
    EFP Energy =                            0.0000000000000000
    Total Energy =                       -271.1741851553251763

  Mulliken Charges: (a.u.)
   Center  Symbol    Alpha    Beta     Spin     Total
       1     H     0.43084  0.43084  0.00000  0.13832
       2     C     3.07776  3.07776  0.00000 -0.15551
       3     O     4.31931  4.31931  0.00000 -0.63862
       4     H     0.41502  0.41502  0.00000  0.16997
       5     H     0.42682  0.42682  0.00000  0.14637
       6     C     2.84374  2.84374  0.00000  0.31251
       7     C     3.23308  3.23308  0.00000 -0.46616
       8     C     3.24702  3.24702  0.00000 -0.49404
       9     C     3.24614  3.24614  0.00000 -0.49228
      10     H     0.41412  0.41412  0.00000  0.17176
      11     H     0.41403  0.41403  0.00000  0.17194
      12     H     0.42517  0.42517  0.00000  0.14967
      13     H     0.41316  0.41316  0.00000  0.17367
      14     H     0.41953  0.41953  0.00000  0.16094
      15     H     0.42019  0.42019  0.00000  0.15963
      16     H     0.41328  0.41328  0.00000  0.17344
      17     H     0.42002  0.42002  0.00000  0.15997
      18     H     0.42079  0.42079  0.00000  0.15841

   Total alpha = 25.00000, Total beta = 25.00000, Total charge =  0.00000
