  ==> Input File <==

--------------------------------------------------------------------------
set {
	reference rhf
	basis 6-31G*
}

set_num_threads( 4 )
memory 2 gb

molecule MOL {
0 1

H	 -1.836216	 1.387520	 -0.000064
C	 -1.301823	 0.443321	 -0.000031
O	 -0.003969	 0.658512	 0.000451
O	 -1.829879	 -0.616434	 -0.000857
C	 0.802242	 -0.191632	 -0.814697
C	 2.240230	 0.249390	 -0.647336
H	 0.472427	 -0.105630	 -1.840925
H	 0.656886	 -1.216225	 -0.501050
H	 2.365365	 1.280130	 -0.958706
H	 2.889253	 -0.373925	 -1.253538
H	 2.550873	 0.164219	 0.387620

	symmetry c1
}
set optking {
	frozen_dihedral = ("
		5 3 2 4
	")
}

ee = optimize('scf')
oeprop('DIPOLE', 'QUADRUPOLE', 'MULLIKEN_CHARGES')
f=open( 'psi4out.xyz', 'w' )
f.write( "11  " )
f.write( str(ee) + "\n" )
f.write( MOL.save_string_xyz() )
f.close()
--------------------------------------------------------------------------

    Molecular point group: c1
  Charge       = 0
  Multiplicity = 1
  Basis Set: 6-31G*
  Basis Set:
  @DF-RHF Final Energy:  -266.82009019721198
    Total Energy =                       -266.8200901972119254
    Molecular point group: c1
  Basis Set: 6-31G*
  Basis Set:
  Basis Set: 6-31G*
  Basis Set:
  @DF-RHF Final Energy:  -266.81208202381333
    Total Energy =                       -266.8120820238132183
  Basis Set: 6-31G*
  Basis Set:
  Basis Set: 6-31G*
  Basis Set:
  @DF-RHF Final Energy:  -266.82054404153666
    Total Energy =                       -266.8205440415368344
  Basis Set: 6-31G*
  Basis Set:
  Basis Set: 6-31G*
  Basis Set:
  @DF-RHF Final Energy:  -266.82082350947564
    Total Energy =                       -266.8208235094757015
  Basis Set: 6-31G*
  Basis Set:
  Basis Set: 6-31G*
  Basis Set:
  @DF-RHF Final Energy:  -266.82082637163580
    Total Energy =                       -266.8208263716357465
  Basis Set: 6-31G*
  Basis Set:
  Charge       = 0
  Multiplicity = 1
  Basis Set: 6-31G*
  Basis Set:

    Orbital Energies (a.u.)
    -----------------------

    Doubly Occupied:

       1A    -20.604541     2A    -20.561717     3A    -11.379293
       4A    -11.295194     5A    -11.227553     6A     -1.470995
       7A     -1.375143     8A     -1.051736     9A     -0.898786
      10A     -0.810488    11A     -0.738185    12A     -0.686918
      13A     -0.672541    14A     -0.607627    15A     -0.564357
      16A     -0.555472    17A     -0.523466    18A     -0.511922
      19A     -0.462009    20A     -0.450538

  @DF-RHF Final Energy:  -266.82082693073335

   => Energetics <=

    Nuclear Repulsion Energy =            178.3898665926203648
    One-Electron Energy =                -717.5244268726834207
    Two-Electron Energy =                 272.3137333493297092
    DFT Exchange-Correlation Energy =       0.0000000000000000
    Empirical Dispersion Energy =           0.0000000000000000
    PCM Polarization Energy =               0.0000000000000000
    EFP Energy =                            0.0000000000000000
    Total Energy =                       -266.8208269307333467
    Molecular point group: c1
  Basis Set: 6-31G*
  Basis Set:

  -Total Gradient:
     Atom            X                  Y                   Z
    ------   -----------------  -----------------  -----------------
       1        0.000018177921    -0.000011500610    -0.000004959751
       2        0.000379532980     0.003111501209    -0.019187364555
       3        0.000446714055    -0.008061598766     0.014657356420
       4       -0.000372825408    -0.000307132814     0.010613038302
       5       -0.000480536286     0.005252202307    -0.006075990578
       6        0.000007201026     0.000010560815    -0.000007878388
       7        0.000000932713     0.000007856161     0.000024694149
       8       -0.000005405130     0.000000517653    -0.000009646012
       9        0.000003543859     0.000000909370     0.000000589920
      10        0.000008929780    -0.000000930335    -0.000002830487
      11       -0.000006265512    -0.000002384989    -0.000007009019

  **** Optimization is complete! (in 6 steps) ****
    Final optimized geometry and variables:
    Molecular point group: c1

    Geometry (in Angstrom), charge = 0, multiplicity = 1:

    H           -1.807763928341     1.299085854318     0.382371763190
    C           -1.289596817514     0.350857241469     0.276914116579
    O            0.022400263145     0.527753168836     0.321978398322
    O           -1.844153019358    -0.691950938565     0.233399839049
    C            0.837199995532    -0.321648845566    -0.487041828944
    C            2.268314369738     0.148271473581    -0.343593496149
    H            0.497790420976    -0.247934758792    -1.513022811676
    H            0.719435846007    -1.345962643935    -0.163098582409
    H            2.368937114675     1.177969282015    -0.666347142205
    H            2.922324426779    -0.469660916744    -0.950117412488
    H            2.589995229565     0.079218543369     0.689022098763

  Mulliken Charges: (a.u.)
   Center  Symbol    Alpha    Beta     Spin     Total
       1     H     0.41475  0.41475  0.00000  0.17050
       2     C     2.72729  2.72729  0.00000  0.54543
       3     O     4.29733  4.29733  0.00000 -0.59466
       4     O     4.25184  4.25184  0.00000 -0.50368
       5     C     3.00570  3.00570  0.00000 -0.01140
       6     C     3.24881  3.24881  0.00000 -0.49762
       7     H     0.41546  0.41546  0.00000  0.16908
       8     H     0.40420  0.40420  0.00000  0.19160
       9     H     0.41085  0.41085  0.00000  0.17830
      10     H     0.41536  0.41536  0.00000  0.16929
      11     H     0.40841  0.40841  0.00000  0.18317

   Total alpha = 20.00000, Total beta = 20.00000, Total charge =  0.00000
