  ==> Input File <==

--------------------------------------------------------------------------
set {
	reference rhf
	basis 6-31G*
}

set_num_threads( 1 )
memory 2 gb

molecule MOL {
0 1

H	 3.474263	 -0.670432	 -1.110551
O	 2.557844	 -0.887484	 -0.969770
C	 2.077727	 -0.067559	 -0.035091
C	 0.624473	 -0.343591	 0.253101
O	 2.750329	 0.764681	 0.480660
C	 -0.265902	 0.883932	 0.072916
H	 0.324016	 -1.163849	 -0.390541
H	 0.565024	 -0.726111	 1.268924
C	 -1.728698	 0.646073	 0.462102
H	 -0.209144	 1.219470	 -0.958188
H	 0.135059	 1.692851	 0.673903
C	 -2.482460	 -0.343073	 -0.431425
H	 -2.245265	 1.602650	 0.432430
H	 -1.779332	 0.308348	 1.496285
C	 -3.960546	 -0.461025	 -0.060175
H	 -2.395034	 -0.026811	 -1.468912
H	 -2.024850	 -1.327147	 -0.371646
H	 -4.472726	 -1.168004	 -0.705284
H	 -4.465146	 0.496508	 -0.151489
H	 -4.081218	 -0.800940	 0.964585

	symmetry c1
}
set optking {
	frozen_dihedral = ("
		16 12 9 6,
		7 4 6 10,
		12 9 6 10,
		1 2 3 5
	")
}

ee = energy('scf')
oeprop('DIPOLE', 'QUADRUPOLE', 'MULLIKEN_CHARGES')
f=open( 'psi4out.xyz', 'w' )
f.write( "20  " )
f.write( str(ee) + "\n" )
f.write( MOL.save_string_xyz() )
f.close()
--------------------------------------------------------------------------

    Molecular point group: c1

    Geometry (in Angstrom), charge = 0, multiplicity = 1:

       Center              X                  Y                   Z               Mass
    ------------   -----------------  -----------------  -----------------  -----------------
           H          3.484857429953    -0.681156882433    -1.067400004564     1.007825032070
           O          2.568438429953    -0.898208882433    -0.926619004564    15.994914619560
           C          2.088321429953    -0.078283882433     0.008059995436    12.000000000000
           C          0.635067429953    -0.354315882433     0.296251995436    12.000000000000
           O          2.760923429953     0.753956117567     0.523810995436    15.994914619560
           C         -0.255307570047     0.873207117567     0.116066995436    12.000000000000
           H          0.334610429953    -1.174573882433    -0.347390004564     1.007825032070
           H          0.575618429953    -0.736835882433     1.312074995436     1.007825032070
           C         -1.718103570047     0.635348117567     0.505252995436    12.000000000000
           H         -0.198549570047     1.208745117567    -0.915037004564     1.007825032070
           H          0.145653429953     1.682126117567     0.717053995436     1.007825032070
           C         -2.471865570047    -0.353797882433    -0.388274004564    12.000000000000
           H         -2.234670570047     1.591925117567     0.475580995436     1.007825032070
           H         -1.768737570047     0.297623117567     1.539435995436     1.007825032070
           C         -3.949951570047    -0.471749882433    -0.017024004564    12.000000000000
           H         -2.384439570047    -0.037535882433    -1.425761004564     1.007825032070
           H         -2.014255570047    -1.337871882433    -0.328495004564     1.007825032070
           H         -4.462131570047    -1.178728882433    -0.662133004564     1.007825032070
           H         -4.454551570047     0.485783117567    -0.108338004564     1.007825032070
           H         -4.070623570047    -0.811664882433     1.007735995436     1.007825032070

  Charge       = 0
  Multiplicity = 1
  Basis Set: 6-31G*
  Basis Set:

    Orbital Energies (a.u.)
    -----------------------

    Doubly Occupied:

       1A    -20.613697     2A    -20.549519     3A    -11.380576
       4A    -11.238283     5A    -11.229642     6A    -11.223227
       7A    -11.221528     8A    -11.213396     9A     -1.474317
      10A     -1.364735    11A     -1.098570    12A     -1.041859
      13A     -0.961878    14A     -0.869053    15A     -0.817631
      16A     -0.784907    17A     -0.702047    18A     -0.687263
      19A     -0.644733    20A     -0.641976    21A     -0.611318
      22A     -0.594317    23A     -0.575728    24A     -0.555467
      25A     -0.545779    26A     -0.513165    27A     -0.501130
      28A     -0.478707    29A     -0.473783    30A     -0.467214
      31A     -0.459123    32A     -0.439288

  @DF-RHF Final Energy:  -383.94662141496707

   => Energetics <=

    Nuclear Repulsion Energy =            375.9253963050970810
    One-Electron Energy =               -1267.7963103735635286
    Two-Electron Energy =                 507.9242926534991511
    DFT Exchange-Correlation Energy =       0.0000000000000000
    Empirical Dispersion Energy =           0.0000000000000000
    PCM Polarization Energy =               0.0000000000000000
    EFP Energy =                            0.0000000000000000
    Total Energy =                       -383.9466214149672396

  Mulliken Charges: (a.u.)
   Center  Symbol    Alpha    Beta     Spin     Total
       1     H     0.26873  0.26873  0.00000  0.46253
       2     O     4.34824  4.34824  0.00000 -0.69648
       3     C     2.62456  2.62456  0.00000  0.75089
       4     C     3.21173  3.21173  0.00000 -0.42346
       5     O     4.27921  4.27921  0.00000 -0.55842
       6     C     3.16258  3.16258  0.00000 -0.32515
       7     H     0.39671  0.39671  0.00000  0.20659
       8     H     0.39957  0.39957  0.00000  0.20085
       9     C     3.15507  3.15507  0.00000 -0.31013
      10     H     0.41546  0.41546  0.00000  0.16909
      11     H     0.40208  0.40208  0.00000  0.19583
      12     C     3.15470  3.15470  0.00000 -0.30940
      13     H     0.41763  0.41763  0.00000  0.16475
      14     H     0.42147  0.42147  0.00000  0.15705
      15     C     3.23951  3.23951  0.00000 -0.47902
      16     H     0.42163  0.42163  0.00000  0.15674
      17     H     0.42139  0.42139  0.00000  0.15722
      18     H     0.41795  0.41795  0.00000  0.16409
      19     H     0.42073  0.42073  0.00000  0.15853
      20     H     0.42104  0.42104  0.00000  0.15792

   Total alpha = 32.00000, Total beta = 32.00000, Total charge = -0.00000
