                              Psi4 1.0.54 Driver

  ==> Input File <==

--------------------------------------------------------------------------
set {
	reference rhf
	basis cc-pvtz
}

set_num_threads( 4 )
memory 2 gb

molecule MOL {
0 1

H	 2.538437	 -0.745683	 0.776789
O	 2.012307	 -0.863440	 0.000222
C	 1.050374	 0.054877	 0.000135
C	 -0.318151	 -0.570512	 0.000144
O	 1.286319	 1.213453	 -0.000040
C	 -1.454884	 0.441630	 -0.000560
H	 -0.371613	 -1.223646	 -0.864985
H	 -0.371920	 -1.222758	 0.865929
C	 -2.822577	 -0.232186	 0.000063
H	 -1.359760	 1.084704	 -0.867077
H	 -1.359641	 1.085996	 0.864983
H	 -2.954352	 -0.858985	 -0.875745
H	 -3.615886	 0.505352	 0.000019
H	 -2.953878	 -0.858359	 0.876394

	symmetry c1
}
set optking {
	frozen_dihedral = ("
		1 2 3 5
	")
}

ee,wfn = optimize('scf', return_wfn=True)
oeprop( wfn, 'DIPOLE', 'QUADRUPOLE', 'MULLIKEN_CHARGES')
f=open( 'psi4out.xyz', 'w' )
f.write( "14  " )
f.write( str(ee) + "\n" )
f.write( MOL.save_string_xyz() )
f.close()
--------------------------------------------------------------------------

    Molecular point group: c1
  Charge       = 0
  Multiplicity = 1
  Basis Set: CC-PVTZ
  Basis Set:
  @DF-RHF Final Energy:  -305.98581307359495
    Total Energy =                       -305.9858130735949544
    Molecular point group: c1
  Basis Set: CC-PVTZ
  Basis Set:
  Basis Set: CC-PVTZ
  Basis Set:
  @DF-RHF Final Energy:  -305.98388462280354
    Total Energy =                       -305.9838846228034299
  Basis Set: CC-PVTZ
  Basis Set:
  Basis Set: CC-PVTZ
  Basis Set:
  @DF-RHF Final Energy:  -305.98698041598391
    Total Energy =                       -305.9869804159840214
  Basis Set: CC-PVTZ
  Basis Set:
  Basis Set: CC-PVTZ
  Basis Set:
  @DF-RHF Final Energy:  -305.98713640521669
    Total Energy =                       -305.9871364052167451
  Basis Set: CC-PVTZ
  Basis Set:
  Basis Set: CC-PVTZ
  Basis Set:
  @DF-RHF Final Energy:  -305.98714355495986
    Total Energy =                       -305.9871435549600278
  Basis Set: CC-PVTZ
  Basis Set:
  Basis Set: CC-PVTZ
  Basis Set:
  @DF-RHF Final Energy:  -305.98714508858473
    Total Energy =                       -305.9871450885848390
  Basis Set: CC-PVTZ
  Basis Set:
  Charge       = 0
  Multiplicity = 1
  Basis Set: CC-PVTZ
  Basis Set:

    Orbital Energies (a.u.)
    -----------------------

    Doubly Occupied:

       1A    -20.591491     2A    -20.548214     3A    -11.374549
       4A    -11.239968     5A    -11.224116     6A    -11.215927
       7A     -1.467024     8A     -1.370771     9A     -1.083861
      10A     -0.978769    11A     -0.855747    12A     -0.795532
      13A     -0.709370    14A     -0.684310    15A     -0.665571
      16A     -0.629671    17A     -0.579677    18A     -0.565547
      19A     -0.546287    20A     -0.507885    21A     -0.496580
      22A     -0.484120    23A     -0.483283    24A     -0.447490

  @DF-RHF Final Energy:  -305.98714491082160

   => Energetics <=

    Nuclear Repulsion Energy =            239.8453159357699178
    One-Electron Energy =                -892.5733984917189900
    Two-Electron Energy =                 346.7409376451273033
    DFT Exchange-Correlation Energy =       0.0000000000000000
    Empirical Dispersion Energy =           0.0000000000000000
    PCM Polarization Energy =               0.0000000000000000
    EFP Energy =                            0.0000000000000000
    Total Energy =                       -305.9871449108217689
    Molecular point group: c1
  Basis Set: CC-PVTZ
  Basis Set:

  -Total Gradient:
     Atom            X                  Y                   Z
    ------   -----------------  -----------------  -----------------
       1       -0.005514687656    -0.006586344349     0.005554004623
       2        0.006167561267     0.008446977537    -0.011098491984
       3        0.000493841258    -0.002232120482     0.014474662219
       4       -0.000125044551    -0.000077504740     0.000071931751
       5       -0.000975164228     0.000502483224    -0.008974522471
       6       -0.000098537022    -0.000053516493     0.000000082636
       7        0.000062889159     0.000010735517    -0.000009355629
       8       -0.000014292767    -0.000021413709    -0.000020058592
       9       -0.000003010637     0.000017715731    -0.000001370329
      10        0.000002159933    -0.000005140998     0.000006312046
      11        0.000001746740    -0.000001839080    -0.000002187472
      12       -0.000002495165    -0.000002323619    -0.000001314251
      13        0.000005804617     0.000002063828    -0.000000704803
      14       -0.000000770942     0.000000227635     0.000001012254

  **** Optimization is complete! (in 7 steps) ****
    Final optimized geometry and variables:
    Molecular point group: c1

    Geometry (in Angstrom), charge = 0, multiplicity = 1:

    H            2.652721955750    -0.824932081390     0.564648731345
    O            2.022857901577    -0.875449815251    -0.135897797379
    C            1.053930509156     0.055432067645     0.013410004112
    C           -0.320539663511    -0.556733470124     0.015303820257
    O            1.290403854307     1.207755260387     0.039720636317
    C           -1.455505343290     0.456635767029     0.020538901792
    H           -0.374089756036    -1.209600121003    -0.850210390010
    H           -0.375235048060    -1.214686204904     0.878135688981
    C           -2.825117207711    -0.213379434210     0.020362492487
    H           -1.359909275525     1.102392796497    -0.844145727616
    H           -1.357942359543     1.098338850259     0.887966951253
    H           -2.959246169793    -0.837115619796    -0.857204236074
    H           -3.616561164870     0.526150823120     0.023400853594
    H           -2.957326405573    -0.841978568109     0.894912986404

  Mulliken Charges: (a.u.)
   Center  Symbol    Alpha    Beta     Spin     Total
       1     H     0.38254  0.38254  0.00000  0.23493
       2     O     4.17509  4.17509  0.00000 -0.35019
       3     C     2.80397  2.80397  0.00000  0.39206
       4     C     3.10568  3.10568  0.00000 -0.21136
       5     O     4.17054  4.17054  0.00000 -0.34109
       6     C     3.08093  3.08093  0.00000 -0.16187
       7     H     0.43781  0.43781  0.00000  0.12438
       8     H     0.44497  0.44497  0.00000  0.11006
       9     C     3.14994  3.14994  0.00000 -0.29988
      10     H     0.44569  0.44569  0.00000  0.10862
      11     H     0.44676  0.44676  0.00000  0.10649
      12     H     0.45503  0.45503  0.00000  0.08995
      13     H     0.44506  0.44506  0.00000  0.10987
      14     H     0.45599  0.45599  0.00000  0.08802

   Total alpha = 24.00000, Total beta = 24.00000, Total charge = -0.00000

*** Psi4 exiting successfully. Buy a developer a beer!
