  ==> Input File <==

--------------------------------------------------------------------------
set {
	reference rhf
	basis 6-31G*
}

set_num_threads( 1 )
memory 2 gb

molecule MOL {
0 1

O	 1.319589	 0.666084	 0.982544
C	 1.705091	 0.115954	 0.001797
C	 1.130240	 0.284685	 -1.383462
O	 2.721346	 -0.737485	 -0.000216
C	 -0.042335	 1.259191	 -1.438687
H	 1.939491	 0.605094	 -2.033974
H	 0.839992	 -0.701028	 -1.736797
C	 -0.604213	 1.411633	 -2.852942
H	 0.278017	 2.225753	 -1.062760
H	 -0.823056	 0.917789	 -0.766209
C	 -1.780738	 2.386407	 -2.926855
H	 0.184321	 1.750752	 -3.523172
H	 -0.921499	 0.438683	 -3.225205
C	 -2.342502	 2.537377	 -4.339965
H	 -1.464705	 3.359547	 -2.557716
H	 -2.569611	 2.048531	 -2.258531
H	 -1.585475	 2.907337	 -5.025716
H	 -3.174798	 3.234047	 -4.359606
H	 -2.698767	 1.585728	 -4.724346
C	 4.024888	 -0.184556	 -0.001949
H	 4.179030	 0.422472	 -0.882452
H	 4.701782	 -1.024608	 -0.003642
H	 4.181981	 0.421185	 0.878906

	symmetry c1
}
set optking {
	frozen_dihedral = ("
		15 11 8 12,
		9 5 8 12,
		1 2 3 6,
		9 5 3 6
	")
}

ee = energy('scf')
oeprop('DIPOLE', 'QUADRUPOLE', 'MULLIKEN_CHARGES')
f=open( 'psi4out.xyz', 'w' )
f.write( "23  " )
f.write( str(ee) + "\n" )
f.write( MOL.save_string_xyz() )
f.close()
--------------------------------------------------------------------------

    Molecular point group: c1

    Geometry (in Angstrom), charge = 0, multiplicity = 1:

       Center              X                  Y                   Z               Mass
    ------------   -----------------  -----------------  -----------------  -----------------
           O          0.606209100880    -0.186493996392     2.297834668345    15.994914619560
           C          0.991711100880    -0.736623996392     1.317087668345    12.000000000000
           C          0.416860100880    -0.567892996392    -0.068171331655    12.000000000000
           O          2.007966100880    -1.590062996392     1.315074668345    15.994914619560
           C         -0.755714899120     0.406613003608    -0.123396331655    12.000000000000
           H          1.226111100880    -0.247483996392    -0.718683331655     1.007825032070
           H          0.126612100880    -1.553605996392    -0.421506331655     1.007825032070
           C         -1.317592899120     0.559055003608    -1.537651331655    12.000000000000
           H         -0.435362899120     1.373175003608     0.252530668345     1.007825032070
           H         -1.536435899120     0.065211003608     0.549081668345     1.007825032070
           C         -2.494117899120     1.533829003608    -1.611564331655    12.000000000000
           H         -0.529058899120     0.898174003608    -2.207881331655     1.007825032070
           H         -1.634878899120    -0.413894996392    -1.909914331655     1.007825032070
           C         -3.055881899120     1.684799003608    -3.024674331655    12.000000000000
           H         -2.178084899120     2.506969003608    -1.242425331655     1.007825032070
           H         -3.282990899120     1.195953003608    -0.943240331655     1.007825032070
           H         -2.298854899120     2.054759003608    -3.710425331655     1.007825032070
           H         -3.888177899120     2.381469003608    -3.044315331655     1.007825032070
           H         -3.412146899120     0.733150003608    -3.409055331655     1.007825032070
           C          3.311508100880    -1.037133996392     1.313341668345    12.000000000000
           H          3.465650100880    -0.430105996392     0.432838668345     1.007825032070
           H          3.988402100880    -1.877185996392     1.311648668345     1.007825032070
           H          3.468601100880    -0.431392996392     2.194196668345     1.007825032070

  Charge       = 0
  Multiplicity = 1
  Basis Set: 6-31G*
  Basis Set:

    Orbital Energies (a.u.)
    -----------------------

    Doubly Occupied:

       1A    -20.587153     2A    -20.554382     3A    -11.373508
       4A    -11.293932     5A    -11.236806     6A    -11.219825
       7A    -11.218810     8A    -11.217264     9A    -11.210427
      10A     -1.464173    11A     -1.366456    12A     -1.093543
      13A     -1.041609    14A     -0.986588    15A     -0.941566
      16A     -0.848776    17A     -0.796256    18A     -0.768367
      19A     -0.695474    20A     -0.681679    21A     -0.675641
      22A     -0.649693    23A     -0.616175    24A     -0.606838
      25A     -0.578243    26A     -0.567826    27A     -0.555988
      28A     -0.536760    29A     -0.509191    30A     -0.495037
      31A     -0.486742    32A     -0.477895    33A     -0.469712
      34A     -0.466556    35A     -0.450326    36A     -0.430000

  @DF-RHF Final Energy:  -422.95628203052473

   => Energetics <=

    Nuclear Repulsion Energy =            453.6522764816929225
    One-Electron Energy =               -1474.8786814748339111
    Two-Electron Energy =                 598.2701229626197801
    DFT Exchange-Correlation Energy =       0.0000000000000000
    Empirical Dispersion Energy =           0.0000000000000000
    PCM Polarization Energy =               0.0000000000000000
    EFP Energy =                            0.0000000000000000
    Total Energy =                       -422.9562820305211517

  Mulliken Charges: (a.u.)
   Center  Symbol    Alpha    Beta     Spin     Total
       1     O     4.26109  4.26109  0.00000 -0.52218
       2     C     2.61313  2.61313  0.00000  0.77373
       3     C     3.21134  3.21134  0.00000 -0.42267
       4     O     4.31122  4.31122  0.00000 -0.62245
       5     C     3.15342  3.15342  0.00000 -0.30685
       6     H     0.40781  0.40781  0.00000  0.18438
       7     H     0.39868  0.39868  0.00000  0.20264
       8     C     3.15300  3.15300  0.00000 -0.30600
       9     H     0.41306  0.41306  0.00000  0.17387
      10     H     0.41052  0.41052  0.00000  0.17897
      11     C     3.15153  3.15153  0.00000 -0.30307
      12     H     0.42521  0.42521  0.00000  0.14957
      13     H     0.42372  0.42372  0.00000  0.15256
      14     C     3.23957  3.23957  0.00000 -0.47914
      15     H     0.42160  0.42160  0.00000  0.15680
      16     H     0.42092  0.42092  0.00000  0.15816
      17     H     0.42215  0.42215  0.00000  0.15569
      18     H     0.41833  0.41833  0.00000  0.16334
      19     H     0.42167  0.42167  0.00000  0.15667
      20     C     3.09326  3.09326  0.00000 -0.18651
      21     H     0.42093  0.42093  0.00000  0.15813
      22     H     0.40194  0.40194  0.00000  0.19611
      23     H     0.40588  0.40588  0.00000  0.18824

   Total alpha = 36.00000, Total beta = 36.00000, Total charge = -0.00000
