  ==> Input File <==

--------------------------------------------------------------------------
set {
	reference rhf
	basis 6-31G*
}

set_num_threads( 1 )
memory 2 gb

molecule MOL {
0 1

O	 3.225979	 0.970355	 -0.599647
C	 2.701189	 0.057885	 -0.047330
C	 1.245376	 -0.013843	 0.345420
O	 3.347903	 -1.046386	 0.304773
C	 0.455112	 1.231400	 -0.050772
H	 0.838542	 -0.913825	 -0.103701
H	 1.208210	 -0.175333	 1.419774
C	 -0.998893	 1.219485	 0.433193
H	 0.482531	 1.345121	 -1.130325
H	 0.957290	 2.103070	 0.354729
C	 -1.883438	 0.145884	 -0.207175
H	 -1.431207	 2.195402	 0.224832
H	 -1.019646	 1.105716	 1.516076
C	 -2.238923	 -0.986087	 0.758885
H	 -2.799458	 0.608043	 -0.572052
H	 -1.387532	 -0.278064	 -1.077415
C	 -3.118285	 -2.067378	 0.128279
H	 -2.747969	 -0.571366	 1.627282
H	 -1.323139	 -1.441646	 1.132389
C	 -3.471890	 -3.192138	 1.100688
H	 -4.033405	 -1.613699	 -0.246384
H	 -2.609269	 -2.486153	 -0.737348
H	 -4.095386	 -3.942674	 0.624710
H	 -4.013194	 -2.810233	 1.961696
H	 -2.578008	 -3.688931	 1.467355
C	 4.728119	 -1.109107	 -0.004993
H	 4.882018	 -1.033965	 -1.071845
H	 5.068212	 -2.067527	 0.355250
H	 5.265056	 -0.311663	 0.488280

	symmetry c1
}
set optking {
	frozen_dihedral = ("
		21 17 14 11,
		17 14 11 15,
		6 3 5 9,
		11 8 5 9,
		2 4 26 27,
		1 2 4 26,
		6 3 2 1
	")
}

ee = energy('scf')
oeprop('DIPOLE', 'QUADRUPOLE', 'MULLIKEN_CHARGES')
f=open( 'psi4out.xyz', 'w' )
f.write( "29  " )
f.write( str(ee) + "\n" )
f.write( MOL.save_string_xyz() )
f.close()
--------------------------------------------------------------------------

    Molecular point group: c1

    Geometry (in Angstrom), charge = 0, multiplicity = 1:

       Center              X                  Y                   Z               Mass
    ------------   -----------------  -----------------  -----------------  -----------------
           O          2.816446364620     1.424852511798    -0.795939929230    15.994914619560
           C          2.291656364620     0.512382511798    -0.243622929230    12.000000000000
           C          0.835843364620     0.440654511798     0.149127070770    12.000000000000
           O          2.938370364620    -0.591888488202     0.108480070770    15.994914619560
           C          0.045579364620     1.685897511798    -0.247064929230    12.000000000000
           H          0.429009364620    -0.459327488202    -0.299993929230     1.007825032070
           H          0.798677364620     0.279164511798     1.223481070770     1.007825032070
           C         -1.408425635380     1.673982511798     0.236900070770    12.000000000000
           H          0.072998364620     1.799618511798    -1.326617929230     1.007825032070
           H          0.547757364620     2.557567511798     0.158436070770     1.007825032070
           C         -2.292970635380     0.600381511798    -0.403467929230    12.000000000000
           H         -1.840739635380     2.649899511798     0.028539070770     1.007825032070
           H         -1.429178635380     1.560213511798     1.319783070770     1.007825032070
           C         -2.648455635380    -0.531589488202     0.562592070770    12.000000000000
           H         -3.208990635380     1.062540511798    -0.768344929230     1.007825032070
           H         -1.797064635380     0.176433511798    -1.273707929230     1.007825032070
           C         -3.527817635380    -1.612880488202    -0.068013929230    12.000000000000
           H         -3.157501635380    -0.116868488202     1.430989070770     1.007825032070
           H         -1.732671635380    -0.987148488202     0.936096070770     1.007825032070
           C         -3.881422635380    -2.737640488202     0.904395070770    12.000000000000
           H         -4.442937635380    -1.159201488202    -0.442676929230     1.007825032070
           H         -3.018801635380    -2.031655488202    -0.933640929230     1.007825032070
           H         -4.504918635380    -3.488176488202     0.428417070770     1.007825032070
           H         -4.422726635380    -2.355735488202     1.765403070770     1.007825032070
           H         -2.987540635380    -3.234433488202     1.271062070770     1.007825032070
           C          4.318586364620    -0.654609488202    -0.201285929230    12.000000000000
           H          4.472485364620    -0.579467488202    -1.268137929230     1.007825032070
           H          4.658679364620    -1.613029488202     0.158957070770     1.007825032070
           H          4.855523364620     0.142834511798     0.291987070770     1.007825032070

  Charge       = 0
  Multiplicity = 1
  Basis Set: 6-31G*
  Basis Set:

    Orbital Energies (a.u.)
    -----------------------

    Doubly Occupied:

       1A    -20.603647     2A    -20.545481     3A    -11.372298
       4A    -11.280856     5A    -11.235216     6A    -11.219073
       7A    -11.216119     8A    -11.216023     9A    -11.215300
      10A    -11.214517    11A    -11.209509    12A     -1.469343
      13A     -1.362779    14A     -1.099273    15A     -1.065984
      16A     -1.019706    17A     -0.976836    18A     -0.930114
      19A     -0.861928    20A     -0.801551    21A     -0.788412
      22A     -0.764364    23A     -0.701897    24A     -0.682688
      25A     -0.671926    26A     -0.648095    27A     -0.628771
      28A     -0.606992    29A     -0.596314    30A     -0.575494
      31A     -0.564432    32A     -0.562010    33A     -0.535272
      34A     -0.526615    35A     -0.514762    36A     -0.506567
      37A     -0.501836    38A     -0.476475    39A     -0.473037
      40A     -0.463867    41A     -0.457766    42A     -0.455062
      43A     -0.436865    44A     -0.435769

  @DF-RHF Final Energy:  -501.03889455234457

   => Energetics <=

    Nuclear Repulsion Energy =            623.9525831050771103
    One-Electron Energy =               -1919.0014749884639969
    Two-Electron Energy =                 794.0099973310407222
    DFT Exchange-Correlation Energy =       0.0000000000000000
    Empirical Dispersion Energy =           0.0000000000000000
    PCM Polarization Energy =               0.0000000000000000
    EFP Energy =                            0.0000000000000000
    Total Energy =                       -501.0388945523461643

  Mulliken Charges: (a.u.)
   Center  Symbol    Alpha    Beta     Spin     Total
       1     O     4.28580  4.28580  0.00000 -0.57161
       2     C     2.60470  2.60470  0.00000  0.79061
       3     C     3.20974  3.20974  0.00000 -0.41949
       4     O     4.30746  4.30746  0.00000 -0.61493
       5     C     3.15410  3.15410  0.00000 -0.30820
       6     H     0.39944  0.39944  0.00000  0.20113
       7     H     0.40097  0.40097  0.00000  0.19806
       8     C     3.16012  3.16012  0.00000 -0.32025
       9     H     0.41287  0.41287  0.00000  0.17427
      10     H     0.40969  0.40969  0.00000  0.18062
      11     C     3.15702  3.15702  0.00000 -0.31404
      12     H     0.41607  0.41607  0.00000  0.16786
      13     H     0.42115  0.42115  0.00000  0.15770
      14     C     3.15434  3.15434  0.00000 -0.30868
      15     H     0.41892  0.41892  0.00000  0.16217
      16     H     0.42185  0.42185  0.00000  0.15630
      17     C     3.15177  3.15177  0.00000 -0.30354
      18     H     0.42267  0.42267  0.00000  0.15467
      19     H     0.42402  0.42402  0.00000  0.15196
      20     C     3.23931  3.23931  0.00000 -0.47862
      21     H     0.42255  0.42255  0.00000  0.15490
      22     H     0.42358  0.42358  0.00000  0.15283
      23     H     0.41913  0.41913  0.00000  0.16173
      24     H     0.42172  0.42172  0.00000  0.15656
      25     H     0.42196  0.42196  0.00000  0.15608
      26     C     3.09244  3.09244  0.00000 -0.18488
      27     H     0.40907  0.40907  0.00000  0.18187
      28     H     0.40848  0.40848  0.00000  0.18303
      29     H     0.40906  0.40906  0.00000  0.18189

   Total alpha = 44.00000, Total beta = 44.00000, Total charge =  0.00000
