  ==> Input File <==

--------------------------------------------------------------------------
set {
	reference rhf
	basis 6-31G*
}

set_num_threads( 4 )
memory 2 gb

molecule MOL {
0 1

O	 -0.646575	 -0.061975	 -0.276487
C	 0.486307	 0.169203	 0.000779
C	 1.608116	 -0.841643	 0.000302
O	 0.920657	 1.370333	 0.356076
C	 2.990107	 -0.200498	 -0.000684
H	 1.468623	 -1.481519	 -0.865924
H	 1.469683	 -1.481289	 0.866878
H	 3.129736	 0.423364	 -0.875135
H	 3.757882	 -0.966877	 -0.001197
H	 3.130964	 0.423383	 0.873533
C	 -0.032143	 2.427442	 0.401847
C	 0.700931	 3.680884	 0.830562
H	 -0.816552	 2.165075	 1.098590
H	 -0.480168	 2.540915	 -0.575900
H	 1.148468	 3.549184	 1.809094
H	 0.008846	 4.515348	 0.878883
H	 1.486689	 3.927209	 0.125463

	symmetry c1
}
set optking {
	frozen_dihedral = ("
		4 2 3 6
	")
}

ee = optimize('scf')
oeprop('DIPOLE', 'QUADRUPOLE', 'MULLIKEN_CHARGES')
f=open( 'psi4out.xyz', 'w' )
f.write( "17  " )
f.write( str(ee) + "\n" )
f.write( MOL.save_string_xyz() )
f.close()
--------------------------------------------------------------------------

    Molecular point group: c1
  Charge       = 0
  Multiplicity = 1
  Basis Set: 6-31G*
  Basis Set:
  @DF-RHF Final Energy:  -344.90837199961521
    Total Energy =                       -344.9083719996149853
    Molecular point group: c1
  Basis Set: 6-31G*
  Basis Set:
  Basis Set: 6-31G*
  Basis Set:
  @DF-RHF Final Energy:  -344.90915545130377
    Total Energy =                       -344.9091554513039455
  Basis Set: 6-31G*
  Basis Set:
  Basis Set: 6-31G*
  Basis Set:
  @DF-RHF Final Energy:  -344.90915676859231
    Total Energy =                       -344.9091567685918562
  Basis Set: 6-31G*
  Basis Set:
  Basis Set: 6-31G*
  Basis Set:
  @DF-RHF Final Energy:  -344.90948822026428
    Total Energy =                       -344.9094882202638246
  Basis Set: 6-31G*
  Basis Set:
  Basis Set: 6-31G*
  Basis Set:
  @DF-RHF Final Energy:  -344.90950926946078
    Total Energy =                       -344.9095092694607274
  Basis Set: 6-31G*
  Basis Set:
  Basis Set: 6-31G*
  Basis Set:
  @DF-RHF Final Energy:  -344.90951530899662
    Total Energy =                       -344.9095153089965606
  Basis Set: 6-31G*
  Basis Set:
  Charge       = 0
  Multiplicity = 1
  Basis Set: 6-31G*
  Basis Set:

    Orbital Energies (a.u.)
    -----------------------

    Doubly Occupied:

       1A    -20.603645     2A    -20.539410     3A    -11.371454
       4A    -11.285557     5A    -11.237810     6A    -11.223070
       7A    -11.220329     8A     -1.468381     9A     -1.359944
      10A     -1.072082    11A     -1.030267    12A     -0.904944
      13A     -0.860966    14A     -0.778387    15A     -0.690433
      16A     -0.678385    17A     -0.670777    18A     -0.629513
      19A     -0.575761    20A     -0.571757    21A     -0.552954
      22A     -0.548849    23A     -0.522364    24A     -0.514168
      25A     -0.506495    26A     -0.491013    27A     -0.450239
      28A     -0.430466

  @DF-RHF Final Energy:  -344.90951536407965

   => Energetics <=

    Nuclear Repulsion Energy =            317.6080226793681049
    One-Electron Energy =               -1099.4562388734750584
    Two-Electron Energy =                 436.9387008300271873
    DFT Exchange-Correlation Energy =       0.0000000000000000
    Empirical Dispersion Energy =           0.0000000000000000
    PCM Polarization Energy =               0.0000000000000000
    EFP Energy =                            0.0000000000000000
    Total Energy =                       -344.9095153640797662
    Molecular point group: c1
  Basis Set: 6-31G*
  Basis Set:

  -Total Gradient:
     Atom            X                  Y                   Z
    ------   -----------------  -----------------  -----------------
       1        0.000026054315     0.000018100816    -0.000000610275
       2       -0.000081904456    -0.000097306484     0.000492475125
       3       -0.000318100347    -0.000342879926     0.000200256517
       4        0.000082018590     0.000131891084    -0.000443294303
       5        0.000001781597     0.000001232487     0.000003380015
       6        0.000293929963     0.000316950178    -0.000279502972
       7        0.000002492556    -0.000002742697     0.000001704604
       8       -0.000001657927     0.000002286538    -0.000003091512
       9       -0.000003001842    -0.000001767797    -0.000002270045
      10       -0.000005045977    -0.000004619180    -0.000001056136
      11        0.000004648960    -0.000043085969     0.000088239807
      12       -0.000000068730     0.000009123966    -0.000022480353
      13       -0.000001715964     0.000017666422    -0.000011806609
      14        0.000001167116    -0.000004052687    -0.000019532713
      15       -0.000004623085    -0.000007448751    -0.000002486520
      16        0.000000168201     0.000001856655    -0.000001771526
      17        0.000003857034     0.000004795348     0.000001846897

  **** Optimization is complete! (in 7 steps) ****
    Final optimized geometry and variables:
    Molecular point group: c1

    Geometry (in Angstrom), charge = 0, multiplicity = 1:

    O           -1.484636590347    -1.015998972930    -0.453753075339
    C           -0.352865729007    -0.759059345772    -0.190751770673
    C            0.755055790368    -1.790378043344    -0.203494401036
    O            0.054302823770     0.449601714062     0.160620365125
    C            2.182677028154    -1.250574353624    -0.191002172335
    H            0.579895392431    -2.409805004762    -1.075344670915
    H            0.582442496395    -2.428626461984     0.658991678308
    H            2.371479771148    -0.613024325772    -1.047341675289
    H            2.886918665203    -2.075079206872    -0.225352250745
    H            2.380512050177    -0.672726556202     0.702831568069
    C           -0.926700192851     1.480479188256     0.223372494761
    C           -0.219981763807     2.754921001461     0.633813259308
    H           -1.688825335836     1.197229600378     0.936191984447
    H           -1.396918413342     1.577056272858    -0.745453853480
    H            0.250147774690     2.639375875760     1.603816356522
    H           -0.933946719890     3.569978653595     0.693397035684
    H            0.544505169871     3.020661026585    -0.087419494188

  Mulliken Charges: (a.u.)
   Center  Symbol    Alpha    Beta     Spin     Total
       1     O     4.28928  4.28928  0.00000 -0.57857
       2     C     2.60522  2.60522  0.00000  0.78955
       3     C     3.20776  3.20776  0.00000 -0.41551
       4     O     4.31078  4.31078  0.00000 -0.62156
       5     C     3.23865  3.23865  0.00000 -0.47730
       6     H     0.39734  0.39734  0.00000  0.20531
       7     H     0.39895  0.39895  0.00000  0.20210
       8     H     0.41473  0.41473  0.00000  0.17055
       9     H     0.41681  0.41681  0.00000  0.16639
      10     H     0.41038  0.41038  0.00000  0.17923
      11     C     3.00267  3.00267  0.00000 -0.00533
      12     C     3.24886  3.24886  0.00000 -0.49772
      13     H     0.40963  0.40963  0.00000  0.18074
      14     H     0.40921  0.40921  0.00000  0.18157
      15     H     0.41199  0.41199  0.00000  0.17603
      16     H     0.41597  0.41597  0.00000  0.16806
      17     H     0.41177  0.41177  0.00000  0.17646

   Total alpha = 28.00000, Total beta = 28.00000, Total charge = -0.00000
