  ==> Input File <==

--------------------------------------------------------------------------
set {
	reference rhf
	basis 6-31G*
}

set_num_threads( 1 )
memory 2 gb

molecule MOL {
0 1

H	 1.028962	 -0.638017	 -1.171427
O	 1.654024	 -0.625927	 -0.460906
C	 1.135793	 0.118896	 0.612333
C	 0.031547	 1.023609	 0.088541
H	 1.915668	 0.729681	 1.063582
H	 0.754543	 -0.542641	 1.387006
C	 -1.134819	 0.293262	 -0.585751
H	 0.474374	 1.714721	 -0.623187
H	 -0.338529	 1.620940	 0.920081
C	 -1.917817	 -0.639439	 0.339494
H	 -0.758119	 -0.268455	 -1.433105
H	 -1.813832	 1.041889	 -0.986690
H	 -2.777680	 -1.057197	 -0.174994
H	 -1.310268	 -1.471279	 0.680599
H	 -2.283753	 -0.111424	 1.216626

	symmetry c1
}
set optking {
	frozen_dihedral = ("
		8 4 7 11,
		2 3 4 8
	")
}

ee = energy('scf')
oeprop('DIPOLE', 'QUADRUPOLE', 'MULLIKEN_CHARGES')
f=open( 'psi4out.xyz', 'w' )
f.write( "15  " )
f.write( str(ee) + "\n" )
f.write( MOL.save_string_xyz() )
f.close()
--------------------------------------------------------------------------

    Molecular point group: c1

    Geometry (in Angstrom), charge = 0, multiplicity = 1:

       Center              X                  Y                   Z               Mass
    ------------   -----------------  -----------------  -----------------  -----------------
           H          1.046730763725    -0.645718475506    -1.157503159994     1.007825032070
           O          1.671792763725    -0.633628475506    -0.446982159994    15.994914619560
           C          1.153561763725     0.111194524494     0.626256840006    12.000000000000
           C          0.049315763725     1.015907524494     0.102464840006    12.000000000000
           H          1.933436763725     0.721979524494     1.077505840006     1.007825032070
           H          0.772311763725    -0.550342475506     1.400929840006     1.007825032070
           C         -1.117050236275     0.285560524494    -0.571827159994    12.000000000000
           H          0.492142763725     1.707019524494    -0.609263159994     1.007825032070
           H         -0.320760236275     1.613238524494     0.934004840006     1.007825032070
           C         -1.900048236275    -0.647140475506     0.353417840006    12.000000000000
           H         -0.740350236275    -0.276156475506    -1.419181159994     1.007825032070
           H         -1.796063236275     1.034187524494    -0.972766159994     1.007825032070
           H         -2.759911236275    -1.064898475506    -0.161070159994     1.007825032070
           H         -1.292499236275    -1.478980475506     0.694522840006     1.007825032070
           H         -2.265984236275    -0.119125475506     1.230549840006     1.007825032070

  Charge       = 0
  Multiplicity = 1
  Basis Set: 6-31G*
  Basis Set:

    Orbital Energies (a.u.)
    -----------------------

    Doubly Occupied:

       1A    -20.547544     2A    -11.267006     3A    -11.230851
       4A    -11.222452     5A    -11.217584     6A     -1.358069
       7A     -1.076681     8A     -0.977805     9A     -0.885737
      10A     -0.791291    11A     -0.681849    12A     -0.651127
      13A     -0.631156    14A     -0.586949    15A     -0.577120
      16A     -0.552573    17A     -0.504042    18A     -0.485261
      19A     -0.484343    20A     -0.458671    21A     -0.429366

  @DF-RHF Final Energy:  -232.13783224491479

   => Energetics <=

    Nuclear Repulsion Energy =            193.2833494114461530
    One-Electron Energy =                -697.6072889654227538
    Two-Electron Energy =                 272.1861073090626633
    DFT Exchange-Correlation Energy =       0.0000000000000000
    Empirical Dispersion Energy =           0.0000000000000000
    PCM Polarization Energy =               0.0000000000000000
    EFP Energy =                            0.0000000000000000
    Total Energy =                       -232.1378322449139660

  Mulliken Charges: (a.u.)
   Center  Symbol    Alpha    Beta     Spin     Total
       1     H     0.27419  0.27419  0.00000  0.45161
       2     O     4.38031  4.38031  0.00000 -0.76062
       3     C     2.98034  2.98034  0.00000  0.03933
       4     C     3.18494  3.18494  0.00000 -0.36988
       5     H     0.41912  0.41912  0.00000  0.16176
       6     H     0.42732  0.42732  0.00000  0.14535
       7     C     3.16235  3.16235  0.00000 -0.32471
       8     H     0.41404  0.41404  0.00000  0.17192
       9     H     0.42002  0.42002  0.00000  0.15995
      10     C     3.24261  3.24261  0.00000 -0.48522
      11     H     0.43039  0.43039  0.00000  0.13922
      12     H     0.41359  0.41359  0.00000  0.17282
      13     H     0.41650  0.41650  0.00000  0.16701
      14     H     0.41479  0.41479  0.00000  0.17043
      15     H     0.41948  0.41948  0.00000  0.16104

   Total alpha = 21.00000, Total beta = 21.00000, Total charge = -0.00000
