  ==> Input File <==

--------------------------------------------------------------------------
set {
	reference rhf
	basis cc-pvtz
}

set_num_threads( 4 )
memory 2 gb

molecule MOL {
0 1

H	 2.773085	 -0.980083	 -1.656564
C	 2.054929	 -1.179912	 -0.871963
C	 1.322304	 0.099773	 -0.484271
H	 1.366057	 -1.933383	 -1.236800
H	 2.592841	 -1.597250	 -0.028268
C	 0.308557	 -0.162619	 0.622645
H	 0.805711	 0.508723	 -1.343704
H	 2.029590	 0.845526	 -0.142895
N	 -1.069352	 -0.004081	 0.085342
H	 0.371632	 -1.172932	 0.991288
H	 0.400391	 0.548875	 1.426218
O	 -1.584901	 -0.965470	 -0.377818
O	 -1.548033	 1.079343	 0.130056

	symmetry c1
}
set optking {
	frozen_dihedral = ("
		7 3 6 9
	")
}

ee = optimize('scf')
oeprop('DIPOLE', 'QUADRUPOLE', 'MULLIKEN_CHARGES')
f=open( 'psi4out.xyz', 'w' )
f.write( "13  " )
f.write( str(ee) + "\n" )
f.write( MOL.save_string_xyz() )
f.close()
--------------------------------------------------------------------------

    Molecular point group: c1
  Charge       = 0
  Multiplicity = 1
  Basis Set: CC-PVTZ
  Basis Set:
  @DF-RHF Final Energy:  -321.85582195432170
    Total Energy =                       -321.8558219543216978
    Molecular point group: c1
  Basis Set: CC-PVTZ
  Basis Set:
  Basis Set: CC-PVTZ
  Basis Set:
  @DF-RHF Final Energy:  -321.85363236993203
    Total Energy =                       -321.8536323699320292
  Basis Set: CC-PVTZ
  Basis Set:
  Basis Set: CC-PVTZ
  Basis Set:
  @DF-RHF Final Energy:  -321.84809603421849
    Total Energy =                       -321.8480960342185426
  Basis Set: CC-PVTZ
  Basis Set:
  Basis Set: CC-PVTZ
  Basis Set:
  @DF-RHF Final Energy:  -321.85616851754378
    Total Energy =                       -321.8561685175440061
  Basis Set: CC-PVTZ
  Basis Set:
  @DF-RHF Final Energy:  -321.85628757320029
    Total Energy =                       -321.8562875732001203
  @DF-RHF Final Energy:  -321.85631197569580
    Total Energy =                       -321.8563119756959168
  Basis Set: CC-PVTZ
  Basis Set:
  @DF-RHF Final Energy:  -321.85632268530367
    Total Energy =                       -321.8563226853037804
  Basis Set: CC-PVTZ
  Basis Set:
  Basis Set: CC-PVTZ
  Basis Set:
  @DF-RHF Final Energy:  -321.85633294466959
    Total Energy =                       -321.8563329446694752
  Basis Set: CC-PVTZ
  Basis Set:
  Basis Set: CC-PVTZ
  Basis Set:
  @DF-RHF Final Energy:  -321.85633598708421
    Total Energy =                       -321.8563359870843215
  Basis Set: CC-PVTZ
  Basis Set:
  Charge       = 0
  Multiplicity = 1
  Basis Set: CC-PVTZ
  Basis Set:

    Orbital Energies (a.u.)
    -----------------------

    Doubly Occupied:

       1A    -20.592444     2A    -20.589017     3A    -15.837184
       4A    -11.297543     5A    -11.255163     6A    -11.231064
       7A     -1.636330     8A     -1.420553     9A     -1.131150
      10A     -1.025412    11A     -0.885334    12A     -0.833259
      13A     -0.763536    14A     -0.737687    15A     -0.727055
      16A     -0.656101    17A     -0.619298    18A     -0.590863
      19A     -0.535573    20A     -0.520077    21A     -0.515742
      22A     -0.483941    23A     -0.474248    24A     -0.454514

  @DF-RHF Final Energy:  -321.85633669074844

   => Energetics <=

    Nuclear Repulsion Energy =            249.7916049582471487
    One-Electron Energy =                -933.6697047879586080
    Two-Electron Energy =                 362.0217631389631379
    DFT Exchange-Correlation Energy =       0.0000000000000000
    Empirical Dispersion Energy =           0.0000000000000000
    PCM Polarization Energy =               0.0000000000000000
    EFP Energy =                            0.0000000000000000
    Total Energy =                       -321.8563366907483214
    Molecular point group: c1
  Basis Set: CC-PVTZ
  Basis Set:

  -Total Gradient:
     Atom            X                  Y                   Z
    ------   -----------------  -----------------  -----------------
       1       -0.000007206618     0.000003966006     0.000002821158
       2       -0.000010812521    -0.000001430861     0.000000213070
       3        0.000385554231     0.002490272950     0.000784614653
       4       -0.000000089379    -0.000008474107     0.000008673231
       5        0.000006268447     0.000000625708    -0.000003917489
       6       -0.000179472877    -0.002115651247    -0.000507839758
       7       -0.000274747789    -0.001665144327    -0.000579213469
       8       -0.000002377373     0.000009691493     0.000001938310
       9        0.000006998545     0.001355111400     0.000290014406
      10       -0.000010623040     0.000003894705    -0.000007852856
      11       -0.000002717124     0.000008235629    -0.000003632287
      12        0.000027217468    -0.000089339417    -0.000020816374
      13        0.000062008036     0.000008242067     0.000034997404

  **** Optimization is complete! (in 10 steps) ****
    Final optimized geometry and variables:
    Molecular point group: c1

    Geometry (in Angstrom), charge = 0, multiplicity = 1:

    H            2.904854886170    -0.816477819182    -1.521887389627
    C            2.194617056997    -1.012752217062    -0.728371515014
    C            1.448611084932     0.262507408463    -0.350018588195
    H            1.505809207206    -1.774276889849    -1.072509654183
    H            2.744009466593    -1.410967773804     0.117749242870
    C            0.420993472848     0.045404547005     0.776215825833
    H            0.940987964823     0.648546982432    -1.224477018523
    H            2.149135754990     1.022946996433    -0.031772883519
    N           -0.959286408262     0.198853031794     0.244894161287
    H            0.468244264510    -0.952455587110     1.179850156963
    H            0.510667440675     0.774409045477     1.561510967135
    O           -1.395989590425    -0.706266011057    -0.386090712736
    O           -1.520514610311     1.219018469709     0.460871708916

  Mulliken Charges: (a.u.)
   Center  Symbol    Alpha    Beta     Spin     Total
       1     H     0.44582  0.44582  0.00000  0.10835
       2     C     3.14836  3.14836  0.00000 -0.29672
       3     C     3.08979  3.08979  0.00000 -0.17958
       4     H     0.44342  0.44342  0.00000  0.11315
       5     H     0.45466  0.45466  0.00000  0.09067
       6     C     3.04554  3.04554  0.00000 -0.09108
       7     H     0.44082  0.44082  0.00000  0.11836
       8     H     0.44279  0.44279  0.00000  0.11442
       9     N     3.27854  3.27854  0.00000  0.44293
      10     H     0.43645  0.43645  0.00000  0.12709
      11     H     0.42849  0.42849  0.00000  0.14303
      12     O     4.17592  4.17592  0.00000 -0.35184
      13     O     4.16939  4.16939  0.00000 -0.33878

   Total alpha = 24.00000, Total beta = 24.00000, Total charge = -0.00000
