  ==> Input File <==

--------------------------------------------------------------------------
set {
	reference rhf
	basis cc-pvtz
}

set_num_threads( 4 )
memory 2 gb

molecule MOL {
0 1

H	 2.141569	 -1.072449	 -0.897762
C	 1.362361	 -0.351737	 -1.080083
O	 0.462329	 -0.453336	 -0.000137
H	 0.874152	 -0.585377	 -2.017784
H	 1.798418	 0.637885	 -1.132425
C	 -0.590565	 0.341382	 0.000062
O	 -1.693898	 -0.053880	 0.000252
H	 -0.340426	 1.403822	 0.000200

	symmetry c1
}
set optking {
	frozen_dihedral = ("
		2 3 6 7
	")
}

ee = optimize('scf')
oeprop('DIPOLE', 'QUADRUPOLE', 'MULLIKEN_CHARGES')
f=open( 'psi4out.xyz', 'w' )
f.write( "8  " )
f.write( str(ee) + "\n" )
f.write( MOL.save_string_xyz() )
f.close()
--------------------------------------------------------------------------

    Molecular point group: c1
  Charge       = 0
  Multiplicity = 1
  Basis Set: CC-PVTZ
  Basis Set:
  @DF-RHF Final Energy:  -227.86183110119418
    Total Energy =                       -227.8618311011941273
    Molecular point group: c1
  Basis Set: CC-PVTZ
  Basis Set:
  Basis Set: CC-PVTZ
  Basis Set:
  @DF-RHF Final Energy:  -227.86206550886851
    Total Energy =                       -227.8620655088684828
  Basis Set: CC-PVTZ
  Basis Set:
  Basis Set: CC-PVTZ
  Basis Set:
  @DF-RHF Final Energy:  -227.86144905797295
    Total Energy =                       -227.8614490579729193
  Basis Set: CC-PVTZ
  Basis Set:
  Basis Set: CC-PVTZ
  Basis Set:
  @DF-RHF Final Energy:  -227.86226318149556
    Total Energy =                       -227.8622631814957913
  Basis Set: CC-PVTZ
  Basis Set:
  Basis Set: CC-PVTZ
  Basis Set:
  @DF-RHF Final Energy:  -227.86227386309241
    Total Energy =                       -227.8622738630924687
  Basis Set: CC-PVTZ
  Basis Set:
  Charge       = 0
  Multiplicity = 1
  Basis Set: CC-PVTZ
  Basis Set:

    Orbital Energies (a.u.)
    -----------------------

    Doubly Occupied:

       1A    -20.597016     2A    -20.559187     3A    -11.376128
       4A    -11.300206     5A     -1.475577     6A     -1.387810
       7A     -0.988293     8A     -0.843080     9A     -0.740515
      10A     -0.690556    11A     -0.676490    12A     -0.622908
      13A     -0.568418    14A     -0.522149    15A     -0.474910
      16A     -0.460525

  @DF-RHF Final Energy:  -227.86227530748181

   => Energetics <=

    Nuclear Repulsion Energy =            121.7597292039101404
    One-Electron Energy =                -552.6764766751254001
    Two-Electron Energy =                 203.0544721637334646
    DFT Exchange-Correlation Energy =       0.0000000000000000
    Empirical Dispersion Energy =           0.0000000000000000
    PCM Polarization Energy =               0.0000000000000000
    EFP Energy =                            0.0000000000000000
    Total Energy =                       -227.8622753074818093
    Molecular point group: c1
  Basis Set: CC-PVTZ
  Basis Set:

  -Total Gradient:
     Atom            X                  Y                   Z
    ------   -----------------  -----------------  -----------------
       1       -0.000033035807     0.000007272895     0.000048904355
       2       -0.002411186956    -0.002726480598    -0.002496114926
       3        0.003508967002     0.004323279745     0.000791398046
       4       -0.000004546763    -0.000000441415     0.000004760526
       5        0.000022309430     0.000000399975    -0.000001456093
       6       -0.001159142264    -0.001984424374     0.007340380268
       7        0.000085175296     0.000399873975    -0.005696213576
       8       -0.000008539936    -0.000019480202     0.000008341399

  **** Optimization is complete! (in 6 steps) ****
    Final optimized geometry and variables:
    Molecular point group: c1

    Geometry (in Angstrom), charge = 0, multiplicity = 1:

    H            2.304143715110    -0.863628743271    -0.566273108397
    C            1.459567122823    -0.231274917631    -0.783360254241
    O            0.545092378871    -0.389140792530     0.278167646624
    H            1.006631256939    -0.536410622146    -1.717532313543
    H            1.796180880662     0.797477078915    -0.862748897606
    C           -0.472585618601     0.470090605267     0.308166405925
    O           -1.597652341623     0.152717629849     0.252763784070
    H           -0.153885104621     1.511231966646     0.378338970425

  Mulliken Charges: (a.u.)
   Center  Symbol    Alpha    Beta     Spin     Total
       1     H     0.44245  0.44245  0.00000  0.11510
       2     C     3.02553  3.02553  0.00000 -0.05106
       3     O     4.14122  4.14122  0.00000 -0.28244
       4     H     0.45591  0.45591  0.00000  0.08818
       5     H     0.46676  0.46676  0.00000  0.06648
       6     C     2.83285  2.83285  0.00000  0.33430
       7     O     4.16294  4.16294  0.00000 -0.32587
       8     H     0.47235  0.47235  0.00000  0.05530

   Total alpha = 16.00000, Total beta = 16.00000, Total charge =  0.00000
