  ==> Input File <==

--------------------------------------------------------------------------
set {
	reference rhf
	basis 6-31G*
}

set_num_threads( 4 )
memory 2 gb

molecule MOL {
0 1

O	 -0.682937	 1.318834	 -0.186099
C	 -0.860635	 0.152188	 -0.042321
C	 -2.173363	 -0.477127	 0.338347
O	 0.083258	 -0.765189	 -0.202595
H	 -2.477673	 -1.180929	 -0.427595
H	 -2.923125	 0.290956	 0.455536
H	 -2.058825	 -1.029004	 1.264191
C	 1.391937	 -0.334737	 -0.569838
C	 1.916206	 0.725485	 0.380803
H	 1.374741	 0.024694	 -1.587509
H	 1.995009	 -1.230017	 -0.522130
H	 2.939966	 0.977280	 0.121488
H	 1.318924	 1.626628	 0.321098
H	 1.903149	 0.361752	 1.402538

	symmetry c1
}
set optking {
	frozen_dihedral = ("
		10 8 4 2
	")
}

ee = optimize('scf')
oeprop('DIPOLE', 'QUADRUPOLE', 'MULLIKEN_CHARGES')
f=open( 'psi4out.xyz', 'w' )
f.write( "14  " )
f.write( str(ee) + "\n" )
f.write( MOL.save_string_xyz() )
f.close()
--------------------------------------------------------------------------

    Molecular point group: c1
  Charge       = 0
  Multiplicity = 1
  Basis Set: 6-31G*
  Basis Set:
  @DF-RHF Final Energy:  -305.86816024451298
    Total Energy =                       -305.8681602445129784
    Molecular point group: c1
  Basis Set: 6-31G*
  Basis Set:
  Basis Set: 6-31G*
  Basis Set:
  @DF-RHF Final Energy:  -305.87211350357563
    Total Energy =                       -305.8721135035755196
  Basis Set: 6-31G*
  Basis Set:
  Basis Set: 6-31G*
  Basis Set:
  @DF-RHF Final Energy:  -305.87222443182503
    Total Energy =                       -305.8722244318248613
  Basis Set: 6-31G*
  Basis Set:
  Basis Set: 6-31G*
  Basis Set:
  @DF-RHF Final Energy:  -305.87231260177941
    Total Energy =                       -305.8723126017795266
  Basis Set: 6-31G*
  Basis Set:
  Basis Set: 6-31G*
  Basis Set:
  @DF-RHF Final Energy:  -305.87243964581057
    Total Energy =                       -305.8724396458104025
  Basis Set: 6-31G*
  Basis Set:
  Basis Set: 6-31G*
  Basis Set:
  @DF-RHF Final Energy:  -305.87245698345509
    Total Energy =                       -305.8724569834549811
  Basis Set: 6-31G*
  Basis Set:
  Charge       = 0
  Multiplicity = 1
  Basis Set: 6-31G*
  Basis Set:

    Orbital Energies (a.u.)
    -----------------------

    Doubly Occupied:

       1A    -20.601331     2A    -20.543947     3A    -11.375504
       4A    -11.288109     5A    -11.232693     6A    -11.216799
       7A     -1.466132     8A     -1.362687     9A     -1.054583
      10A     -0.998205    11A     -0.888214    12A     -0.756528
      13A     -0.697305    14A     -0.681395    15A     -0.660639
      16A     -0.611890    17A     -0.588096    18A     -0.570195
      19A     -0.553595    20A     -0.531501    21A     -0.513968
      22A     -0.494213    23A     -0.451686    24A     -0.434738

  @DF-RHF Final Energy:  -305.87245784203947

   => Energetics <=

    Nuclear Repulsion Energy =            249.5962176190457456
    One-Electron Energy =                -911.7894476157403005
    Two-Electron Energy =                 356.3207721546554581
    DFT Exchange-Correlation Energy =       0.0000000000000000
    Empirical Dispersion Energy =           0.0000000000000000
    PCM Polarization Energy =               0.0000000000000000
    EFP Energy =                            0.0000000000000000
    Total Energy =                       -305.8724578420390685
    Molecular point group: c1
  Basis Set: 6-31G*
  Basis Set:

  -Total Gradient:
     Atom            X                  Y                   Z
    ------   -----------------  -----------------  -----------------
       1        0.000021703438    -0.000014066713    -0.000012257564
       2        0.000996965760     0.000359411937     0.004843765403
       3        0.000017887685     0.000018613332     0.000089984646
       4       -0.001303685463    -0.001777158487    -0.007598504057
       5       -0.000009844617     0.000011969979    -0.000027245296
       6       -0.000002190658    -0.000000742223    -0.000011225798
       7       -0.000004056077    -0.000022591529    -0.000022292621
       8       -0.001111693587     0.006519820183     0.004619080100
       9        0.000029099914     0.000038200756    -0.000056868161
      10        0.001291747036    -0.005133346178    -0.001811107737
      11        0.000074485694     0.000034721224    -0.000022523538
      12        0.000003715992     0.000003030876     0.000008867966
      13        0.000004939480    -0.000026685708     0.000008204585
      14       -0.000009074595    -0.000011177448    -0.000007877927

  **** Optimization is complete! (in 7 steps) ****
    Final optimized geometry and variables:
    Molecular point group: c1

    Geometry (in Angstrom), charge = 0, multiplicity = 1:

    O           -0.744545602228     1.201132139897    -0.278874030268
    C           -0.844378538005     0.042521976930    -0.033020387184
    C           -2.104903927766    -0.625992430506     0.446630495436
    O            0.138533899167    -0.835548441363    -0.169990021431
    H           -2.390339865023    -1.408505581691    -0.246842938145
    H           -2.895296331316     0.105387284780     0.525718745702
    H           -1.929471681700    -1.089952079123     1.410382337863
    C            1.457518797619    -0.391572067067    -0.485727237321
    C            2.052857131152     0.592774328885     0.505264180683
    H            1.469403172149    -0.027334730242    -1.504795381868
    H            2.030681576269    -1.308251202617    -0.473375080838
    H            3.106873725084     0.720066697463     0.277242113789
    H            1.570165475135     1.556828265302     0.463428450465
    H            1.974985689358     0.201284623333     1.514632247693

  Mulliken Charges: (a.u.)
   Center  Symbol    Alpha    Beta     Spin     Total
       1     O     4.28420  4.28420  0.00000 -0.56840
       2     C     2.61801  2.61801  0.00000  0.76397
       3     C     3.28146  3.28146  0.00000 -0.56292
       4     O     4.31023  4.31023  0.00000 -0.62046
       5     H     0.40000  0.40000  0.00000  0.20000
       6     H     0.39733  0.39733  0.00000  0.20535
       7     H     0.40129  0.40129  0.00000  0.19742
       8     C     2.99852  2.99852  0.00000  0.00295
       9     C     3.26364  3.26364  0.00000 -0.52728
      10     H     0.41052  0.41052  0.00000  0.17896
      11     H     0.41010  0.41010  0.00000  0.17980
      12     H     0.41750  0.41750  0.00000  0.16500
      13     H     0.39130  0.39130  0.00000  0.21739
      14     H     0.41589  0.41589  0.00000  0.16822

   Total alpha = 24.00000, Total beta = 24.00000, Total charge =  0.00000
