                              Psi4 1.0.54 Driver

  ==> Input File <==

--------------------------------------------------------------------------
set {
	reference rhf
	basis cc-pvtz
}

set_num_threads( 4 )
memory 2 gb

molecule MOL {
0 1

O	 -2.817697	 1.304178	 0.001046
C	 -2.664672	 0.129869	 0.003507
C	 -3.797908	 -0.860100	 -0.001145
O	 -1.481217	 -0.452708	 0.001092
H	 -4.408836	 -0.679689	 -0.875387
H	 -3.443486	 -1.878443	 -0.002770
H	 -4.412123	 -0.683688	 0.871605
C	 -0.332055	 0.384012	 -0.000250
C	 0.892252	 -0.506059	 -0.000295
H	 -0.360822	 1.020205	 -0.874146
H	 -0.359817	 1.021310	 0.872861
C	 2.188199	 0.299473	 -0.001416
H	 0.857046	 -1.152781	 -0.871031
H	 0.857910	 -1.151798	 0.871202
C	 3.437151	 -0.577593	 -0.000991
H	 2.209565	 0.950707	 -0.871712
H	 2.210062	 0.952234	 0.867721
C	 3.844186	 -1.038519	 -1.396297
H	 3.265037	 -1.445249	 0.629570
H	 4.258840	 -0.030108	 0.451970
H	 3.055080	 -1.618826	 -1.862559
H	 4.732794	 -1.657894	 -1.360851
H	 4.056268	 -0.192696	 -2.041632

	symmetry c1
}
set optking {
	frozen_dihedral = ("
		19 15 12 16
	")
}

ee,wfn = optimize('scf', return_wfn=True)
oeprop( wfn, 'DIPOLE', 'QUADRUPOLE', 'MULLIKEN_CHARGES')
f=open( 'psi4out.xyz', 'w' )
f.write( "23  " )
f.write( str(ee) + "\n" )
f.write( MOL.save_string_xyz() )
f.close()
--------------------------------------------------------------------------

    Molecular point group: c1
  Charge       = 0
  Multiplicity = 1
  Basis Set: CC-PVTZ
  Basis Set:
  @DF-RHF Final Energy:  -423.13197495277308
    Total Energy =                       -423.1319749527727936
    Molecular point group: c1
  Basis Set: CC-PVTZ
  Basis Set:
  Basis Set: CC-PVTZ
  Basis Set:
  @DF-RHF Final Energy:  -423.13194617105171
    Total Energy =                       -423.1319461710513679
  Basis Set: CC-PVTZ
  Basis Set:
  Basis Set: CC-PVTZ
  Basis Set:
  @DF-RHF Final Energy:  -423.13126041895805
    Total Energy =                       -423.1312604189575950
  Basis Set: CC-PVTZ
  Basis Set:
  Basis Set: CC-PVTZ
  Basis Set:
  @DF-RHF Final Energy:  -423.13215828919351
    Total Energy =                       -423.1321582891935122
  Basis Set: CC-PVTZ
  Basis Set:
  Basis Set: CC-PVTZ
  Basis Set:
  @DF-RHF Final Energy:  -423.13217211135935
    Total Energy =                       -423.1321721113592957
  Basis Set: CC-PVTZ
  Basis Set:
  Basis Set: CC-PVTZ
  Basis Set:
  @DF-RHF Final Energy:  -423.13217893667814
    Total Energy =                       -423.1321789366780877
  Basis Set: CC-PVTZ
  Basis Set:
  Charge       = 0
  Multiplicity = 1
  Basis Set: CC-PVTZ
  Basis Set:

    Orbital Energies (a.u.)
    -----------------------

    Doubly Occupied:

       1A    -20.595943     2A    -20.529529     3A    -11.366404
       4A    -11.279348     5A    -11.230683     6A    -11.222191
       7A    -11.221465     8A    -11.219698     9A    -11.211105
      10A     -1.471154    11A     -1.364009    12A     -1.094932
      13A     -1.042153    14A     -1.003021    15A     -0.931445
      16A     -0.850514    17A     -0.797255    18A     -0.774307
      19A     -0.694103    20A     -0.688426    21A     -0.672897
      22A     -0.635580    23A     -0.619667    24A     -0.597964
      25A     -0.580155    26A     -0.572237    27A     -0.547486
      28A     -0.535877    29A     -0.527414    30A     -0.507706
      31A     -0.498966    32A     -0.474321    33A     -0.467326
      34A     -0.465880    35A     -0.455184    36A     -0.438842

  @DF-RHF Final Energy:  -423.13217899437927

   => Energetics <=

    Nuclear Repulsion Energy =            454.1402492428293272
    One-Electron Energy =               -1476.1744915153628881
    Two-Electron Energy =                 598.9020632781544009
    DFT Exchange-Correlation Energy =       0.0000000000000000
    Empirical Dispersion Energy =           0.0000000000000000
    PCM Polarization Energy =               0.0000000000000000
    EFP Energy =                            0.0000000000000000
    Total Energy =                       -423.1321789943791600
    Molecular point group: c1
  Basis Set: CC-PVTZ
  Basis Set:

  -Total Gradient:
     Atom            X                  Y                   Z
    ------   -----------------  -----------------  -----------------
       1       -0.000014572576    -0.000005864771     0.000006040858
       2        0.000012548011    -0.000008881310     0.000003768755
       3       -0.000001740368     0.000010395758    -0.000004540022
       4       -0.000014206449     0.000001753869     0.000025361502
       5        0.000005539117    -0.000003235148     0.000009617572
       6       -0.000001864653     0.000008651035    -0.000000355759
       7        0.000008217130    -0.000000709495    -0.000010403762
       8        0.000012037565     0.000007308680    -0.000065036697
       9        0.000005960259     0.000001880990     0.000011436450
      10        0.000009446972    -0.000004021745     0.000018266525
      11       -0.000013276435    -0.000005312911     0.000005957631
      12        0.001311431218     0.001914746158     0.001247192063
      13       -0.000002038911     0.000006821918     0.000004632527
      14        0.000004708216    -0.000002071420    -0.000004010687
      15        0.000837407954     0.001149854646     0.002246655088
      16       -0.001247299570    -0.001794089695    -0.001411827228
      17        0.000000420425    -0.000003911604    -0.000003496327
      18       -0.000003217285     0.000000826893    -0.000001310000
      19       -0.000903841845    -0.001280060466    -0.002081159653
      20       -0.000005288153    -0.000000037536    -0.000005194431
      21        0.000008036901     0.000005472902     0.000005100763
      22       -0.000012014052     0.000003254506     0.000001136310
      23        0.000003606529    -0.000002771251     0.000002168523

  **** Optimization is complete! (in 7 steps) ****
    Final optimized geometry and variables:
    Molecular point group: c1

    Geometry (in Angstrom), charge = 0, multiplicity = 1:

    O           -2.728602168658     1.423498555080     0.112990645440
    C           -2.566554682863     0.250417981280     0.123690330282
    C           -3.692132345010    -0.748371060444     0.110988493892
    O           -1.378794407554    -0.322652583242     0.148138755395
    H           -4.291559024254    -0.579818954599    -0.773561787492
    H           -3.329990699529    -1.763950858009     0.123020724575
    H           -4.320320582369    -0.569503914332     0.973289415501
    C           -0.236556620167     0.523076914887     0.161894598679
    C            0.994634642744    -0.357037897925     0.190636943526
    H           -0.253985499705     1.153143283781    -0.716781868161
    H           -0.284995257121     1.166493494063     1.029793918134
    C            2.283484062684     0.464096264515     0.222168508226
    H            0.979159674521    -1.006270842887    -0.677905210977
    H            0.947191751803    -0.999639664782     1.063746395725
    C            3.552646692999    -0.395725071142     0.196416902800
    H            2.289997523945     1.135184567152    -0.632869152397
    H            2.282321780550     1.086345486481     1.111395974244
    C            3.963215400561    -0.838033054194    -1.206863259110
    H            3.398511449857    -1.280386422512     0.807357815403
    H            4.372017239050     0.156253382821     0.643304941200
    H            3.180082392246    -1.408817061959    -1.693084862320
    H            4.848745176238    -1.462206484984    -1.173375987615
    H            4.185861590944     0.018225349993    -1.834567345497

  Mulliken Charges: (a.u.)
   Center  Symbol    Alpha    Beta     Spin     Total
       1     O     4.20242  4.20242  0.00000 -0.40483
       2     C     2.81520  2.81520  0.00000  0.36960
       3     C     3.13992  3.13992  0.00000 -0.27983
       4     O     4.14502  4.14502  0.00000 -0.29004
       5     H     0.44210  0.44210  0.00000  0.11580
       6     H     0.44190  0.44190  0.00000  0.11620
       7     H     0.44212  0.44212  0.00000  0.11577
       8     C     2.97912  2.97912  0.00000  0.04176
       9     C     3.08310  3.08310  0.00000 -0.16621
      10     H     0.45360  0.45360  0.00000  0.09279
      11     H     0.45337  0.45337  0.00000  0.09325
      12     C     3.10413  3.10413  0.00000 -0.20827
      13     H     0.45059  0.45059  0.00000  0.09882
      14     H     0.45068  0.45068  0.00000  0.09864
      15     C     3.09072  3.09072  0.00000 -0.18144
      16     H     0.45402  0.45402  0.00000  0.09195
      17     H     0.44577  0.44577  0.00000  0.10845
      18     C     3.14864  3.14864  0.00000 -0.29728
      19     H     0.45495  0.45495  0.00000  0.09011
      20     H     0.44622  0.44622  0.00000  0.10756
      21     H     0.45480  0.45480  0.00000  0.09041
      22     H     0.44710  0.44710  0.00000  0.10581
      23     H     0.45451  0.45451  0.00000  0.09098

   Total alpha = 36.00000, Total beta = 36.00000, Total charge = -0.00000

*** Psi4 exiting successfully. Buy a developer a beer!
