  ==> Input File <==

--------------------------------------------------------------------------
set {
	reference rhf
	basis 6-31G*
}

set_num_threads( 1 )
memory 2 gb

molecule MOL {
0 1

H	 0.966566	 -1.149911	 -0.846304
O	 1.654024	 -0.625927	 -0.460906
C	 1.135793	 0.118896	 0.612333
C	 0.031547	 1.023609	 0.088541
H	 1.915668	 0.729681	 1.063582
H	 0.754543	 -0.542641	 1.387006
C	 -1.134819	 0.293262	 -0.585751
H	 0.474374	 1.714721	 -0.623187
H	 -0.338529	 1.620940	 0.920081
C	 -1.917817	 -0.639439	 0.339494
H	 -0.758119	 -0.268455	 -1.433105
H	 -1.813832	 1.041889	 -0.986690
H	 -2.777680	 -1.057197	 -0.174994
H	 -1.310268	 -1.471279	 0.680599
H	 -2.283753	 -0.111424	 1.216626

	symmetry c1
}
set optking {
	frozen_dihedral = ("
		8 4 7 11,
		2 3 4 8
	")
}

ee = energy('scf')
oeprop('DIPOLE', 'QUADRUPOLE', 'MULLIKEN_CHARGES')
f=open( 'psi4out.xyz', 'w' )
f.write( "15  " )
f.write( str(ee) + "\n" )
f.write( MOL.save_string_xyz() )
f.close()
--------------------------------------------------------------------------

    Molecular point group: c1

    Geometry (in Angstrom), charge = 0, multiplicity = 1:

       Center              X                  Y                   Z               Mass
    ------------   -----------------  -----------------  -----------------  -----------------
           H          0.985183711529    -1.150647745602    -0.836803720107     1.007825032070
           O          1.672641711529    -0.626663745602    -0.451405720107    15.994914619560
           C          1.154410711529     0.118159254398     0.621833279893    12.000000000000
           C          0.050164711529     1.022872254398     0.098041279893    12.000000000000
           H          1.934285711529     0.728944254398     1.073082279893     1.007825032070
           H          0.773160711529    -0.543377745602     1.396506279893     1.007825032070
           C         -1.116201288471     0.292525254398    -0.576250720107    12.000000000000
           H          0.492991711529     1.713984254398    -0.613686720107     1.007825032070
           H         -0.319911288471     1.620203254398     0.929581279893     1.007825032070
           C         -1.899199288471    -0.640175745602     0.348994279893    12.000000000000
           H         -0.739501288471    -0.269191745602    -1.423604720107     1.007825032070
           H         -1.795214288471     1.041152254398    -0.977189720107     1.007825032070
           H         -2.759062288471    -1.057933745602    -0.165493720107     1.007825032070
           H         -1.291650288471    -1.472015745602     0.690099279893     1.007825032070
           H         -2.265135288471    -0.112160745602     1.226126279893     1.007825032070

  Charge       = 0
  Multiplicity = 1
  Basis Set: 6-31G*
  Basis Set:

    Orbital Energies (a.u.)
    -----------------------

    Doubly Occupied:

       1A    -20.550741     2A    -11.267832     3A    -11.225559
       4A    -11.218143     5A    -11.215871     6A     -1.359614
       7A     -1.073335     8A     -0.977517     9A     -0.881874
      10A     -0.786187    11A     -0.693642    12A     -0.649118
      13A     -0.622645    14A     -0.584876    15A     -0.573924
      16A     -0.550149    17A     -0.501349    18A     -0.491183
      19A     -0.479891    20A     -0.460338    21A     -0.426177

  @DF-RHF Final Energy:  -232.14038356518941

   => Energetics <=

    Nuclear Repulsion Energy =            193.1066314330456350
    One-Electron Energy =                -697.3141142101812875
    Two-Electron Energy =                 272.0670992119452194
    DFT Exchange-Correlation Energy =       0.0000000000000000
    Empirical Dispersion Energy =           0.0000000000000000
    PCM Polarization Energy =               0.0000000000000000
    EFP Energy =                            0.0000000000000000
    Total Energy =                       -232.1403835651904046

  Mulliken Charges: (a.u.)
   Center  Symbol    Alpha    Beta     Spin     Total
       1     H     0.27661  0.27661  0.00000  0.44678
       2     O     4.37333  4.37333  0.00000 -0.74666
       3     C     2.99845  2.99845  0.00000  0.00310
       4     C     3.16256  3.16256  0.00000 -0.32513
       5     H     0.41373  0.41373  0.00000  0.17255
       6     H     0.42890  0.42890  0.00000  0.14220
       7     C     3.16703  3.16703  0.00000 -0.33406
       8     H     0.41320  0.41320  0.00000  0.17360
       9     H     0.42565  0.42565  0.00000  0.14869
      10     C     3.24274  3.24274  0.00000 -0.48548
      11     H     0.42631  0.42631  0.00000  0.14737
      12     H     0.41417  0.41417  0.00000  0.17166
      13     H     0.41627  0.41627  0.00000  0.16746
      14     H     0.42243  0.42243  0.00000  0.15513
      15     H     0.41861  0.41861  0.00000  0.16278

   Total alpha = 21.00000, Total beta = 21.00000, Total charge = -0.00000
