                              Psi4 1.0.54 Driver

  ==> Input File <==

--------------------------------------------------------------------------
set {
	reference rhf
	basis cc-pvtz
}

set_num_threads( 4 )
memory 2 gb

molecule MOL {
0 1

O	 -2.440701	 -0.934798	 -0.415053
C	 -1.922978	 0.063265	 -0.045005
C	 -2.632749	 1.372204	 0.158357
O	 -0.637375	 0.157174	 0.243149
H	 -2.187724	 2.129143	 -0.474664
H	 -3.677681	 1.257276	 -0.079438
H	 -2.516788	 1.693160	 1.185542
C	 0.162530	 -1.009518	 0.097799
C	 1.587210	 -0.664190	 0.477086
H	 0.096803	 -1.356267	 -0.924704
H	 -0.233803	 -1.785900	 0.736810
C	 2.449791	 -1.871129	 0.836275
H	 1.540545	 0.014404	 1.324475
H	 2.044397	 -0.112766	 -0.338849
C	 3.867816	 -1.481341	 1.239865
H	 1.979307	 -2.415516	 1.650760
H	 2.486926	 -2.550459	 -0.007511
H	 4.456363	 -2.355292	 1.493259
H	 3.864630	 -0.823433	 2.102732
H	 4.375677	 -0.963785	 0.432877

	symmetry c1
}
set optking {
	frozen_dihedral = ("
		12 9 8 10
	")
}

ee,wfn = optimize('scf', return_wfn=True)
oeprop( wfn, 'DIPOLE', 'QUADRUPOLE', 'MULLIKEN_CHARGES')
f=open( 'psi4out.xyz', 'w' )
f.write( "20  " )
f.write( str(ee) + "\n" )
f.write( MOL.save_string_xyz() )
f.close()
--------------------------------------------------------------------------

    Molecular point group: c1
  Charge       = 0
  Multiplicity = 1
  Basis Set: CC-PVTZ
  Basis Set:
  @DF-RHF Final Energy:  -384.08609467855916
    Total Energy =                       -384.0860946785592205
    Molecular point group: c1
  Basis Set: CC-PVTZ
  Basis Set:
  Basis Set: CC-PVTZ
  Basis Set:
  @DF-RHF Final Energy:  -384.08460807662419
    Total Energy =                       -384.0846080766238515
  Basis Set: CC-PVTZ
  Basis Set:
  Basis Set: CC-PVTZ
  Basis Set:
  @DF-RHF Final Energy:  -384.08642595005392
    Total Energy =                       -384.0864259500539220
  Basis Set: CC-PVTZ
  Basis Set:
  Basis Set: CC-PVTZ
  Basis Set:
  @DF-RHF Final Energy:  -384.08644771819678
    Total Energy =                       -384.0864477181966095
  Basis Set: CC-PVTZ
  Basis Set:
  Basis Set: CC-PVTZ
  Basis Set:
  @DF-RHF Final Energy:  -384.08645478888405
    Total Energy =                       -384.0864547888842253
  Basis Set: CC-PVTZ
  Basis Set:
  Charge       = 0
  Multiplicity = 1
  Basis Set: CC-PVTZ
  Basis Set:

    Orbital Energies (a.u.)
    -----------------------

    Doubly Occupied:

       1A    -20.593476     2A    -20.531947     3A    -11.365834
       4A    -11.279863     5A    -11.230969     6A    -11.223982
       7A    -11.222291     8A    -11.213690     9A     -1.470113
      10A     -1.364236    11A     -1.088637    12A     -1.030313
      13A     -0.981221    14A     -0.882177    15A     -0.808558
      16A     -0.777219    17A     -0.694605    18A     -0.688559
      19A     -0.671014    20A     -0.638954    21A     -0.595946
      22A     -0.595104    23A     -0.571302    24A     -0.560616
      25A     -0.545728    26A     -0.520565    27A     -0.509466
      28A     -0.484876    29A     -0.482377    30A     -0.476084
      31A     -0.455657    32A     -0.440009

  @DF-RHF Final Energy:  -384.08645445931870

   => Energetics <=

    Nuclear Repulsion Energy =            379.5862888558133363
    One-Electron Energy =               -1275.3547002475543195
    Two-Electron Energy =                 511.6819569324220538
    DFT Exchange-Correlation Energy =       0.0000000000000000
    Empirical Dispersion Energy =           0.0000000000000000
    PCM Polarization Energy =               0.0000000000000000
    EFP Energy =                            0.0000000000000000
    Total Energy =                       -384.0864544593189294
    Molecular point group: c1
  Basis Set: CC-PVTZ
  Basis Set:

  -Total Gradient:
     Atom            X                  Y                   Z
    ------   -----------------  -----------------  -----------------
       1        0.000175036797     0.000114289314    -0.000308906131
       2       -0.000286067503    -0.000158193056     0.000902412883
       3        0.000056385302     0.000037364122    -0.000281806240
       4        0.000022860914     0.000016719530    -0.000239181409
       5       -0.000042979003     0.000042536632     0.000022955764
       6        0.000043386579     0.000009805915    -0.000008361398
       7        0.000021604228    -0.000063232055    -0.000042121345
       8        0.000391122567    -0.003960588309     0.002760060588
       9        0.000716512489     0.000125956537    -0.003843204136
      10       -0.000487238415     0.003309316788    -0.001487272181
      11        0.000005047782     0.000021180603     0.000009969174
      12       -0.000579333905     0.000487637297     0.002521911048
      13       -0.000013698672     0.000000122611     0.000010936379
      14       -0.000021289713    -0.000010680172    -0.000006601059
      15        0.000021015775     0.000010970628    -0.000022675467
      16       -0.000007205151     0.000011333663    -0.000004927034
      17        0.000000778627     0.000004536824     0.000006131480
      18       -0.000014793376     0.000004177210    -0.000010222199
      19        0.000001787424     0.000000947345     0.000010565378
      20       -0.000002932751    -0.000004201431     0.000010335907

  **** Optimization is complete! (in 6 steps) ****
    Final optimized geometry and variables:
    Molecular point group: c1

    Geometry (in Angstrom), charge = 0, multiplicity = 1:

    O           -2.523502105186    -0.359911046992    -0.592003378525
    C           -1.952818000722     0.650636414452    -0.358500450972
    C           -2.597660200281     2.006889068614    -0.309005708663
    O           -0.657077055132     0.718829149370    -0.113284930968
    H           -2.132285682111     2.656874304253    -1.038661660552
    H           -3.651813476634     1.913831435415    -0.513131366315
    H           -2.444051343981     2.446659833443     0.667913242969
    C            0.087186564720    -0.494484877183    -0.135493722015
    C            1.539607745272    -0.150746980922     0.135851332916
    H           -0.040712517307    -0.945682659048    -1.109341796252
    H           -0.313053943267    -1.165631304303     0.611251577319
    C            2.351267464899    -1.365832092096     0.577208126170
    H            1.571773183891     0.601107359907     0.917414097537
    H            1.978779449260     0.298849701675    -0.748489882967
    C            3.823850033130    -1.041998646388     0.803513663565
    H            1.923846397181    -1.764411026592     1.492327158494
    H            2.267782380097    -2.153777277758    -0.166879880794
    H            4.371421910246    -1.918890366934     1.128039775511
    H            3.943027641996    -0.276713573765     1.563092564712
    H            4.289122429136    -0.678914522723    -0.106490876753

  Mulliken Charges: (a.u.)
   Center  Symbol    Alpha    Beta     Spin     Total
       1     O     4.19739  4.19739  0.00000 -0.39477
       2     C     2.80958  2.80958  0.00000  0.38084
       3     C     3.13812  3.13812  0.00000 -0.27624
       4     O     4.15139  4.15139  0.00000 -0.30278
       5     H     0.44586  0.44586  0.00000  0.10828
       6     H     0.43820  0.43820  0.00000  0.12359
       7     H     0.44601  0.44601  0.00000  0.10798
       8     C     2.98045  2.98045  0.00000  0.03911
       9     C     3.08278  3.08278  0.00000 -0.16557
      10     H     0.45192  0.45192  0.00000  0.09616
      11     H     0.45471  0.45471  0.00000  0.09058
      12     C     3.09203  3.09203  0.00000 -0.18406
      13     H     0.45050  0.45050  0.00000  0.09899
      14     H     0.45127  0.45127  0.00000  0.09747
      15     C     3.14970  3.14970  0.00000 -0.29940
      16     H     0.45204  0.45204  0.00000  0.09591
      17     H     0.45299  0.45299  0.00000  0.09403
      18     H     0.44704  0.44704  0.00000  0.10592
      19     H     0.45403  0.45403  0.00000  0.09194
      20     H     0.45399  0.45399  0.00000  0.09202

   Total alpha = 32.00000, Total beta = 32.00000, Total charge =  0.00000

*** Psi4 exiting successfully. Buy a developer a beer!
