  ==> Input File <==

--------------------------------------------------------------------------
set {
	reference rhf
	basis 6-31G*
}

set_num_threads( 4 )
memory 2 gb

molecule MOL {
0 1

O	 -0.000843	 -0.268238	 -0.000482
C	 1.122059	 0.121804	 -0.000188
C	 1.548820	 1.569481	 -0.000482
O	 2.172624	 -0.688929	 0.000216
C	 0.377460	 2.546853	 -0.001586
H	 2.186421	 1.720146	 0.866420
H	 2.187599	 1.719521	 -0.866626
C	 0.837399	 4.005558	 -0.002211
H	 -0.247416	 2.358323	 0.865876
H	 -0.246545	 2.357357	 -0.869464
C	 -0.329930	 4.991632	 -0.004610
H	 1.462870	 4.189811	 0.868945
H	 1.465206	 4.188327	 -0.871996
H	 -0.957830	 4.857071	 0.871339
H	 0.023285	 6.018041	 -0.004713
H	 -0.955108	 4.855992	 -0.882332
C	 3.452279	 -0.082609	 0.000533
H	 3.583069	 0.529321	 -0.880332
H	 4.163299	 -0.894027	 0.001117
H	 3.582335	 0.529955	 0.881077

	symmetry c1
}
set optking {
	frozen_dihedral = ("
		1 2 4 17
	")
}

ee = optimize('scf')
oeprop('DIPOLE', 'QUADRUPOLE', 'MULLIKEN_CHARGES')
f=open( 'psi4out.xyz', 'w' )
f.write( "20  " )
f.write( str(ee) + "\n" )
f.write( MOL.save_string_xyz() )
f.close()
--------------------------------------------------------------------------

    Molecular point group: c1
  Charge       = 0
  Multiplicity = 1
  Basis Set: 6-31G*
  Basis Set:
  @DF-RHF Final Energy:  -383.91341632337992
    Total Energy =                       -383.9134163233803747
    Molecular point group: c1
  Basis Set: 6-31G*
  Basis Set:
  Basis Set: 6-31G*
  Basis Set:
  @DF-RHF Final Energy:  -383.91086195065503
    Total Energy =                       -383.9108619506546347
  Basis Set: 6-31G*
  Basis Set:
  Basis Set: 6-31G*
  Basis Set:
  @DF-RHF Final Energy:  -383.92207759109016
    Total Energy =                       -383.9220775910896464
  Basis Set: 6-31G*
  Basis Set:
  Basis Set: 6-31G*
  Basis Set:
  @DF-RHF Final Energy:  -383.92528947254596
    Total Energy =                       -383.9252894725462966
  Basis Set: 6-31G*
  Basis Set:
  @DF-RHF Final Energy:  -383.92551035247129
    Total Energy =                       -383.9255103524710648
  @DF-RHF Final Energy:  -383.92628156762856
    Total Energy =                       -383.9262815676287346
  @DF-RHF Final Energy:  -383.92640994068296
    Total Energy =                       -383.9264099406830155
  Basis Set: 6-31G*
  Basis Set:
  @DF-RHF Final Energy:  -383.92630985676692
    Total Energy =                       -383.9263098567668067
  Basis Set: 6-31G*
  Basis Set:
  Basis Set: 6-31G*
  Basis Set:
  @DF-RHF Final Energy:  -383.92642529621207
    Total Energy =                       -383.9264252962119599
  Basis Set: 6-31G*
  Basis Set:
  Basis Set: 6-31G*
  Basis Set:
  @DF-RHF Final Energy:  -383.92642680885729
    Total Energy =                       -383.9264268088570589
  Basis Set: 6-31G*
  Basis Set:
  Charge       = 0
  Multiplicity = 1
  Basis Set: 6-31G*
  Basis Set:

    Orbital Energies (a.u.)
    -----------------------

    Doubly Occupied:

       1A    -20.602498     2A    -20.538622     3A    -11.373905
       4A    -11.296662     5A    -11.246147     6A    -11.224475
       7A    -11.223588     8A    -11.213522     9A     -1.463193
      10A     -1.364508    11A     -1.091995    12A     -1.017196
      13A     -0.986027    14A     -0.902058    15A     -0.810867
      16A     -0.767494    17A     -0.700697    18A     -0.690222
      19A     -0.672541    20A     -0.650044    21A     -0.599646
      22A     -0.595714    23A     -0.589401    24A     -0.552270
      25A     -0.541531    26A     -0.524024    27A     -0.511530
      28A     -0.482580    29A     -0.474339    30A     -0.474293
      31A     -0.446017    32A     -0.430389

  @DF-RHF Final Energy:  -383.92642688527303

   => Energetics <=

    Nuclear Repulsion Energy =            383.2002479146857468
    One-Electron Energy =               -1282.1373627023644985
    Two-Electron Energy =                 515.0106879024056070
    DFT Exchange-Correlation Energy =       0.0000000000000000
    Empirical Dispersion Energy =           0.0000000000000000
    PCM Polarization Energy =               0.0000000000000000
    EFP Energy =                            0.0000000000000000
    Total Energy =                       -383.9264268852731448
    Molecular point group: c1
  Basis Set: 6-31G*
  Basis Set:

  -Total Gradient:
     Atom            X                  Y                   Z
    ------   -----------------  -----------------  -----------------
       1        0.000027226206    -0.000015825612     0.000008310862
       2       -0.000006927307     0.000007844427    -0.000029217229
       3       -0.000001631498    -0.000003160702     0.000023552753
       4        0.000012576649    -0.000007893282    -0.000003623082
       5        0.000001612842     0.000004708668    -0.000004637527
       6       -0.000003808921     0.000011643236    -0.000005081813
       7        0.000003830424    -0.000005748254    -0.000001437252
       8       -0.000001896160     0.000001322934    -0.000001339728
       9       -0.000000206388     0.000000387808    -0.000001771312
      10        0.000003812806    -0.000000666850     0.000002127954
      11        0.000001239396     0.000002309254     0.000002724834
      12        0.000000851690     0.000000014893    -0.000001697567
      13       -0.000001474885     0.000001105363    -0.000000841288
      14       -0.000000621121    -0.000000247365    -0.000000431111
      15       -0.000001000992     0.000000532539     0.000001125111
      16        0.000001375351    -0.000000043584     0.000000206388
      17       -0.000008288825     0.000012913576     0.000027439983
      18       -0.000014426351    -0.000008037154     0.000014415140
      19       -0.000021871322     0.000020035306    -0.000001254304
      20        0.000009628406    -0.000021195194    -0.000028570813

  **** Optimization is complete! (in 11 steps) ****
    Final optimized geometry and variables:
    Molecular point group: c1

    Geometry (in Angstrom), charge = 0, multiplicity = 1:

    O           -1.094231240822    -1.697249066491     0.000248269283
    C            0.026952673836    -1.316451898782     0.000748192255
    C            0.405390449049     0.152136858051     0.000346572060
    O            1.013202257458    -2.217155695002     0.001860156661
    C           -0.812468432248     1.072720412488    -0.001382870635
    H            1.027777235196     0.351499534344     0.868977277441
    H            1.029500391945     0.350504119290    -0.867278560079
    C           -0.420847508703     2.551184460092    -0.001730525608
    H           -1.426656781597     0.852452506455     0.865246267406
    H           -1.424876061201     0.851562365837    -0.869043984102
    C           -1.634027252772     3.480355517368    -0.002789783607
    H            0.195512582941     2.765536134121     0.869262172004
    H            0.196533499614     2.764868968379    -0.872164562349
    H           -2.253775911098     3.315494617530     0.873639649477
    H           -1.330041119086     4.522345816019    -0.002880354934
    H           -2.252616548817     3.315002664110    -0.879944788533
    C            2.377223156189    -1.870299249771     0.002520087686
    H            2.648630444135    -1.307868265964    -0.881900693779
    H            2.915869192831    -2.805023877663     0.002361898928
    H            2.648071667015    -1.308509313398     0.887510156416

  Mulliken Charges: (a.u.)
   Center  Symbol    Alpha    Beta     Spin     Total
       1     O     4.26792  4.26792  0.00000 -0.53584
       2     C     2.59686  2.59686  0.00000  0.80628
       3     C     3.23522  3.23522  0.00000 -0.47044
       4     O     4.30336  4.30336  0.00000 -0.60671
       5     C     3.14718  3.14718  0.00000 -0.29436
       6     H     0.40429  0.40429  0.00000  0.19142
       7     H     0.40431  0.40431  0.00000  0.19139
       8     C     3.15489  3.15489  0.00000 -0.30977
       9     H     0.40889  0.40889  0.00000  0.18223
      10     H     0.40890  0.40890  0.00000  0.18220
      11     C     3.23954  3.23954  0.00000 -0.47907
      12     H     0.42382  0.42382  0.00000  0.15236
      13     H     0.42381  0.42381  0.00000  0.15237
      14     H     0.41907  0.41907  0.00000  0.16187
      15     H     0.41847  0.41847  0.00000  0.16306
      16     H     0.41907  0.41907  0.00000  0.16187
      17     C     3.09325  3.09325  0.00000 -0.18651
      18     H     0.41678  0.41678  0.00000  0.16644
      19     H     0.39762  0.39762  0.00000  0.20475
      20     H     0.41677  0.41677  0.00000  0.16647

   Total alpha = 32.00000, Total beta = 32.00000, Total charge =  0.00000
