  ==> Input File <==

--------------------------------------------------------------------------
set {
	reference rhf
	basis 6-31G*
}

set_num_threads( 4 )
memory 2 gb

molecule MOL {
0 1

H	 1.324535	 -1.580569	 0.156804
O	 1.586534	 -0.678666	 -0.000226
C	 0.489431	 0.077273	 0.000046
C	 -0.764129	 -0.759190	 0.000191
O	 0.537743	 1.263962	 0.000257
C	 -2.038368	 0.075731	 -0.000248
H	 -0.717284	 -1.412404	 -0.866059
H	 -0.717458	 -1.411724	 0.866967
H	 -2.086483	 0.712501	 -0.875098
H	 -2.908485	 -0.571682	 -0.000042
H	 -2.086576	 0.713280	 0.874068

	symmetry c1
}
set optking {
	frozen_dihedral = ("
		1 2 3 5
	")
}

ee = optimize('scf')
oeprop('DIPOLE', 'QUADRUPOLE', 'MULLIKEN_CHARGES')
f=open( 'psi4out.xyz', 'w' )
f.write( "11  " )
f.write( str(ee) + "\n" )
f.write( MOL.save_string_xyz() )
f.close()
--------------------------------------------------------------------------

    Molecular point group: c1
  Charge       = 0
  Multiplicity = 1
  Basis Set: 6-31G*
  Basis Set:
  @DF-RHF Final Energy:  -266.83310236971795
    Total Energy =                       -266.8331023697178921
    Molecular point group: c1
  Basis Set: 6-31G*
  Basis Set:
  Basis Set: 6-31G*
  Basis Set:
  @DF-RHF Final Energy:  -266.83451372506397
    Total Energy =                       -266.8345137250638004
  Basis Set: 6-31G*
  Basis Set:
  Basis Set: 6-31G*
  Basis Set:
  @DF-RHF Final Energy:  -266.83471599352708
    Total Energy =                       -266.8347159935267996
  Basis Set: 6-31G*
  Basis Set:
  Basis Set: 6-31G*
  Basis Set:
  @DF-RHF Final Energy:  -266.83471840602851
    Total Energy =                       -266.8347184060281165
  Basis Set: 6-31G*
  Basis Set:
  Basis Set: 6-31G*
  Basis Set:
  @DF-RHF Final Energy:  -266.83471150732794
    Total Energy =                       -266.8347115073278246
  Basis Set: 6-31G*
  Basis Set:
  Charge       = 0
  Multiplicity = 1
  Basis Set: 6-31G*
  Basis Set:

    Orbital Energies (a.u.)
    -----------------------

    Doubly Occupied:

       1A    -20.613618     2A    -20.548714     3A    -11.381489
       4A    -11.256498     5A    -11.226656     6A     -1.469337
       7A     -1.371225     8A     -1.069689     9A     -0.908862
      10A     -0.829809    11A     -0.718951    12A     -0.667055
      13A     -0.657714    14A     -0.609496    15A     -0.596237
      16A     -0.534371    17A     -0.528129    18A     -0.514163
      19A     -0.476517    20A     -0.442068

  @DF-RHF Final Energy:  -266.83471990175894

   => Energetics <=

    Nuclear Repulsion Energy =            179.6608369162788392
    One-Electron Energy =                -720.1499185419509104
    Two-Electron Energy =                 273.6543617239130413
    DFT Exchange-Correlation Energy =       0.0000000000000000
    Empirical Dispersion Energy =           0.0000000000000000
    PCM Polarization Energy =               0.0000000000000000
    EFP Energy =                            0.0000000000000000
    Total Energy =                       -266.8347199017590015
    Molecular point group: c1
  Basis Set: 6-31G*
  Basis Set:

  -Total Gradient:
     Atom            X                  Y                   Z
    ------   -----------------  -----------------  -----------------
       1        0.000222429995     0.000357258917     0.002424598042
       2       -0.000279652790    -0.000448021233    -0.002142061100
       3        0.000079689671     0.000083170743    -0.002360224848
       4        0.000009715497     0.000016308603    -0.000023392418
       5        0.000001553785     0.000010412456     0.002101026679
       6       -0.000007130444    -0.000012293605     0.000000779974
       7       -0.000010279482    -0.000005293740     0.000006602584
       8       -0.000001863437     0.000004482877    -0.000006552674
       9        0.000003157985    -0.000005086631     0.000006734478
      10       -0.000021315780     0.000003671242    -0.000000665821
      11        0.000003694995    -0.000004609630    -0.000006844896

  **** Optimization is complete! (in 6 steps) ****
    Final optimized geometry and variables:
    Molecular point group: c1

    Geometry (in Angstrom), charge = 0, multiplicity = 1:

    H            1.477068092925    -1.553670643081     0.147842357078
    O            1.635674748601    -0.631429498475    -0.002973197686
    C            0.501621188182     0.079479499462    -0.001249033147
    C           -0.771350458042    -0.743630026383    -0.001975629026
    O            0.537446387437     1.260115899828     0.001076302805
    C           -2.033318365008     0.109705842925    -0.005081956451
    H           -0.743843603126    -1.397719503538    -0.870719795078
    H           -0.751457015433    -1.394932378152     0.870128143473
    H           -2.065842025698     0.745757746983    -0.880499537212
    H           -2.913476320506    -0.523842311714    -0.006058210667
    H           -2.069464913475     0.748375540470     0.868317625598

  Mulliken Charges: (a.u.)
   Center  Symbol    Alpha    Beta     Spin     Total
       1     H     0.26872  0.26872  0.00000  0.46256
       2     O     4.35109  4.35109  0.00000 -0.70219
       3     C     2.60961  2.60961  0.00000  0.78078
       4     C     3.23438  3.23438  0.00000 -0.46875
       5     O     4.26256  4.26256  0.00000 -0.52511
       6     C     3.23648  3.23648  0.00000 -0.47296
       7     H     0.40212  0.40212  0.00000  0.19577
       8     H     0.40638  0.40638  0.00000  0.18723
       9     H     0.40564  0.40564  0.00000  0.18872
      10     H     0.41696  0.41696  0.00000  0.16608
      11     H     0.40606  0.40606  0.00000  0.18787

   Total alpha = 20.00000, Total beta = 20.00000, Total charge = -0.00000
