                              Psi4 1.0.54 Driver

  ==> Input File <==

--------------------------------------------------------------------------
set {
	reference rhf
	basis cc-pvtz
}

set_num_threads( 4 )
memory 2 gb

molecule MOL {
0 1

H	 2.462485	 -2.216993	 0.000000
O	 2.777472	 -1.330706	 0.000000
C	 1.763288	 -0.447523	 0.000000
C	 1.004042	 -0.344637	 1.156754
C	 1.465881	 0.338768	 -1.092545
H	 1.252447	 -0.965373	 1.994691
C	 -0.046473	 0.542152	 1.214836
H	 2.034557	 0.280185	 -1.997240
C	 0.404870	 1.217553	 -0.998942
H	 -0.627693	 0.614825	 2.112973
C	 -0.364662	 1.342617	 0.130421
N	 0.094077	 2.051276	 -2.165610
H	 -1.177049	 2.035304	 0.161012
O	 0.774764	 1.923286	 -3.128603
O	 -0.817535	 2.802077	 -2.076395

	symmetry c1
}
set optking {
	frozen_dihedral = ("
		4 3 2 1
	")
}

ee,wfn = optimize('scf', return_wfn=True)
oeprop( wfn, 'DIPOLE', 'QUADRUPOLE', 'MULLIKEN_CHARGES')
f=open( 'psi4out.xyz', 'w' )
f.write( "15  " )
f.write( str(ee) + "\n" )
f.write( MOL.save_string_xyz() )
f.close()
--------------------------------------------------------------------------

    Molecular point group: c1
  Charge       = 0
  Multiplicity = 1
  Basis Set: CC-PVTZ
  Basis Set:
  @DF-RHF Final Energy:  -509.21358951846969
    Total Energy =                       -509.2135895184700303
    Molecular point group: c1
  Basis Set: CC-PVTZ
  Basis Set:
  Basis Set: CC-PVTZ
  Basis Set:
  @DF-RHF Final Energy:  -509.21481963129656
    Total Energy =                       -509.2148196312969048
  Basis Set: CC-PVTZ
  Basis Set:
  Basis Set: CC-PVTZ
  Basis Set:
  @DF-RHF Final Energy:  -509.21464520748225
    Total Energy =                       -509.2146452074823628
  Basis Set: CC-PVTZ
  Basis Set:
  Basis Set: CC-PVTZ
  Basis Set:
  @DF-RHF Final Energy:  -509.21423222704152
    Total Energy =                       -509.2142322270412933
  Basis Set: CC-PVTZ
  Basis Set:
  @DF-RHF Final Energy:  -509.21394026916249
    Total Energy =                       -509.2139402691625492
  @DF-RHF Final Energy:  -507.87247240349728
    Total Energy =                       -507.8724724034973406
  @DF-RHF Final Energy:  -508.10115243126643
    Total Energy =                       -508.1011524312660868
  @DF-RHF Final Energy:  -508.63019897549771
    Total Energy =                       -508.6301989754974784
  @DF-RHF Final Energy:  -509.01017508984143
    Total Energy =                       -509.0101750898417095
  @DF-RHF Final Energy:  -509.17227993112436
    Total Energy =                       -509.1722799311239669
  @DF-RHF Final Energy:  -509.21227051262645
    Total Energy =                       -509.2122705126264464
  @DF-RHF Final Energy:  -509.16299038686117
    Total Energy =                       -509.1629903868611109
  @DF-RHF Final Energy:  -509.18411145843953
    Total Energy =                       -509.1841114584391335
  @DF-RHF Final Energy:  -509.20924947263148
    Total Energy =                       -509.2092494726314271
  @DF-RHF Final Energy:  -509.21338898777680
    Total Energy =                       -509.2133889877771935
  Basis Set: CC-PVTZ
  Basis Set:
  @DF-RHF Final Energy:  -509.21479751618261
    Total Energy =                       -509.2147975161824434
  Basis Set: CC-PVTZ
  Basis Set:
  Basis Set: CC-PVTZ
  Basis Set:
  @DF-RHF Final Energy:  -509.21500587157078
    Total Energy =                       -509.2150058715706109
  Basis Set: CC-PVTZ
  Basis Set:
  Basis Set: CC-PVTZ
  Basis Set:
  @DF-RHF Final Energy:  -509.21501210322862
    Total Energy =                       -509.2150121032284460
  Basis Set: CC-PVTZ
  Basis Set:
  Charge       = 0
  Multiplicity = 1
  Basis Set: CC-PVTZ
  Basis Set:

    Orbital Energies (a.u.)
    -----------------------

    Doubly Occupied:

       1A    -20.596072     2A    -20.593200     3A    -20.592953
       4A    -15.849129     5A    -11.319955     6A    -11.306927
       7A    -11.264213     8A    -11.263037     9A    -11.262442
      10A    -11.261775    11A     -1.642875    12A     -1.425557
      13A     -1.425049    14A     -1.202760    15A     -1.094986
      16A     -1.048780    17A     -0.964679    18A     -0.868165
      19A     -0.840464    20A     -0.798349    21A     -0.742346
      22A     -0.738840    23A     -0.722868    24A     -0.712619
      25A     -0.685311    26A     -0.644917    27A     -0.628101
      28A     -0.570926    29A     -0.560936    30A     -0.533103
      31A     -0.516585    32A     -0.493373    33A     -0.488665
      34A     -0.458658    35A     -0.380320    36A     -0.359041

  @DF-RHF Final Energy:  -509.21501330359166

   => Energetics <=

    Nuclear Repulsion Energy =            504.0772227595759318
    One-Electron Energy =               -1694.8685219332701308
    Two-Electron Energy =                 681.5762858701023106
    DFT Exchange-Correlation Energy =       0.0000000000000000
    Empirical Dispersion Energy =           0.0000000000000000
    PCM Polarization Energy =               0.0000000000000000
    EFP Energy =                            0.0000000000000000
    Total Energy =                       -509.2150133035918316
    Molecular point group: c1
  Basis Set: CC-PVTZ
  Basis Set:

  -Total Gradient:
     Atom            X                  Y                   Z
    ------   -----------------  -----------------  -----------------
       1        0.000992278158    -0.000222061205    -0.000847647846
       2       -0.001168178568     0.000631955959     0.001334879598
       3        0.000191900483    -0.001166496844    -0.000990860194
       4       -0.000024030728     0.000813304673     0.000439198277
       5        0.000028970285    -0.000090263164     0.000028922582
       6       -0.000014924106    -0.000005912006     0.000026910053
       7        0.000001075668    -0.000037905696     0.000101997391
       8        0.000029124092     0.000011339117    -0.000004378763
       9       -0.000085115022     0.000054378347    -0.000001137596
      10       -0.000039082618     0.000002864484    -0.000002838347
      11        0.000087260199    -0.000004720998    -0.000050260413
      12        0.000050072000     0.000085270268    -0.000161884348
      13       -0.000019920826     0.000013390781    -0.000012235366
      14       -0.000166044728     0.000024287446    -0.000002030049
      15        0.000136615719    -0.000109431162     0.000141365017

  **** Optimization is complete! (in 16 steps) ****
    Final optimized geometry and variables:
    Molecular point group: c1

    Geometry (in Angstrom), charge = 0, multiplicity = 1:

    H            0.597729974384    -2.666343529281     2.351928342179
    O            0.747424566929    -1.738995006316     2.415804113152
    C            0.034436496166    -1.061928662510     1.475262571903
    C           -1.343506293896    -0.969771571433     1.557395786389
    C            0.714159766294    -0.409236486056     0.468636766103
    H           -1.854637925656    -1.464462288227     2.360813444128
    C           -2.047489357260    -0.239778731808     0.620229118823
    H            1.779404211900    -0.465199880808     0.408194572979
    C           -0.014396841865     0.319655516329    -0.446726622575
    H           -3.115571070922    -0.175080339343     0.688167334884
    C           -1.386697194428     0.418197794698    -0.398106178753
    N            0.706623362463     1.014037052886    -1.518548330728
    H           -1.913051495744     0.993223549156    -1.128660730530
    O            1.886764347859     0.909654229921    -1.543597370009
    O            0.064694435167     1.637230939313    -2.295973031945

  Mulliken Charges: (a.u.)
   Center  Symbol    Alpha    Beta     Spin     Total
       1     H     0.38489  0.38489  0.00000  0.23022
       2     O     4.18374  4.18374  0.00000 -0.36748
       3     C     2.86772  2.86772  0.00000  0.26457
       4     C     3.10367  3.10367  0.00000 -0.20734
       5     C     3.10737  3.10737  0.00000 -0.21475
       6     H     0.41415  0.41415  0.00000  0.17170
       7     C     3.06628  3.06628  0.00000 -0.13255
       8     H     0.39126  0.39126  0.00000  0.21748
       9     C     2.97740  2.97740  0.00000  0.04520
      10     H     0.41540  0.41540  0.00000  0.16920
      11     C     3.08698  3.08698  0.00000 -0.17395
      12     N     3.25050  3.25050  0.00000  0.49900
      13     H     0.39875  0.39875  0.00000  0.20249
      14     O     4.17528  4.17528  0.00000 -0.35055
      15     O     4.17662  4.17662  0.00000 -0.35323

   Total alpha = 36.00000, Total beta = 36.00000, Total charge = -0.00000

*** Psi4 exiting successfully. Buy a developer a beer!
