  ==> Input File <==

--------------------------------------------------------------------------
set {
	reference rhf
	basis 6-31G*
}

set_num_threads( 4 )
memory 2 gb

molecule MOL {
0 1

H	 -2.646374	 -0.642757	 1.268656
C	 -2.083525	 -0.384536	 0.393091
O	 -0.807605	 -0.127164	 0.768327
F	 -2.118945	 -1.383102	 -0.486752
F	 -2.621877	 0.670592	 -0.209486
C	 0.084052	 0.273579	 -0.209957
C	 1.353033	 -0.546803	 -0.018071
Cl	 0.433844	 2.004619	 -0.074457
H	 -0.288836	 0.092657	 -1.202930
F	 1.207803	 -1.390964	 0.981148
F	 2.345368	 0.269227	 0.276555
F	 1.674880	 -1.219650	 -1.095876

	symmetry c1
}
set optking {
	frozen_dihedral = ("
		10 7 6 9
	")
}

ee = optimize('scf')
oeprop('DIPOLE', 'QUADRUPOLE', 'MULLIKEN_CHARGES')
f=open( 'psi4out.xyz', 'w' )
f.write( "12  " )
f.write( str(ee) + "\n" )
f.write( MOL.save_string_xyz() )
f.close()
--------------------------------------------------------------------------

    Molecular point group: c1
  Charge       = 0
  Multiplicity = 1
  Basis Set: 6-31G*
  Basis Set:
  @DF-RHF Final Energy: -1146.30056323734902
    Total Energy =                      -1146.3005632373492517
    Molecular point group: c1
  Basis Set: 6-31G*
  Basis Set:
  Basis Set: 6-31G*
  Basis Set:
  @DF-RHF Final Energy: -1146.30132624963971
    Total Energy =                      -1146.3013262496392599
  Basis Set: 6-31G*
  Basis Set:
  Basis Set: 6-31G*
  Basis Set:
  @DF-RHF Final Energy: -1146.30463676233308
    Total Energy =                      -1146.3046367623323931
  Basis Set: 6-31G*
  Basis Set:
  Basis Set: 6-31G*
  Basis Set:
  @DF-RHF Final Energy: -1146.30489664957213
    Total Energy =                      -1146.3048966495732657
  Basis Set: 6-31G*
  Basis Set:
  @DF-RHF Final Energy: -1146.30491732449855
    Total Energy =                      -1146.3049173244990016
  @DF-RHF Final Energy: -1146.30492190790437
    Total Energy =                      -1146.3049219079034629
  @DF-RHF Final Energy: -1146.30492386255219
    Total Energy =                      -1146.3049238625517319
  Basis Set: 6-31G*
  Basis Set:
  @DF-RHF Final Energy: -1146.30492738152589
    Total Energy =                      -1146.3049273815261131
  Basis Set: 6-31G*
  Basis Set:
  Basis Set: 6-31G*
  Basis Set:
  @DF-RHF Final Energy: -1146.30492927099203
    Total Energy =                      -1146.3049292709913516
  Basis Set: 6-31G*
  Basis Set:
  Basis Set: 6-31G*
  Basis Set:
  @DF-RHF Final Energy: -1146.30493044647892
    Total Energy =                      -1146.3049304464791476
  Basis Set: 6-31G*
  Basis Set:
  Charge       = 0
  Multiplicity = 1
  Basis Set: 6-31G*
  Basis Set:

    Orbital Energies (a.u.)
    -----------------------

    Doubly Occupied:

       1A   -104.843298     2A    -26.357997     3A    -26.357432
       4A    -26.357357     5A    -26.346176     6A    -26.346140
       7A    -20.647451     8A    -11.529738     9A    -11.489176
      10A    -11.401873    11A    -10.577880    12A     -8.047227
      13A     -8.043694    14A     -8.043600    15A     -1.761425
      16A     -1.717462    17A     -1.656493    18A     -1.654940
      19A     -1.638238    20A     -1.484980    21A     -1.176662
      22A     -1.047009    23A     -0.986631    24A     -0.918998
      25A     -0.857150    26A     -0.851673    27A     -0.844688
      28A     -0.825442    29A     -0.812513    30A     -0.791181
      31A     -0.725994    32A     -0.724809    33A     -0.703835
      34A     -0.701984    35A     -0.677491    36A     -0.673397
      37A     -0.657857    38A     -0.655985    39A     -0.646576
      40A     -0.629576    41A     -0.596617    42A     -0.578079
      43A     -0.522393    44A     -0.475133    45A     -0.467881

  @DF-RHF Final Energy: -1146.30493055618626

   => Energetics <=

    Nuclear Repulsion Energy =            735.2994593656657116
    One-Electron Energy =               -3053.5045172186341915
    Two-Electron Energy =                1171.9001272967832392
    DFT Exchange-Correlation Energy =       0.0000000000000000
    Empirical Dispersion Energy =           0.0000000000000000
    PCM Polarization Energy =               0.0000000000000000
    EFP Energy =                            0.0000000000000000
    Total Energy =                      -1146.3049305561851270
    Molecular point group: c1
  Basis Set: 6-31G*
  Basis Set:

  -Total Gradient:
     Atom            X                  Y                   Z
    ------   -----------------  -----------------  -----------------
       1        0.000001129328    -0.000008007411    -0.000000768431
       2        0.000005495087     0.000005749245     0.000002502199
       3       -0.000013941326    -0.000014649053    -0.000000574675
       4        0.000006375216     0.000002662077     0.000011648264
       5       -0.000008253134     0.000013760657    -0.000009655205
       6       -0.000084419318    -0.000114482496     0.000097344476
       7       -0.000062309969    -0.000129809474    -0.000136127041
       8       -0.000007815838    -0.000008812627     0.000000856071
       9        0.000096260384     0.000134688033    -0.000056216231
      10        0.000055976921     0.000109243153     0.000097229484
      11        0.000010430385     0.000010471829     0.000001577691
      12        0.000001072267    -0.000000814013    -0.000007816606

  **** Optimization is complete! (in 11 steps) ****
    Final optimized geometry and variables:
    Molecular point group: c1

    Geometry (in Angstrom), charge = 0, multiplicity = 1:

    H           -2.682297198289    -0.627878091808     1.232165826523
    C           -2.087260376070    -0.394616212312     0.371108506729
    O           -0.846439669167    -0.054169600122     0.790378566185
    F           -2.030193768406    -1.445411140729    -0.446159759880
    F           -2.643997903086     0.593813595714    -0.322014992784
    C            0.074166011594     0.319510977003    -0.171662801052
    C            1.354758314141    -0.543840866428    -0.007813636142
    CL           0.408540426568     2.054079575303    -0.040644284911
    H           -0.299325189943     0.150398502733    -1.164903172183
    F            1.231119294080    -1.408068768512     0.970292853103
    F            2.437268981368     0.162559398760     0.210862201481
    F            1.540454988124    -1.221792999636    -1.128205014902

  Mulliken Charges: (a.u.)
   Center  Symbol    Alpha    Beta     Spin     Total
       1     H     0.40093  0.40093  0.00000  0.19813
       2     C     2.56682  2.56682  0.00000  0.86636
       3     O     4.29223  4.29223  0.00000 -0.58446
       4     F     4.68753  4.68753  0.00000 -0.37506
       5     F     4.68491  4.68491  0.00000 -0.36981
       6     C     3.07366  3.07366  0.00000 -0.14732
       7     C     2.42357  2.42357  0.00000  1.15286
       8    CL     8.49442  8.49442  0.00000  0.01117
       9     H     0.36155  0.36155  0.00000  0.27690
      10     F     4.66763  4.66763  0.00000 -0.33525
      11     F     4.66684  4.66684  0.00000 -0.33368
      12     F     4.67992  4.67992  0.00000 -0.35983

   Total alpha = 45.00000, Total beta = 45.00000, Total charge = -0.00000
