  ==> Input File <==

--------------------------------------------------------------------------
set {
	reference rhf
	basis 6-31G*
}

set_num_threads( 1 )
memory 2 gb

molecule MOL {
0 1

H	 1.397417	 3.140629	 -4.559210
C	 1.372010	 2.575796	 -3.644277
C	 0.609307	 3.023841	 -2.576247
C	 2.101814	 1.402439	 -3.536800
H	 0.043780	 3.933993	 -2.660921
C	 0.577140	 2.297037	 -1.400151
H	 2.692471	 1.056687	 -4.365766
C	 2.071124	 0.673258	 -2.360480
H	 -0.007462	 2.628567	 -0.563491
C	 1.307693	 1.119628	 -1.288244
H	 2.634324	 -0.235289	 -2.272908
C	 1.239129	 0.373821	 0.000060
O	 1.970282	 -0.730723	 0.000018
O	 0.596448	 0.725491	 0.939287
C	 3.377318	 -0.566646	 -0.000065
H	 3.695437	 -0.028981	 -0.881264
H	 3.789299	 -1.563704	 0.000236
H	 3.695516	 -0.028316	 0.880770

	symmetry c1
}
set optking {
	frozen_dihedral = ("
		12 13 15 16,
		13 12 10 6
	")
}

ee = energy('scf')
oeprop('DIPOLE', 'QUADRUPOLE', 'MULLIKEN_CHARGES')
f=open( 'psi4out.xyz', 'w' )
f.write( "18  " )
f.write( str(ee) + "\n" )
f.write( MOL.save_string_xyz() )
f.close()
--------------------------------------------------------------------------

    Molecular point group: c1

    Geometry (in Angstrom), charge = 0, multiplicity = 1:

       Center              X                  Y                   Z               Mass
    ------------   -----------------  -----------------  -----------------  -----------------
           H         -0.153472000499     2.113968469420    -3.256875625468     1.007825032070
           C         -0.178879000499     1.549135469420    -2.341942625468    12.000000000000
           C         -0.941582000499     1.997180469420    -1.273912625468    12.000000000000
           C          0.550924999501     0.375778469420    -2.234465625468    12.000000000000
           H         -1.507109000499     2.907332469420    -1.358586625468     1.007825032070
           C         -0.973749000499     1.270376469420    -0.097816625468    12.000000000000
           H          1.141581999501     0.030026469420    -3.063431625468     1.007825032070
           C          0.520234999501    -0.353402530580    -1.058145625468    12.000000000000
           H         -1.558351000499     1.601906469420     0.738843374532     1.007825032070
           C         -0.243196000499     0.092967469420     0.014090374532    12.000000000000
           H          1.083434999501    -1.261949530580    -0.970573625468     1.007825032070
           C         -0.311760000499    -0.652839530580     1.302394374532    12.000000000000
           O          0.419392999501    -1.757383530580     1.302352374532    15.994914619560
           O         -0.954441000499    -0.301169530580     2.241621374532    15.994914619560
           C          1.826428999501    -1.593306530580     1.302269374532    12.000000000000
           H          2.144547999501    -1.055641530580     0.421070374532     1.007825032070
           H          2.238409999501    -2.590364530580     1.302570374532     1.007825032070
           H          2.144626999501    -1.054976530580     2.183104374532     1.007825032070

  Charge       = 0
  Multiplicity = 1
  Basis Set: 6-31G*
  Basis Set:

    Orbital Energies (a.u.)
    -----------------------

    Doubly Occupied:

       1A    -20.593306     2A    -20.552864     3A    -11.379002
       4A    -11.293679     5A    -11.252368     6A    -11.251109
       7A    -11.248282     8A    -11.246152     9A    -11.244676
      10A    -11.242131    11A     -1.467038    12A     -1.369384
      13A     -1.171010    14A     -1.046809    15A     -1.031705
      16A     -0.985911    17A     -0.873733    18A     -0.845173
      19A     -0.784216    20A     -0.740388    21A     -0.691731
      22A     -0.674736    23A     -0.669675    24A     -0.646369
      25A     -0.628682    26A     -0.611162    27A     -0.589570
      28A     -0.563540    29A     -0.537250    30A     -0.522880
      31A     -0.506810    32A     -0.490006    33A     -0.463977
      34A     -0.442360    35A     -0.349703    36A     -0.346935

  @DF-RHF Final Energy:  -457.32046180516272

   => Energetics <=

    Nuclear Repulsion Energy =            500.7417976289889339
    One-Electron Energy =               -1615.4159213646571516
    Two-Electron Energy =                 657.3536619305059503
    DFT Exchange-Correlation Energy =       0.0000000000000000
    Empirical Dispersion Energy =           0.0000000000000000
    PCM Polarization Energy =               0.0000000000000000
    EFP Energy =                            0.0000000000000000
    Total Energy =                       -457.3204618051622674

  Mulliken Charges: (a.u.)
   Center  Symbol    Alpha    Beta     Spin     Total
       1     H     0.39411  0.39411  0.00000  0.21178
       2     C     3.09051  3.09051  0.00000 -0.18102
       3     C     3.10616  3.10616  0.00000 -0.21232
       4     C     3.10711  3.10711  0.00000 -0.21423
       5     H     0.39404  0.39404  0.00000  0.21193
       6     C     3.08451  3.08451  0.00000 -0.16901
       7     H     0.39546  0.39546  0.00000  0.20908
       8     C     3.10113  3.10113  0.00000 -0.20226
       9     H     0.37470  0.37470  0.00000  0.25060
      10     C     3.07677  3.07677  0.00000 -0.15354
      11     H     0.38098  0.38098  0.00000  0.23805
      12     C     2.59032  2.59032  0.00000  0.81936
      13     O     4.31397  4.31397  0.00000 -0.62795
      14     O     4.26471  4.26471  0.00000 -0.52942
      15     C     3.10107  3.10107  0.00000 -0.20214
      16     H     0.41719  0.41719  0.00000  0.16563
      17     H     0.40059  0.40059  0.00000  0.19882
      18     H     0.40667  0.40667  0.00000  0.18665

   Total alpha = 36.00000, Total beta = 36.00000, Total charge =  0.00000
