  ==> Input File <==

--------------------------------------------------------------------------
set {
	reference rhf
	basis cc-pvtz
}

set_num_threads( 4 )
memory 2 gb

molecule MOL {
0 1

H	 0.054202	 1.274551	 -1.097937
O	 0.057669	 1.301365	 -0.158528
C	 0.004145	 -0.005141	 0.363049
C	 1.199168	 -0.827145	 -0.096690
C	 -1.316386	 -0.602081	 -0.083515
H	 0.012026	 0.043363	 1.450619
H	 1.216685	 -0.896776	 -1.178167
H	 2.129940	 -0.372354	 0.228035
H	 1.160783	 -1.829622	 0.314294
H	 -1.357882	 -0.655920	 -1.165207
H	 -2.140147	 0.011735	 0.257253
H	 -1.440790	 -1.601175	 0.317669

	symmetry c1
}
set optking {
	frozen_dihedral = ("
		1 2 3 4
	")
}

ee = optimize('scf')
oeprop('DIPOLE', 'QUADRUPOLE', 'MULLIKEN_CHARGES')
f=open( 'psi4out.xyz', 'w' )
f.write( "12  " )
f.write( str(ee) + "\n" )
f.write( MOL.save_string_xyz() )
f.close()
--------------------------------------------------------------------------

    Molecular point group: c1
  Charge       = 0
  Multiplicity = 1
  Basis Set: CC-PVTZ
  Basis Set:
  @DF-RHF Final Energy:  -193.19368087720255
    Total Energy =                       -193.1936808772025529
    Molecular point group: c1
  Basis Set: CC-PVTZ
  Basis Set:
  Basis Set: CC-PVTZ
  Basis Set:
  @DF-RHF Final Energy:  -193.19523249334557
    Total Energy =                       -193.1952324933454292
  Basis Set: CC-PVTZ
  Basis Set:
  Basis Set: CC-PVTZ
  Basis Set:
  @DF-RHF Final Energy:  -193.19558377276988
    Total Energy =                       -193.1955837727698508
  Basis Set: CC-PVTZ
  Basis Set:
  Charge       = 0
  Multiplicity = 1
  Basis Set: CC-PVTZ
  Basis Set:

    Orbital Energies (a.u.)
    -----------------------

    Doubly Occupied:

       1A    -20.543932     2A    -11.273965     3A    -11.211256
       4A    -11.210244     5A     -1.364690     6A     -1.042905
       7A     -0.941684     8A     -0.820680     9A     -0.663605
      10A     -0.644990    11A     -0.603073    12A     -0.577122
      13A     -0.544912    14A     -0.517752    15A     -0.510869
      16A     -0.466852    17A     -0.434056

  @DF-RHF Final Energy:  -193.19558558239535

   => Energetics <=

    Nuclear Repulsion Energy =            135.5905704809026417
    One-Electron Energy =                -530.8271370409080419
    Two-Electron Energy =                 202.0409809776100474
    DFT Exchange-Correlation Energy =       0.0000000000000000
    Empirical Dispersion Energy =           0.0000000000000000
    PCM Polarization Energy =               0.0000000000000000
    EFP Energy =                            0.0000000000000000
    Total Energy =                       -193.1955855823953243
    Molecular point group: c1
  Basis Set: CC-PVTZ
  Basis Set:

  -Total Gradient:
     Atom            X                  Y                   Z
    ------   -----------------  -----------------  -----------------
       1        0.000241177896    -0.000062071421     0.000031028345
       2       -0.000332852251     0.000004724489    -0.000010305876
       3        0.000227482891    -0.000049286727     0.000129307768
       4       -0.000108310151     0.000040187516    -0.000146975769
       5       -0.000090827589    -0.000008563376    -0.000037305186
       6        0.000024805488     0.000031770647    -0.000043749130
       7       -0.000003543318     0.000009144641     0.000037602229
       8        0.000035911225    -0.000001053291     0.000002906854
       9       -0.000026014593     0.000006842143     0.000018896962
      10        0.000007122412     0.000002107239     0.000009559555
      11       -0.000001265993     0.000012148491     0.000005829578
      12        0.000026313982     0.000014049645     0.000003204669

  **** Optimization is complete! (in 4 steps) ****
    Final optimized geometry and variables:
    Molecular point group: c1

    Geometry (in Angstrom), charge = 0, multiplicity = 1:

    H            0.141449384835     1.340957485451    -1.043453666058
    O            0.103687811108     1.329607265447    -0.103373783375
    C            0.003149505400     0.003179982473     0.355166271306
    C            1.202281013789    -0.820962705663    -0.088935836704
    C           -1.319745488427    -0.619904339681    -0.065896707049
    H            0.019536597663     0.086335429729     1.434900227538
    H            1.224688294328    -0.916729457798    -1.171202131002
    H            2.122991171503    -0.347785833795     0.228101736491
    H            1.165148840516    -1.819509836736     0.331359117123
    H           -1.376455166970    -0.710211697183    -1.147240560404
    H           -2.146710698063    -0.005125425309     0.265773883369
    H           -1.435120475786    -1.611469280852     0.357038978058

  Mulliken Charges: (a.u.)
   Center  Symbol    Alpha    Beta     Spin     Total
       1     H     0.39451  0.39451  0.00000  0.21098
       2     O     4.20934  4.20934  0.00000 -0.41868
       3     C     2.92789  2.92789  0.00000  0.14422
       4     C     3.14669  3.14669  0.00000 -0.29338
       5     C     3.14545  3.14545  0.00000 -0.29090
       6     H     0.45090  0.45090  0.00000  0.09821
       7     H     0.46165  0.46165  0.00000  0.07670
       8     H     0.44460  0.44460  0.00000  0.11080
       9     H     0.45600  0.45600  0.00000  0.08801
      10     H     0.46155  0.46155  0.00000  0.07689
      11     H     0.44485  0.44485  0.00000  0.11029
      12     H     0.45656  0.45656  0.00000  0.08687

   Total alpha = 17.00000, Total beta = 17.00000, Total charge = -0.00000
