                              Psi4 1.0.54 Driver

  ==> Input File <==

--------------------------------------------------------------------------
set {
	reference rhf
	basis cc-pvtz
}

set_num_threads( 4 )
memory 2 gb

molecule MOL {
0 1

H	 1.646900	 -1.679667	 -0.306352
O	 2.012307	 -0.863440	 0.000222
C	 1.050374	 0.054877	 0.000135
C	 -0.318151	 -0.570512	 0.000144
O	 1.286319	 1.213453	 -0.000040
C	 -1.454884	 0.441630	 -0.000560
H	 -0.371613	 -1.223646	 -0.864985
H	 -0.371920	 -1.222758	 0.865929
C	 -2.822577	 -0.232186	 0.000063
H	 -1.359760	 1.084704	 -0.867077
H	 -1.359641	 1.085996	 0.864983
H	 -2.954352	 -0.858985	 -0.875745
H	 -3.615886	 0.505352	 0.000019
H	 -2.953878	 -0.858359	 0.876394

	symmetry c1
}
set optking {
	frozen_dihedral = ("
		1 2 3 5
	")
}

ee,wfn = optimize('scf', return_wfn=True)
oeprop( wfn, 'DIPOLE', 'QUADRUPOLE', 'MULLIKEN_CHARGES')
f=open( 'psi4out.xyz', 'w' )
f.write( "14  " )
f.write( str(ee) + "\n" )
f.write( MOL.save_string_xyz() )
f.close()
--------------------------------------------------------------------------

    Molecular point group: c1
  Charge       = 0
  Multiplicity = 1
  Basis Set: CC-PVTZ
  Basis Set:
  @DF-RHF Final Energy:  -305.98898301344320
    Total Energy =                       -305.9889830134433737
    Molecular point group: c1
  Basis Set: CC-PVTZ
  Basis Set:
  Basis Set: CC-PVTZ
  Basis Set:
  @DF-RHF Final Energy:  -305.99014768489451
    Total Energy =                       -305.9901476848944526
  Basis Set: CC-PVTZ
  Basis Set:
  Basis Set: CC-PVTZ
  Basis Set:
  @DF-RHF Final Energy:  -305.99031798471174
    Total Energy =                       -305.9903179847117372
  Basis Set: CC-PVTZ
  Basis Set:
  Basis Set: CC-PVTZ
  Basis Set:
  @DF-RHF Final Energy:  -305.99017164552379
    Total Energy =                       -305.9901716455236738
  Basis Set: CC-PVTZ
  Basis Set:
  Basis Set: CC-PVTZ
  Basis Set:
  @DF-RHF Final Energy:  -305.99040803208987
    Total Energy =                       -305.9904080320897037
  Basis Set: CC-PVTZ
  Basis Set:
  Charge       = 0
  Multiplicity = 1
  Basis Set: CC-PVTZ
  Basis Set:

    Orbital Energies (a.u.)
    -----------------------

    Doubly Occupied:

       1A    -20.602912     2A    -20.538144     3A    -11.373270
       4A    -11.250464     5A    -11.229267     6A    -11.220495
       7A     -1.470822     8A     -1.373794     9A     -1.088860
      10A     -0.979244    11A     -0.854557    12A     -0.819549
      13A     -0.721811    14A     -0.674735    15A     -0.663035
      16A     -0.623662    17A     -0.591191    18A     -0.583292
      19A     -0.553115    20A     -0.510788    21A     -0.496667
      22A     -0.489320    23A     -0.482018    24A     -0.444263

  @DF-RHF Final Energy:  -305.99040857877020

   => Energetics <=

    Nuclear Repulsion Energy =            240.3560373298096806
    One-Electron Energy =                -893.4223415886154953
    Two-Electron Energy =                 347.0758956800357282
    DFT Exchange-Correlation Energy =       0.0000000000000000
    Empirical Dispersion Energy =           0.0000000000000000
    PCM Polarization Energy =               0.0000000000000000
    EFP Energy =                            0.0000000000000000
    Total Energy =                       -305.9904085787700296
    Molecular point group: c1
  Basis Set: CC-PVTZ
  Basis Set:

  -Total Gradient:
     Atom            X                  Y                   Z
    ------   -----------------  -----------------  -----------------
       1        0.001091555529     0.000990023031    -0.004277702777
       2       -0.001326631053    -0.001402512525     0.003690558264
       3        0.000175391329     0.000504397245     0.004475943974
       4        0.000021145143    -0.000004562992     0.000031427403
       5        0.000038015995    -0.000088240897    -0.003897705585
       6        0.000010356695     0.000011178448    -0.000012077717
       7        0.000003112282     0.000003558452    -0.000008808235
       8       -0.000006528449    -0.000005202254    -0.000014599641
       9       -0.000006821706    -0.000003841945     0.000003404399
      10        0.000001752439    -0.000004764471     0.000008257249
      11       -0.000000094056     0.000000236101     0.000001097974
      12        0.000000410004     0.000000389931    -0.000000077449
      13       -0.000000173194    -0.000000575488     0.000000475702
      14       -0.000001490954    -0.000000082638    -0.000000193559

  **** Optimization is complete! (in 6 steps) ****
    Final optimized geometry and variables:
    Molecular point group: c1

    Geometry (in Angstrom), charge = 0, multiplicity = 1:

    H            1.806617720805    -1.679885384842    -0.200129168547
    O            2.072339122735    -0.818497021063     0.070588033626
    C            1.061062450504     0.056305971197     0.022669781010
    C           -0.317856957490    -0.564128779975     0.022491994537
    O            1.278498561747     1.210987772915    -0.016959064668
    C           -1.448786584630     0.452555009852    -0.044304672986
    H           -0.374268795030    -1.250756214901    -0.819846421688
    H           -0.399990485309    -1.175939172495     0.916618137543
    C           -2.821358577784    -0.211103650566    -0.041565946559
    H           -1.329736288656     1.056883978689    -0.934914229047
    H           -1.362337787553     1.131319302996     0.794800071501
    H           -2.942782981145    -0.873254572589    -0.892702588774
    H           -3.607783814601     0.532037318729    -0.088327024132
    H           -2.975276842974    -0.797879095680     0.858083799591

  Mulliken Charges: (a.u.)
   Center  Symbol    Alpha    Beta     Spin     Total
       1     H     0.38803  0.38803  0.00000  0.22395
       2     O     4.14784  4.14784  0.00000 -0.29568
       3     C     2.80413  2.80413  0.00000  0.39174
       4     C     3.12199  3.12199  0.00000 -0.24399
       5     O     4.17396  4.17396  0.00000 -0.34792
       6     C     3.08329  3.08329  0.00000 -0.16658
       7     H     0.44974  0.44974  0.00000  0.10052
       8     H     0.43859  0.43859  0.00000  0.12282
       9     C     3.15034  3.15034  0.00000 -0.30067
      10     H     0.44383  0.44383  0.00000  0.11234
      11     H     0.44270  0.44270  0.00000  0.11460
      12     H     0.45621  0.45621  0.00000  0.08759
      13     H     0.44381  0.44381  0.00000  0.11239
      14     H     0.45554  0.45554  0.00000  0.08891

   Total alpha = 24.00000, Total beta = 24.00000, Total charge = -0.00000

*** Psi4 exiting successfully. Buy a developer a beer!
