  ==> Input File <==

--------------------------------------------------------------------------
set {
	reference rhf
	basis 6-31G*
}

set_num_threads( 4 )
memory 2 gb

molecule MOL {
0 1

O	 0.287197	 0.937494	 -0.776241
C	 0.028650	 0.075053	 -0.000277
C	 -1.233602	 -0.752807	 0.000328
O	 0.836901	 -0.278775	 0.990398
C	 -2.501530	 0.091881	 0.000126
H	 -1.193807	 -1.406641	 -0.865785
H	 -1.193516	 -1.405779	 0.867015
H	 -2.545121	 0.729328	 -0.874513
H	 -3.377167	 -0.548497	 0.000561
H	 -2.544818	 0.730135	 0.874258
C	 2.061027	 0.424328	 1.103315
H	 2.655206	 0.298196	 0.209751
H	 2.569153	 -0.002730	 1.953781
H	 1.880813	 1.477421	 1.264529

	symmetry c1
}
set optking {
	frozen_dihedral = ("
		4 2 3 6
	")
}

ee = optimize('scf')
oeprop('DIPOLE', 'QUADRUPOLE', 'MULLIKEN_CHARGES')
f=open( 'psi4out.xyz', 'w' )
f.write( "14  " )
f.write( str(ee) + "\n" )
f.write( MOL.save_string_xyz() )
f.close()
--------------------------------------------------------------------------

    Molecular point group: c1
  Charge       = 0
  Multiplicity = 1
  Basis Set: 6-31G*
  Basis Set:
  @DF-RHF Final Energy:  -305.87005377274448
    Total Energy =                       -305.8700537727443702
    Molecular point group: c1
  Basis Set: 6-31G*
  Basis Set:
  Basis Set: 6-31G*
  Basis Set:
  @DF-RHF Final Energy:  -305.87066092606767
    Total Energy =                       -305.8706609260676714
  Basis Set: 6-31G*
  Basis Set:
  Basis Set: 6-31G*
  Basis Set:
  @DF-RHF Final Energy:  -305.87064499281280
    Total Energy =                       -305.8706449928127427
  Basis Set: 6-31G*
  Basis Set:
  Basis Set: 6-31G*
  Basis Set:
  @DF-RHF Final Energy:  -305.87063872580580
    Total Energy =                       -305.8706387258059749
  Basis Set: 6-31G*
  Basis Set:
  Basis Set: 6-31G*
  Basis Set:
  @DF-RHF Final Energy:  -305.87068755560404
    Total Energy =                       -305.8706875556043201
  Basis Set: 6-31G*
  Basis Set:
  Charge       = 0
  Multiplicity = 1
  Basis Set: 6-31G*
  Basis Set:

    Orbital Energies (a.u.)
    -----------------------

    Doubly Occupied:

       1A    -20.606954     2A    -20.543521     3A    -11.372679
       4A    -11.281563     5A    -11.237596     6A    -11.221726
       7A     -1.470771     8A     -1.362680     9A     -1.064485
      10A     -0.980222    11A     -0.879907    12A     -0.771869
      13A     -0.699275    14A     -0.681009    15A     -0.672460
      16A     -0.618421    17A     -0.601784    18A     -0.557803
      19A     -0.539019    20A     -0.518322    21A     -0.511488
      22A     -0.498977    23A     -0.455885    24A     -0.436921

  @DF-RHF Final Energy:  -305.87068790910234

   => Energetics <=

    Nuclear Repulsion Energy =            247.2736663696473727
    One-Electron Energy =                -907.1180349805554215
    Two-Electron Energy =                 353.9736807018057334
    DFT Exchange-Correlation Energy =       0.0000000000000000
    Empirical Dispersion Energy =           0.0000000000000000
    PCM Polarization Energy =               0.0000000000000000
    EFP Energy =                            0.0000000000000000
    Total Energy =                       -305.8706879091023438
    Molecular point group: c1
  Basis Set: 6-31G*
  Basis Set:

  -Total Gradient:
     Atom            X                  Y                   Z
    ------   -----------------  -----------------  -----------------
       1        0.000007084563    -0.000043311550     0.000026387598
       2        0.000312177237    -0.000451742141    -0.000838265768
       3        0.000400159748    -0.000621947526     0.000777686707
       4       -0.000271244831     0.000462557919     0.000511231331
       5        0.000018340887     0.000002244805    -0.000016709485
       6       -0.000433716184     0.000659444279    -0.000472492004
       7        0.000001336555    -0.000012310878     0.000004403757
       8       -0.000006452243     0.000009758490    -0.000004853705
       9        0.000003827375    -0.000005847957     0.000000662731
      10        0.000007090804    -0.000007522987    -0.000001028076
      11       -0.000061590560     0.000017022821     0.000022668986
      12       -0.000001315593    -0.000006686478    -0.000008980138
      13        0.000005662698    -0.000004767854    -0.000001893706
      14        0.000018639544     0.000003109054     0.000001181774

  **** Optimization is complete! (in 6 steps) ****
    Final optimized geometry and variables:
    Molecular point group: c1

    Geometry (in Angstrom), charge = 0, multiplicity = 1:

    O            0.304992978184     0.851193695084    -0.970368163597
    C            0.084337020849    -0.028234942139    -0.200114310481
    C           -1.171867484975    -0.867711093358    -0.206489842021
    O            0.925587763135    -0.379293721404     0.761013952697
    C           -2.430161233482     0.000737196038    -0.265301962379
    H           -1.124024576912    -1.492185753293    -1.093965150638
    H           -1.178449389260    -1.518348370020     0.657565922886
    H           -2.403951089070     0.652107650153    -1.129288499047
    H           -3.313977638801    -0.624220564641    -0.330155608264
    H           -2.521996888622     0.618448984942     0.622145996364
    C            2.145231108172     0.337076804071     0.838930136958
    H            2.709600837012     0.225733782856    -0.075625325628
    H            2.686445440999    -0.091683830114     1.667809694855
    H            1.957797043025     1.386335596681     1.015389804122

  Mulliken Charges: (a.u.)
   Center  Symbol    Alpha    Beta     Spin     Total
       1     O     4.28634  4.28634  0.00000 -0.57269
       2     C     2.60818  2.60818  0.00000  0.78363
       3     C     3.20462  3.20462  0.00000 -0.40924
       4     O     4.30367  4.30367  0.00000 -0.60735
       5     C     3.24661  3.24661  0.00000 -0.49322
       6     H     0.40011  0.40011  0.00000  0.19977
       7     H     0.39992  0.39992  0.00000  0.20016
       8     H     0.40186  0.40186  0.00000  0.19627
       9     H     0.41477  0.41477  0.00000  0.17046
      10     H     0.41526  0.41526  0.00000  0.16947
      11     C     3.09361  3.09361  0.00000 -0.18723
      12     H     0.40849  0.40849  0.00000  0.18301
      13     H     0.40828  0.40828  0.00000  0.18345
      14     H     0.40826  0.40826  0.00000  0.18348

   Total alpha = 24.00000, Total beta = 24.00000, Total charge = -0.00000
