                              Psi4 1.0.54 Driver

  ==> Input File <==

--------------------------------------------------------------------------
set {
	reference rhf
	basis cc-pvtz
}

set_num_threads( 4 )
memory 2 gb

molecule MOL {
0 1

O	 -0.988175	 -1.402891	 0.050086
C	 -0.675048	 -0.248293	 -0.009686
C	 -1.742492	 0.826599	 -0.011538
N	 0.622280	 0.144970	 -0.099307
H	 -1.692153	 1.431066	 -0.908439
H	 -2.698310	 0.331559	 0.031353
H	 -1.642148	 1.483784	 0.843455
C	 1.479132	 -0.002842	 1.058235
C	 1.134894	 1.002802	 -1.140992
H	 2.468258	 -0.307573	 0.738874
H	 1.071542	 -0.748158	 1.716684
H	 1.570103	 0.932650	 1.604322
H	 2.164037	 0.737416	 -1.346103
H	 0.581349	 0.891167	 -2.057519
H	 1.112883	 2.050957	 -0.851283

	symmetry c1
}
set optking {
	frozen_dihedral = ("
		8 4 2 3
	")
}

ee,wfn = optimize('scf', return_wfn=True)
oeprop( wfn, 'DIPOLE', 'QUADRUPOLE', 'MULLIKEN_CHARGES')
f=open( 'psi4out.xyz', 'w' )
f.write( "15  " )
f.write( str(ee) + "\n" )
f.write( MOL.save_string_xyz() )
f.close()
--------------------------------------------------------------------------

    Molecular point group: c1
  Charge       = 0
  Multiplicity = 1
  Basis Set: CC-PVTZ
  Basis Set:
  @DF-RHF Final Energy:  -286.10706597898638
    Total Energy =                       -286.1070659789866681
    Molecular point group: c1
  Basis Set: CC-PVTZ
  Basis Set:
  Basis Set: CC-PVTZ
  Basis Set:
  @DF-RHF Final Energy:  -286.03959875211240
    Total Energy =                       -286.0395987521123402
  Basis Set: CC-PVTZ
  Basis Set:
  Basis Set: CC-PVTZ
  Basis Set:
  @DF-RHF Final Energy:  -286.10949183797152
    Total Energy =                       -286.1094918379712340
  Basis Set: CC-PVTZ
  Basis Set:
  Basis Set: CC-PVTZ
  Basis Set:
  @DF-RHF Final Energy:  -286.11596568337063
    Total Energy =                       -286.1159656833702911
  Basis Set: CC-PVTZ
  Basis Set:
  @DF-RHF Final Energy:  -286.11718083367532
    Total Energy =                       -286.1171808336752065
  @DF-RHF Final Energy:  -286.11795939421029
    Total Energy =                       -286.1179593942104020
  Basis Set: CC-PVTZ
  Basis Set:
  @DF-RHF Final Energy:  -286.11821832825461
    Total Energy =                       -286.1182183282545566
  Basis Set: CC-PVTZ
  Basis Set:
  Basis Set: CC-PVTZ
  Basis Set:
  @DF-RHF Final Energy:  -286.11824492616779
    Total Energy =                       -286.1182449261677903
  Basis Set: CC-PVTZ
  Basis Set:
  Basis Set: CC-PVTZ
  Basis Set:
  @DF-RHF Final Energy:  -286.11825072298313
    Total Energy =                       -286.1182507229830776
  Basis Set: CC-PVTZ
  Basis Set:
  Charge       = 0
  Multiplicity = 1
  Basis Set: CC-PVTZ
  Basis Set:

    Orbital Energies (a.u.)
    -----------------------

    Doubly Occupied:

       1A    -20.526526     2A    -15.566140     3A    -11.341941
       4A    -11.256822     5A    -11.253043     6A    -11.231515
       7A     -1.403639     8A     -1.240970     9A     -1.012950
      10A     -0.968925    11A     -0.912396    12A     -0.739460
      13A     -0.683822    14A     -0.661155    15A     -0.650028
      16A     -0.599618    17A     -0.582427    18A     -0.576041
      19A     -0.560114    20A     -0.550676    21A     -0.528466
      22A     -0.501216    23A     -0.424341    24A     -0.374313

  @DF-RHF Final Energy:  -286.11825158798484

   => Energetics <=

    Nuclear Repulsion Energy =            253.1356221728619289
    One-Electron Energy =                -890.2146558609017575
    Two-Electron Energy =                 350.9607821000547005
    DFT Exchange-Correlation Energy =       0.0000000000000000
    Empirical Dispersion Energy =           0.0000000000000000
    PCM Polarization Energy =               0.0000000000000000
    EFP Energy =                            0.0000000000000000
    Total Energy =                       -286.1182515879850712
    Molecular point group: c1
  Basis Set: CC-PVTZ
  Basis Set:

  -Total Gradient:
     Atom            X                  Y                   Z
    ------   -----------------  -----------------  -----------------
       1       -0.000024137799    -0.000010866118     0.000063177677
       2       -0.002551374972     0.001066382149    -0.011448697035
       3        0.000664349574     0.001159786977     0.007994351520
       4        0.005873399325    -0.009165988896     0.001150930467
       5        0.000003702598     0.000028010638     0.000013355145
       6       -0.000014431911     0.000016712332     0.000020293096
       7        0.000027095511     0.000007716597     0.000035858814
       8       -0.003863812853     0.006872603857     0.002190010738
       9       -0.000007136606     0.000086869263     0.000029466869
      10       -0.000065728431    -0.000017562878     0.000008487632
      11       -0.000015125392     0.000028946915    -0.000014578665
      12        0.000005782658    -0.000038502836    -0.000029430175
      13       -0.000011112776    -0.000019820130     0.000016777374
      14       -0.000016535063    -0.000004022084    -0.000022361133
      15       -0.000004933865    -0.000010265786    -0.000007642322

  **** Optimization is complete! (in 10 steps) ****
    Final optimized geometry and variables:
    Molecular point group: c1

    Geometry (in Angstrom), charge = 0, multiplicity = 1:

    O           -0.432715361508    -1.689525885485     0.276147692728
    C           -0.494965613861    -0.545835579821    -0.034862999312
    C           -1.824803195539     0.178073449749    -0.035540293244
    N            0.674075777077     0.195756849202    -0.246687259730
    H           -2.044499950067     0.661036223000    -0.978048567839
    H           -2.601562128263    -0.533084088675     0.192904391005
    H           -1.798568912548     0.948335870452     0.727549187753
    C            1.511952562487     0.314098861921     0.937193888037
    C            0.562540992219     1.451067816782    -0.961079422434
    H            2.502944316336     0.634501279270     0.645374024552
    H            1.591861326607    -0.643687626474     1.424600667670
    H            1.112818923518     1.042363875315     1.643327679867
    H            1.556796274579     1.779150036943    -1.231997832843
    H            0.005378926966     1.321011407790    -1.877487107756
    H            0.096943507664     2.245804091158    -0.378646618718

  Mulliken Charges: (a.u.)
   Center  Symbol    Alpha    Beta     Spin     Total
       1     O     4.18566  4.18566  0.00000 -0.37132
       2     C     2.84025  2.84025  0.00000  0.31949
       3     C     3.15942  3.15942  0.00000 -0.31885
       4     N     3.58672  3.58672  0.00000 -0.17343
       5     H     0.44821  0.44821  0.00000  0.10359
       6     H     0.42928  0.42928  0.00000  0.14145
       7     H     0.44708  0.44708  0.00000  0.10584
       8     C     3.09515  3.09515  0.00000 -0.19031
       9     C     3.10485  3.10485  0.00000 -0.20971
      10     H     0.45137  0.45137  0.00000  0.09726
      11     H     0.43348  0.43348  0.00000  0.13305
      12     H     0.46673  0.46673  0.00000  0.06655
      13     H     0.44201  0.44201  0.00000  0.11598
      14     H     0.44671  0.44671  0.00000  0.10658
      15     H     0.46308  0.46308  0.00000  0.07384

   Total alpha = 24.00000, Total beta = 24.00000, Total charge = -0.00000

*** Psi4 exiting successfully. Buy a developer a beer!
