  ==> Input File <==

--------------------------------------------------------------------------
set {
	reference rhf
	basis 6-31G*
}

set_num_threads( 4 )
memory 2 gb

molecule MOL {
0 1

H	 -1.367966	 0.069849	 1.630278
C	 -0.778805	 -0.484033	 0.928144
C	 -0.773667	 -1.867295	 0.922020
C	 0.000000	 0.183220	 0.000000
H	 -1.371642	 -2.404452	 1.634659
C	 0.000000	 -2.555744	 0.000000
N	 0.000000	 1.642018	 0.000000
C	 0.778805	 -0.484034	 -0.928144
H	 0.000000	 -3.630640	 0.000000
C	 0.773667	 -1.867295	 -0.922020
O	 1.057097	 2.196749	 0.000000
O	 -1.057097	 2.196749	 0.000000
H	 1.367966	 0.069849	 -1.630278
H	 1.371642	 -2.404452	 -1.634659

	symmetry c1
}
set optking {
	frozen_dihedral = ("
		2 4 7 11
	")
}

ee = optimize('scf')
oeprop('DIPOLE', 'QUADRUPOLE', 'MULLIKEN_CHARGES')
f=open( 'psi4out.xyz', 'w' )
f.write( "14  " )
f.write( str(ee) + "\n" )
f.write( MOL.save_string_xyz() )
f.close()
--------------------------------------------------------------------------

    Molecular point group: c1
  Charge       = 0
  Multiplicity = 1
  Basis Set: 6-31G*
  Basis Set:
  @DF-RHF Final Energy:  -434.16847401252335
    Total Energy =                       -434.1684740125234612
    Molecular point group: c1
  Basis Set: 6-31G*
  Basis Set:
  Basis Set: 6-31G*
  Basis Set:
  @DF-RHF Final Energy:  -434.16301816820493
    Total Energy =                       -434.1630181682048715
  Basis Set: 6-31G*
  Basis Set:
  Basis Set: 6-31G*
  Basis Set:
  @DF-RHF Final Energy:  -434.16887659814557
    Total Energy =                       -434.1688765981458573
  Basis Set: 6-31G*
  Basis Set:
  Basis Set: 6-31G*
  Basis Set:
  @DF-RHF Final Energy:  -434.16908078805164
    Total Energy =                       -434.1690807880517013
  Basis Set: 6-31G*
  Basis Set:
  Basis Set: 6-31G*
  Basis Set:
  @DF-RHF Final Energy:  -434.16908341941092
    Total Energy =                       -434.1690834194109812
  Basis Set: 6-31G*
  Basis Set:
  Charge       = 0
  Multiplicity = 1
  Basis Set: 6-31G*
  Basis Set:

    Orbital Energies (a.u.)
    -----------------------

    Doubly Occupied:

       1A    -20.604517     2A    -20.604089     3A    -15.855323
       4A    -11.306594     5A    -11.271579     6A    -11.271271
       7A    -11.265439     8A    -11.262548     9A    -11.262285
      10A     -1.635955    11A     -1.419746    12A     -1.202787
      13A     -1.095203    14A     -1.053856    15A     -0.957742
      16A     -0.869294    17A     -0.826248    18A     -0.781778
      19A     -0.733396    20A     -0.729579    21A     -0.713336
      22A     -0.650420    23A     -0.649448    24A     -0.624315
      25A     -0.557129    26A     -0.542393    27A     -0.531418
      28A     -0.491757    29A     -0.486362    30A     -0.450867
      31A     -0.370418    32A     -0.366416

  @DF-RHF Final Energy:  -434.16908347373595

   => Energetics <=

    Nuclear Repulsion Energy =            416.8544810472793074
    One-Electron Energy =               -1417.1601080844311582
    Two-Electron Energy =                 566.1365435634157848
    DFT Exchange-Correlation Energy =       0.0000000000000000
    Empirical Dispersion Energy =           0.0000000000000000
    PCM Polarization Energy =               0.0000000000000000
    EFP Energy =                            0.0000000000000000
    Total Energy =                       -434.1690834737361229
    Molecular point group: c1
  Basis Set: 6-31G*
  Basis Set:

  -Total Gradient:
     Atom            X                  Y                   Z
    ------   -----------------  -----------------  -----------------
       1        0.000012379736     0.000000371327    -0.000003451642
       2        0.004103625056    -0.000191167722     0.003260159419
       3        0.000027090489     0.000013261050     0.000029748690
       4       -0.005713992199     0.000198824149    -0.002260404186
       5       -0.000002489045    -0.000001499909    -0.000006571747
       6        0.000008262135     0.000001925415    -0.000008640176
       7        0.001554990142     0.000017880677    -0.007139962932
       8       -0.000117330563    -0.000023386553    -0.000089350985
       9       -0.000001374763    -0.000003419788     0.000000952821
      10       -0.000037641528     0.000004212348    -0.000016819900
      11        0.000128732109    -0.000080688864     0.006246396350
      12        0.000041281354     0.000061872262    -0.000016632519
      13       -0.000009422542    -0.000001434104    -0.000002163999
      14        0.000005889617     0.000003249697     0.000006740807

  **** Optimization is complete! (in 6 steps) ****
    Final optimized geometry and variables:
    Molecular point group: c1

    Geometry (in Angstrom), charge = 0, multiplicity = 1:

    H           -1.399702100521     0.081476187125     1.595398832384
    C           -0.796727754060    -0.475914330319     0.905156404692
    C           -0.769682878141    -1.859921155494     0.920369696458
    C           -0.030123575204     0.182774236270    -0.034467871395
    H           -1.353074174780    -2.395162905806     1.646412585752
    C            0.005893485130    -2.550298355508     0.001839791650
    N            0.000479618769     1.639466973338    -0.006227761288
    C            0.778161196477    -0.480214524638    -0.935943234422
    H            0.016432325473    -3.624973887818     0.013060763511
    C            0.774095544270    -1.863873212921    -0.926721142544
    O            1.071616211929     2.164963587802    -0.026834569074
    O           -1.045076558510     2.207897050992     0.084702217476
    H            1.387617265999     0.074327833231    -1.622890909810
    H            1.377890625808    -2.402719086275    -1.633156105218

  Mulliken Charges: (a.u.)
   Center  Symbol    Alpha    Beta     Spin     Total
       1     H     0.37133  0.37133  0.00000  0.25734
       2     C     3.08634  3.08634  0.00000 -0.17269
       3     C     3.10614  3.10614  0.00000 -0.21227
       4     C     2.90583  2.90583  0.00000  0.18833
       5     H     0.38847  0.38847  0.00000  0.22307
       6     C     3.08975  3.08975  0.00000 -0.17950
       7     N     3.25623  3.25623  0.00000  0.48754
       8     C     3.08582  3.08582  0.00000 -0.17164
       9     H     0.38954  0.38954  0.00000  0.22092
      10     C     3.10651  3.10651  0.00000 -0.21302
      11     O     4.22670  4.22670  0.00000 -0.45339
      12     O     4.22639  4.22639  0.00000 -0.45279
      13     H     0.37250  0.37250  0.00000  0.25500
      14     H     0.38845  0.38845  0.00000  0.22310

   Total alpha = 32.00000, Total beta = 32.00000, Total charge =  0.00000
