  ==> Input File <==

--------------------------------------------------------------------------
set {
	reference rhf
	basis cc-pvtz
}

set_num_threads( 4 )
memory 2 gb

molecule MOL {
0 1

H	 -1.088256	 -1.364742	 0.152233
O	 -1.432053	 -0.565244	 -0.200812
C	 -0.727158	 0.534527	 0.310686
C	 0.680222	 0.664433	 -0.252229
H	 -1.306802	 1.408001	 0.044211
H	 -0.690821	 0.490158	 1.397609
C	 1.782031	 0.422081	 0.775063
H	 0.788785	 -0.031712	 -1.077352
H	 0.784913	 1.664052	 -0.665086
H	 1.746352	 -0.588709	 1.166412
H	 2.761606	 0.558923	 0.333182
H	 1.698925	 1.110071	 1.610958

	symmetry c1
}
set optking {
	frozen_dihedral = ("
		8 4 3 2
	")
}

ee = optimize('scf')
oeprop('DIPOLE', 'QUADRUPOLE', 'MULLIKEN_CHARGES')
f=open( 'psi4out.xyz', 'w' )
f.write( "12  " )
f.write( str(ee) + "\n" )
f.write( MOL.save_string_xyz() )
f.close()
--------------------------------------------------------------------------

    Molecular point group: c1
  Charge       = 0
  Multiplicity = 1
  Basis Set: CC-PVTZ
  Basis Set:
  @DF-RHF Final Energy:  -193.18452649419703
    Total Energy =                       -193.1845264941970299
    Molecular point group: c1
  Basis Set: CC-PVTZ
  Basis Set:
  Basis Set: CC-PVTZ
  Basis Set:
  @DF-RHF Final Energy:  -193.18492910328189
    Total Energy =                       -193.1849291032819451
  Basis Set: CC-PVTZ
  Basis Set:
  Basis Set: CC-PVTZ
  Basis Set:
  @DF-RHF Final Energy:  -193.18500790761769
    Total Energy =                       -193.1850079076175746
  Basis Set: CC-PVTZ
  Basis Set:
  Basis Set: CC-PVTZ
  Basis Set:
  @DF-RHF Final Energy:  -193.18501134171186
    Total Energy =                       -193.1850113417119701
  Basis Set: CC-PVTZ
  Basis Set:
  Charge       = 0
  Multiplicity = 1
  Basis Set: CC-PVTZ
  Basis Set:

    Orbital Energies (a.u.)
    -----------------------

    Doubly Occupied:

       1A    -20.545879     2A    -11.265833     3A    -11.216677
       4A    -11.214630     5A     -1.363224     6A     -1.050603
       7A     -0.921957     8A     -0.816930     9A     -0.694760
      10A     -0.640152    11A     -0.595173    12A     -0.576706
      13A     -0.562492    14A     -0.509645    15A     -0.487827
      16A     -0.465014    17A     -0.432694

  @DF-RHF Final Energy:  -193.18501188758444

   => Energetics <=

    Nuclear Repulsion Energy =            131.4654836041323733
    One-Electron Energy =                -522.5805967396593132
    Two-Electron Energy =                 197.9301012479423036
    DFT Exchange-Correlation Energy =       0.0000000000000000
    Empirical Dispersion Energy =           0.0000000000000000
    PCM Polarization Energy =               0.0000000000000000
    EFP Energy =                            0.0000000000000000
    Total Energy =                       -193.1850118875846363
    Molecular point group: c1
  Basis Set: CC-PVTZ
  Basis Set:

  -Total Gradient:
     Atom            X                  Y                   Z
    ------   -----------------  -----------------  -----------------
       1        0.000009531638     0.000009457392     0.000006646355
       2       -0.000788394381     0.001164389744    -0.001534907352
       3        0.001236976103    -0.001965161541     0.002468217993
       4       -0.001286909094     0.002603024791    -0.002615224806
       5        0.000006951621    -0.000004200108    -0.000018228587
       6        0.000002102491    -0.000021945929    -0.000025297581
       7        0.000018086458    -0.000006189135    -0.000013460164
       8        0.000851568544    -0.001793482941     0.001678617360
       9       -0.000038703946     0.000008138897     0.000045049411
      10       -0.000003320333     0.000003331773     0.000000676002
      11       -0.000001744602    -0.000015969486     0.000013225383
      12       -0.000006144499     0.000018606541    -0.000005314017

  **** Optimization is complete! (in 5 steps) ****
    Final optimized geometry and variables:
    Molecular point group: c1

    Geometry (in Angstrom), charge = 0, multiplicity = 1:

    H           -1.066095534226    -1.599207074095    -0.061570158135
    O           -1.475173698839    -0.804011023503    -0.351227246565
    C           -0.781104600953     0.307678617017     0.152472419658
    C            0.638159795300     0.454914068882    -0.420122736845
    H           -1.384799563394     1.162137752986    -0.118631863264
    H           -0.748669894732     0.271615780159     1.238345767007
    C            1.741359456172     0.191366260047     0.602893986470
    H            0.738424074254    -0.248129496123    -1.238888401310
    H            0.767214801765     1.446992841138    -0.837399495868
    H            1.655295537494    -0.804496867817     1.027251191421
    H            2.723244780709     0.271755477329     0.151345306299
    H            1.695413496647     0.900944245182     1.422089998719

  Mulliken Charges: (a.u.)
   Center  Symbol    Alpha    Beta     Spin     Total
       1     H     0.39502  0.39502  0.00000  0.20997
       2     O     4.20124  4.20124  0.00000 -0.40249
       3     C     2.97052  2.97052  0.00000  0.05896
       4     C     3.09815  3.09815  0.00000 -0.19630
       5     H     0.45374  0.45374  0.00000  0.09252
       6     H     0.47134  0.47134  0.00000  0.05732
       7     C     3.14851  3.14851  0.00000 -0.29703
       8     H     0.44833  0.44833  0.00000  0.10334
       9     H     0.45212  0.45212  0.00000  0.09577
      10     H     0.45867  0.45867  0.00000  0.08265
      11     H     0.44776  0.44776  0.00000  0.10448
      12     H     0.45459  0.45459  0.00000  0.09081

   Total alpha = 17.00000, Total beta = 17.00000, Total charge = -0.00000
