  ==> Input File <==

--------------------------------------------------------------------------
set {
	reference rhf
	basis cc-pvtz
}

set_num_threads( 4 )
memory 2 gb

molecule MOL {
0 1

O	 1.525816	 0.191847	 0.968130
C	 0.860843	 0.273204	 -0.013120
C	 -0.623368	 -0.117453	 -0.005652
C	 1.483967	 0.765256	 -1.304485
C	 -0.892588	 -1.253841	 -1.002900
C	 -1.473463	 1.100646	 -0.372896
C	 -0.981836	 -0.579025	 1.418506
H	 -0.609333	 -0.970024	 -2.010649
H	 -1.950451	 -1.487353	 -1.013175
H	 -0.360848	 -2.161259	 -0.746463
H	 -1.232203	 1.461623	 -1.364827
H	 -2.524364	 0.834451	 -0.354500
H	 -1.312381	 1.914833	 0.318657
H	 -2.035706	 -0.826342	 1.468082
H	 -0.425078	 -1.458934	 1.716857
H	 -0.788494	 0.205047	 2.140903
H	 1.206579	 1.801693	 -1.461385
H	 2.557756	 0.703375	 -1.217216
H	 1.150184	 0.204372	 -2.166594

	symmetry c1
}
set optking {
	frozen_dihedral = ("
		1 2 3 5
	")
}

ee = optimize('scf')
oeprop('DIPOLE', 'QUADRUPOLE', 'MULLIKEN_CHARGES')
f=open( 'psi4out.xyz', 'w' )
f.write( "19  " )
f.write( str(ee) + "\n" )
f.write( MOL.save_string_xyz() )
f.close()
--------------------------------------------------------------------------

    Molecular point group: c1
  Charge       = 0
  Multiplicity = 1
  Basis Set: CC-PVTZ
  Basis Set:
  @DF-RHF Final Energy:  -309.17291473219689
    Total Energy =                       -309.1729147321971709
    Molecular point group: c1
  Basis Set: CC-PVTZ
  Basis Set:
  Basis Set: CC-PVTZ
  Basis Set:
  @DF-RHF Final Energy:  -309.17224128374937
    Total Energy =                       -309.1722412837493721
  Basis Set: CC-PVTZ
  Basis Set:
  Basis Set: CC-PVTZ
  Basis Set:
  @DF-RHF Final Energy:  -309.17228288585358
    Total Energy =                       -309.1722828858534058
  Basis Set: CC-PVTZ
  Basis Set:
  Basis Set: CC-PVTZ
  Basis Set:
  @DF-RHF Final Energy:  -309.17377383679474
    Total Energy =                       -309.1737738367941120
  Basis Set: CC-PVTZ
  Basis Set:
  @DF-RHF Final Energy:  -309.17389206842967
    Total Energy =                       -309.1738920684300069
  @DF-RHF Final Energy:  -309.17388516529985
    Total Energy =                       -309.1738851652997937
  Basis Set: CC-PVTZ
  Basis Set:
  @DF-RHF Final Energy:  -309.17389825398402
    Total Energy =                       -309.1738982539841913
  Basis Set: CC-PVTZ
  Basis Set:
  Basis Set: CC-PVTZ
  Basis Set:
  @DF-RHF Final Energy:  -309.17387895907461
    Total Energy =                       -309.1738789590741021
  Basis Set: CC-PVTZ
  Basis Set:
  Basis Set: CC-PVTZ
  Basis Set:
  @DF-RHF Final Energy:  -309.17389932504466
    Total Energy =                       -309.1738993250445446
  Basis Set: CC-PVTZ
  Basis Set:
  Charge       = 0
  Multiplicity = 1
  Basis Set: CC-PVTZ
  Basis Set:

    Orbital Energies (a.u.)
    -----------------------

    Doubly Occupied:

       1A    -20.537548     2A    -11.317720     3A    -11.245829
       4A    -11.224717     5A    -11.222649     6A    -11.222417
       7A    -11.205841     8A     -1.398532     9A     -1.110791
      10A     -1.002545    11A     -0.948055    12A     -0.935678
      13A     -0.835977    14A     -0.705398    15A     -0.666814
      16A     -0.633563    17A     -0.620411    18A     -0.600998
      19A     -0.594757    20A     -0.566039    21A     -0.545972
      22A     -0.544365    23A     -0.523246    24A     -0.514320
      25A     -0.501354    26A     -0.472297    27A     -0.469655
      28A     -0.395156

  @DF-RHF Final Energy:  -309.17390000646594

   => Energetics <=

    Nuclear Repulsion Energy =            326.8125535717355206
    One-Electron Energy =               -1066.8476161141934426
    Two-Electron Energy =                 430.8611625359919799
    DFT Exchange-Correlation Energy =       0.0000000000000000
    Empirical Dispersion Energy =           0.0000000000000000
    PCM Polarization Energy =               0.0000000000000000
    EFP Energy =                            0.0000000000000000
    Total Energy =                       -309.1739000064659422
    Molecular point group: c1
  Basis Set: CC-PVTZ
  Basis Set:

  -Total Gradient:
     Atom            X                  Y                   Z
    ------   -----------------  -----------------  -----------------
       1       -0.000324450288     0.001205901914     0.000318997244
       2        0.000455637409    -0.001544107012    -0.000678936917
       3        0.000081264761    -0.000291053042     0.001015679549
       4        0.000015171169     0.000089683699     0.000042547505
       5       -0.000164661127     0.000608929203    -0.000663817668
       6       -0.000018580806    -0.000011362055     0.000001305820
       7        0.000006094321     0.000004894150    -0.000014941477
       8       -0.000013594683    -0.000002433624     0.000008441901
       9        0.000002105885    -0.000006617020    -0.000001045452
      10       -0.000003188728     0.000005856753     0.000004881092
      11       -0.000010075271    -0.000000497267     0.000000349787
      12        0.000008968715    -0.000000611299     0.000002320280
      13        0.000004122548    -0.000000911525     0.000003158988
      14       -0.000014498708    -0.000008281824     0.000004668991
      15       -0.000002299183    -0.000003405926    -0.000000185002
      16       -0.000002581175     0.000003914562    -0.000005402657
      17       -0.000005707239    -0.000016073270    -0.000041586494
      18       -0.000016504214    -0.000011607329     0.000002563980
      19        0.000002776614    -0.000022219088     0.000001000530

  **** Optimization is complete! (in 10 steps) ****
    Final optimized geometry and variables:
    Molecular point group: c1

    Geometry (in Angstrom), charge = 0, multiplicity = 1:

    O            1.553475280318     0.109589692111     1.007115579222
    C            0.881366360740     0.196128780000     0.031111596096
    C           -0.608852037844    -0.172337794834     0.052420934859
    C            1.493104741770     0.728611652185    -1.250817023893
    C           -0.877118473541    -1.311562202006    -0.945724144337
    C           -1.436651187134     1.062083189152    -0.342754472953
    C           -1.001460485950    -0.625037867386     1.459585301026
    H           -0.708332278350    -1.010821356762    -1.971315111768
    H           -1.910098398243    -1.628466721622    -0.865549384173
    H           -0.251486624490    -2.172468652054    -0.737454267050
    H           -1.228244824492     1.386414070451    -1.354748743330
    H           -2.492965920940     0.827958340850    -0.285048482091
    H           -1.245042739344     1.893904994442     0.325928923665
    H           -2.055557208417    -0.877859725581     1.482920437686
    H           -0.434439170433    -1.494106944303     1.764656602359
    H           -0.819938455696     0.153775822537     2.187590070150
    H            1.230815647551     1.775213038432    -1.358286269568
    H            2.567018506151     0.650356063206    -1.178473161663
    H            1.144445118065     0.210826499247    -2.132557189546

  Mulliken Charges: (a.u.)
   Center  Symbol    Alpha    Beta     Spin     Total
       1     O     4.17382  4.17382  0.00000 -0.34764
       2     C     2.85457  2.85457  0.00000  0.29085
       3     C     3.00736  3.00736  0.00000 -0.01472
       4     C     3.16207  3.16207  0.00000 -0.32414
       5     C     3.16285  3.16285  0.00000 -0.32570
       6     C     3.16323  3.16323  0.00000 -0.32646
       7     C     3.14920  3.14920  0.00000 -0.29840
       8     H     0.44591  0.44591  0.00000  0.10818
       9     H     0.44395  0.44395  0.00000  0.11210
      10     H     0.44232  0.44232  0.00000  0.11535
      11     H     0.44638  0.44638  0.00000  0.10724
      12     H     0.44334  0.44334  0.00000  0.11333
      13     H     0.44222  0.44222  0.00000  0.11555
      14     H     0.45223  0.45223  0.00000  0.09553
      15     H     0.44321  0.44321  0.00000  0.11358
      16     H     0.44304  0.44304  0.00000  0.11391
      17     H     0.44587  0.44587  0.00000  0.10825
      18     H     0.43183  0.43183  0.00000  0.13635
      19     H     0.44657  0.44657  0.00000  0.10685

   Total alpha = 28.00000, Total beta = 28.00000, Total charge = -0.00000
