  ==> Input File <==

--------------------------------------------------------------------------
set {
	reference rhf
	basis cc-pvtz
}

set_num_threads( 4 )
memory 2 gb

molecule MOL {
0 1

H	 -3.034039	 -0.667848	 0.004703
O	 -2.240597	 -1.171748	 0.000934
C	 -1.159675	 -0.364500	 0.000370
C	 -0.330745	 -0.238197	 -1.095686
C	 -0.900080	 0.349527	 1.160038
H	 -0.528988	 -0.792286	 -1.994988
C	 0.761147	 0.609135	 -1.018061
H	 -1.562661	 0.227014	 1.994851
C	 0.187832	 1.195826	 1.234888
H	 1.410081	 0.707748	 -1.867727
C	 1.024793	 1.320705	 0.130402
C	 0.456700	 1.990468	 2.487844
H	 1.877403	 1.971510	 0.174786
H	 1.510239	 1.976828	 2.738227
H	 -0.096362	 1.597485	 3.330122
H	 0.165829	 3.026703	 2.352737

	symmetry c1
}
set optking {
	frozen_dihedral = ("
		5 3 2 1
	")
}

ee = optimize('scf')
oeprop('DIPOLE', 'QUADRUPOLE', 'MULLIKEN_CHARGES')
f=open( 'psi4out.xyz', 'w' )
f.write( "16  " )
f.write( str(ee) + "\n" )
f.write( MOL.save_string_xyz() )
f.close()
--------------------------------------------------------------------------

    Molecular point group: c1
  Charge       = 0
  Multiplicity = 1
  Basis Set: CC-PVTZ
  Basis Set:
  @DF-RHF Final Energy:  -344.71547961002068
    Total Energy =                       -344.7154796100204521
    Molecular point group: c1
  Basis Set: CC-PVTZ
  Basis Set:
  Basis Set: CC-PVTZ
  Basis Set:
  @DF-RHF Final Energy:  -344.71664098222300
    Total Energy =                       -344.7166409822230548
  Basis Set: CC-PVTZ
  Basis Set:
  Basis Set: CC-PVTZ
  Basis Set:
  @DF-RHF Final Energy:  -344.71671459616573
    Total Energy =                       -344.7167145961657297
  Basis Set: CC-PVTZ
  Basis Set:
  Basis Set: CC-PVTZ
  Basis Set:
  @DF-RHF Final Energy:  -344.71672248989455
    Total Energy =                       -344.7167224898946642
  Basis Set: CC-PVTZ
  Basis Set:
  Basis Set: CC-PVTZ
  Basis Set:
  @DF-RHF Final Energy:  -344.71672414769137
    Total Energy =                       -344.7167241476913659
  Basis Set: CC-PVTZ
  Basis Set:
  Charge       = 0
  Multiplicity = 1
  Basis Set: CC-PVTZ
  Basis Set:

    Orbital Energies (a.u.)
    -----------------------

    Doubly Occupied:

       1A    -20.570644     2A    -11.287359     3A    -11.240936
       4A    -11.230746     5A    -11.221401     6A    -11.219589
       7A    -11.218343     8A    -11.217888     9A     -1.397730
      10A     -1.155000    11A     -1.047155    12A     -1.007114
      13A     -0.939784    14A     -0.835112    15A     -0.806508
      16A     -0.724678    17A     -0.680415    18A     -0.656877
      19A     -0.621025    20A     -0.593862    21A     -0.578744
      22A     -0.570021    23A     -0.553988    24A     -0.518864
      25A     -0.505221    26A     -0.485107    27A     -0.467748
      28A     -0.334046    29A     -0.320993

  @DF-RHF Final Energy:  -344.71672472119110

   => Energetics <=

    Nuclear Repulsion Energy =            345.8844575966611501
    One-Electron Energy =               -1153.1885597215809867
    Two-Electron Energy =                 462.5873774037287376
    DFT Exchange-Correlation Energy =       0.0000000000000000
    Empirical Dispersion Energy =           0.0000000000000000
    PCM Polarization Energy =               0.0000000000000000
    EFP Energy =                            0.0000000000000000
    Total Energy =                       -344.7167247211910990
    Molecular point group: c1
  Basis Set: CC-PVTZ
  Basis Set:

  -Total Gradient:
     Atom            X                  Y                   Z
    ------   -----------------  -----------------  -----------------
       1        0.000030355594     0.000080910811    -0.001692421198
       2        0.000255834211    -0.000624887073     0.002311305682
       3       -0.000985887329     0.001449917477    -0.001080771534
       4        0.000007102380     0.000000384259    -0.000001829148
       5        0.000682979059    -0.000937492711     0.000453352582
       6       -0.000013119428    -0.000009040387     0.000004875797
       7       -0.000023723717     0.000001097267     0.000011202761
       8        0.000024587426     0.000004267346    -0.000025405624
       9        0.000027615784    -0.000000918580     0.000009252401
      10       -0.000002719330     0.000001426582     0.000002570665
      11       -0.000007814078     0.000010049105    -0.000003902981
      12        0.000000140299     0.000016283349    -0.000008257323
      13       -0.000007871228     0.000006032779     0.000013193522
      14        0.000002402740    -0.000012609960     0.000005891088
      15       -0.000006404838     0.000008343331     0.000002351213
      16        0.000016522453     0.000006236403    -0.000001407902

  **** Optimization is complete! (in 6 steps) ****
    Final optimized geometry and variables:
    Molecular point group: c1

    Geometry (in Angstrom), charge = 0, multiplicity = 1:

    H           -2.714653749186    -1.173075735916    -0.418201157455
    O           -1.901330062257    -1.645832860171    -0.431065155197
    C           -0.843654254916    -0.783179122671    -0.378365380109
    C           -0.012232797611    -0.673058639572    -1.471571947503
    C           -0.574319932126    -0.078511771367     0.782063915625
    H           -0.226545820510    -1.239009873276    -2.356557915282
    C            1.088923202722     0.160355614388    -1.395178891436
    H           -1.224065024962    -0.205845740902     1.627647800363
    C            0.520078075582     0.764716118708     0.859086408862
    H            1.744149922963     0.249934297731    -2.240867527330
    C            1.353245999630     0.875821797112    -0.246052863228
    C            0.799870270803     1.554801690613     2.112969532296
    H            2.213157853984     1.517749670898    -0.202982680308
    H            1.854544277001     1.535956254749     2.357973363570
    H            0.251109807466     1.160144516974     2.957594024578
    H            0.512130990253     2.593020112189     1.985801096823

  Mulliken Charges: (a.u.)
   Center  Symbol    Alpha    Beta     Spin     Total
       1     H     0.38758  0.38758  0.00000  0.22483
       2     O     4.19051  4.19051  0.00000 -0.38102
       3     C     2.85588  2.85588  0.00000  0.28824
       4     C     3.12201  3.12201  0.00000 -0.24402
       5     C     3.14945  3.14945  0.00000 -0.29890
       6     H     0.41676  0.41676  0.00000  0.16648
       7     C     3.05824  3.05824  0.00000 -0.11649
       8     H     0.42247  0.42247  0.00000  0.15505
       9     C     2.94599  2.94599  0.00000  0.10803
      10     H     0.42233  0.42233  0.00000  0.15534
      11     C     3.10933  3.10933  0.00000 -0.21866
      12     C     3.14625  3.14625  0.00000 -0.29250
      13     H     0.42707  0.42707  0.00000  0.14587
      14     H     0.44780  0.44780  0.00000  0.10440
      15     H     0.45100  0.45100  0.00000  0.09800
      16     H     0.44733  0.44733  0.00000  0.10535

   Total alpha = 29.00000, Total beta = 29.00000, Total charge = -0.00000
