  ==> Input File <==

--------------------------------------------------------------------------
set {
	reference rhf
	basis 6-31G*
}

set_num_threads( 1 )
memory 2 gb

molecule MOL {
0 1

H	 -1.836216	 1.387520	 -0.000064
C	 -1.301823	 0.443321	 -0.000031
O	 -0.003969	 0.658512	 0.000451
O	 -1.829879	 -0.616434	 -0.000857
C	 0.484567	 1.724316	 -0.813540
C	 1.987796	 1.771855	 -0.645129
H	 0.015619	 2.646453	 -0.498787
H	 0.200755	 1.537779	 -1.840160
H	 2.253552	 1.951468	 0.390316
H	 2.400705	 2.572581	 -1.249760
H	 2.439742	 0.837483	 -0.957510

	symmetry c1
}
set optking {
	frozen_dihedral = ("
		7 5 3 2
	")
}

ee = energy('scf')
oeprop('DIPOLE', 'QUADRUPOLE', 'MULLIKEN_CHARGES')
f=open( 'psi4out.xyz', 'w' )
f.write( "11  " )
f.write( str(ee) + "\n" )
f.write( MOL.save_string_xyz() )
f.close()
--------------------------------------------------------------------------

    Molecular point group: c1

    Geometry (in Angstrom), charge = 0, multiplicity = 1:

       Center              X                  Y                   Z               Mass
    ------------   -----------------  -----------------  -----------------  -----------------
           H         -1.704271177357     0.591081044010     0.293025187041     1.007825032070
           C         -1.169878177357    -0.353117955990     0.293058187041    12.000000000000
           O          0.127975822643    -0.137926955990     0.293540187041    15.994914619560
           O         -1.697934177357    -1.412872955990     0.292232187041    15.994914619560
           C          0.616511822643     0.927877044010    -0.520450812959    12.000000000000
           C          2.119740822643     0.975416044010    -0.352039812959    12.000000000000
           H          0.147563822643     1.850014044010    -0.205697812959     1.007825032070
           H          0.332699822643     0.741340044010    -1.547070812959     1.007825032070
           H          2.385496822643     1.155029044010     0.683405187041     1.007825032070
           H          2.532649822643     1.776142044010    -0.956670812959     1.007825032070
           H          2.571686822643     0.041044044010    -0.664420812959     1.007825032070

  Charge       = 0
  Multiplicity = 1
  Basis Set: 6-31G*
  Basis Set:

    Orbital Energies (a.u.)
    -----------------------

    Doubly Occupied:

       1A    -20.606363     2A    -20.560677     3A    -11.379536
       4A    -11.308917     5A    -11.234999     6A     -1.471695
       7A     -1.379288     8A     -1.057130     9A     -0.890630
      10A     -0.846604    11A     -0.739225    12A     -0.692987
      13A     -0.664805    14A     -0.615413    15A     -0.568331
      16A     -0.558104    17A     -0.535575    18A     -0.515133
      19A     -0.461339    20A     -0.450451

  @DF-RHF Final Energy:  -266.81438052164651

   => Energetics <=

    Nuclear Repulsion Energy =            176.3459779998788974
    One-Electron Energy =                -713.2463180211982490
    Two-Electron Energy =                 270.0859594996734359
    DFT Exchange-Correlation Energy =       0.0000000000000000
    Empirical Dispersion Energy =           0.0000000000000000
    PCM Polarization Energy =               0.0000000000000000
    EFP Energy =                            0.0000000000000000
    Total Energy =                       -266.8143805216459441

  Mulliken Charges: (a.u.)
   Center  Symbol    Alpha    Beta     Spin     Total
       1     H     0.43595  0.43595  0.00000  0.12809
       2     C     2.72031  2.72031  0.00000  0.55939
       3     O     4.28840  4.28840  0.00000 -0.57681
       4     O     4.24429  4.24429  0.00000 -0.48859
       5     C     3.00963  3.00963  0.00000 -0.01926
       6     C     3.24741  3.24741  0.00000 -0.49482
       7     H     0.41687  0.41687  0.00000  0.16625
       8     H     0.41108  0.41108  0.00000  0.17785
       9     H     0.40686  0.40686  0.00000  0.18628
      10     H     0.41529  0.41529  0.00000  0.16942
      11     H     0.40391  0.40391  0.00000  0.19219

   Total alpha = 20.00000, Total beta = 20.00000, Total charge = -0.00000
