  ==> Input File <==

--------------------------------------------------------------------------
set {
	reference rhf
	basis 6-31G*
}

set_num_threads( 4 )
memory 2 gb

molecule MOL {
0 1

H	 -1.748661	 -2.220942	 -0.005015
C	 -1.343207	 -1.225221	 -0.013879
N	 -0.055091	 -1.100174	 -0.261126
C	 -2.150779	 -0.125890	 0.222726
C	 0.449969	 0.122615	 -0.277109
H	 -3.200618	 -0.238980	 0.422496
N	 -1.660212	 1.097703	 0.209594
C	 -0.371804	 1.219904	 -0.038265
C	 1.928147	 0.267347	 -0.541394
H	 0.029131	 2.217482	 -0.051283
C	 2.480123	 -0.864816	 -1.414058
H	 2.093979	 1.218202	 -1.036610
H	 2.463289	 0.299542	 0.402407
H	 3.537709	 -0.715786	 -1.607187
H	 1.962037	 -0.899204	 -2.365312
H	 2.359715	 -1.827782	 -0.927737

	symmetry c1
}
set optking {
	frozen_dihedral = ("
		12 9 5 3
	")
}

ee = optimize('scf')
oeprop('DIPOLE', 'QUADRUPOLE', 'MULLIKEN_CHARGES')
f=open( 'psi4out.xyz', 'w' )
f.write( "16  " )
f.write( str(ee) + "\n" )
f.write( MOL.save_string_xyz() )
f.close()
--------------------------------------------------------------------------

    Molecular point group: c1
  Charge       = 0
  Multiplicity = 1
  Basis Set: 6-31G*
  Basis Set:
  @DF-RHF Final Energy:  -340.75693106435097
    Total Energy =                       -340.7569310643509652
    Molecular point group: c1
  Basis Set: 6-31G*
  Basis Set:
  Basis Set: 6-31G*
  Basis Set:
  @DF-RHF Final Energy:  -340.75728058704647
    Total Energy =                       -340.7572805870462389
  Basis Set: 6-31G*
  Basis Set:
  Basis Set: 6-31G*
  Basis Set:
  @DF-RHF Final Energy:  -340.75736830630774
    Total Energy =                       -340.7573683063079102
  Basis Set: 6-31G*
  Basis Set:
  Basis Set: 6-31G*
  Basis Set:
  @DF-RHF Final Energy:  -340.75737975581887
    Total Energy =                       -340.7573797558189881
  Basis Set: 6-31G*
  Basis Set:
  Basis Set: 6-31G*
  Basis Set:
  @DF-RHF Final Energy:  -340.75738501244547
    Total Energy =                       -340.7573850124455248
  Basis Set: 6-31G*
  Basis Set:
  Charge       = 0
  Multiplicity = 1
  Basis Set: 6-31G*
  Basis Set:

    Orbital Energies (a.u.)
    -----------------------

    Doubly Occupied:

       1A    -15.586720     2A    -15.581823     3A    -11.282837
       4A    -11.275459     5A    -11.272500     6A    -11.271057
       7A    -11.234428     8A    -11.212651     9A     -1.313360
      10A     -1.221972    11A     -1.083270    12A     -1.013428
      13A     -0.909408    14A     -0.889033    15A     -0.824489
      16A     -0.717663    17A     -0.706121    18A     -0.657897
      19A     -0.625012    20A     -0.602803    21A     -0.568148
      22A     -0.559322    23A     -0.521171    24A     -0.503162
      25A     -0.500779    26A     -0.484623    27A     -0.429994
      28A     -0.394501    29A     -0.344500

  @DF-RHF Final Energy:  -340.75738595397212

   => Energetics <=

    Nuclear Repulsion Energy =            349.6838934748954557
    One-Electron Energy =               -1153.7062987310282551
    Two-Electron Energy =                 463.2650193021607947
    DFT Exchange-Correlation Energy =       0.0000000000000000
    Empirical Dispersion Energy =           0.0000000000000000
    PCM Polarization Energy =               0.0000000000000000
    EFP Energy =                            0.0000000000000000
    Total Energy =                       -340.7573859539719479
    Molecular point group: c1
  Basis Set: 6-31G*
  Basis Set:

  -Total Gradient:
     Atom            X                  Y                   Z
    ------   -----------------  -----------------  -----------------
       1       -0.000012364219     0.000004357645     0.000004447267
       2        0.000000385111    -0.000038132442     0.000030197841
       3       -0.000102312062     0.000042127828    -0.000485389663
       4        0.000009444117     0.000051639096    -0.000084536997
       5        0.000113822061    -0.000052014457     0.000436117809
       6        0.000013025391    -0.000012919723     0.000043975861
       7       -0.000037320171    -0.000021318060    -0.000009310350
       8        0.000024121358    -0.000009035502     0.000078587249
       9        0.000049306230     0.000239677814     0.000469531246
      10       -0.000014704637    -0.000015277225     0.000005576537
      11       -0.000020111135     0.000108267863     0.000018777037
      12       -0.000065765080    -0.000246961734    -0.000518461172
      13        0.000040907248     0.000020194746     0.000014430692
      14       -0.000009025363    -0.000030370620    -0.000021420733
      15       -0.000000642667    -0.000010534052    -0.000009381644
      16        0.000011233822    -0.000029701179     0.000026859020

  **** Optimization is complete! (in 6 steps) ****
    Final optimized geometry and variables:
    Molecular point group: c1

    Geometry (in Angstrom), charge = 0, multiplicity = 1:

    H           -1.748884757984    -2.119199504994     0.276606871538
    C           -1.330247257887    -1.129020243258     0.270865833809
    N           -0.040006746314    -1.021562716420     0.004008140838
    C           -2.114488633358    -0.023778449694     0.530172688196
    C            0.484083546423     0.187799759111    -0.007397647764
    H           -3.162421668063    -0.120483829477     0.747097223331
    N           -1.603303151882     1.195798792868     0.517811741456
    C           -0.321642048552     1.298921488301     0.250744807662
    C            1.963564236014     0.347727951949    -0.281122719251
    H            0.095359088617     2.290415297655     0.234852905367
    C            2.567723803554    -0.768743627043    -1.130717943142
    H            2.124936255700     1.305765880747    -0.766665370289
    H            2.485376237008     0.399789682480     0.672354579210
    H            3.621485038901    -0.574964931770    -1.303105579490
    H            2.074242530384    -0.836229559733    -2.094422476831
    H            2.471077228133    -1.728987243521    -0.641842872745

  Mulliken Charges: (a.u.)
   Center  Symbol    Alpha    Beta     Spin     Total
       1     H     0.39396  0.39396  0.00000  0.21208
       2     C     2.98901  2.98901  0.00000  0.02198
       3     N     3.75865  3.75865  0.00000 -0.51730
       4     C     2.99935  2.99935  0.00000  0.00130
       5     C     2.86995  2.86995  0.00000  0.26011
       6     H     0.39423  0.39423  0.00000  0.21155
       7     N     3.72920  3.72920  0.00000 -0.45840
       8     C     2.99732  2.99732  0.00000  0.00537
       9     C     3.17318  3.17318  0.00000 -0.34636
      10     H     0.39508  0.39508  0.00000  0.20984
      11     C     3.23744  3.23744  0.00000 -0.47488
      12     H     0.41324  0.41324  0.00000  0.17352
      13     H     0.40674  0.40674  0.00000  0.18651
      14     H     0.41977  0.41977  0.00000  0.16046
      15     H     0.41696  0.41696  0.00000  0.16608
      16     H     0.40593  0.40593  0.00000  0.18814

   Total alpha = 29.00000, Total beta = 29.00000, Total charge = -0.00000
