                              Psi4 1.0.54 Driver

  ==> Input File <==

--------------------------------------------------------------------------
set {
	reference rhf
	basis cc-pvtz
}

set_num_threads( 4 )
memory 2 gb

molecule MOL {
0 1

H	 0.930443	 -1.758876	 -0.842373
C	 0.257302	 -0.924106	 -1.046059
N	 -0.537714	 -0.645117	 0.000000
O	 0.262566	 -0.355300	 -2.091597
C	 -1.522613	 0.412524	 0.000000
H	 -0.434061	 -1.202358	 0.811617
H	 -2.150256	 0.356137	 -0.880771
H	 -1.005621	 1.357208	 0.000000
H	 -2.150256	 0.356137	 0.880771

	symmetry c1
}
set optking {
	frozen_dihedral = ("
		6 3 5 7
	")
}

ee,wfn = optimize('scf', return_wfn=True)
oeprop( wfn, 'DIPOLE', 'QUADRUPOLE', 'MULLIKEN_CHARGES')
f=open( 'psi4out.xyz', 'w' )
f.write( "9  " )
f.write( str(ee) + "\n" )
f.write( MOL.save_string_xyz() )
f.close()
--------------------------------------------------------------------------

    Molecular point group: c1
  Charge       = 0
  Multiplicity = 1
  Basis Set: CC-PVTZ
  Basis Set:
  @DF-RHF Final Energy:  -208.04296726511535
    Total Energy =                       -208.0429672651153510
    Molecular point group: c1
  Basis Set: CC-PVTZ
  Basis Set:
  Basis Set: CC-PVTZ
  Basis Set:
  @DF-RHF Final Energy:  -208.02140014774375
    Total Energy =                       -208.0214001477438899
  Basis Set: CC-PVTZ
  Basis Set:
  Basis Set: CC-PVTZ
  Basis Set:
  @DF-RHF Final Energy:  -208.04346403484556
    Total Energy =                       -208.0434640348456128
  Basis Set: CC-PVTZ
  Basis Set:
  Basis Set: CC-PVTZ
  Basis Set:
  @DF-RHF Final Energy:  -208.04365802269149
    Total Energy =                       -208.0436580226914600
  Basis Set: CC-PVTZ
  Basis Set:
  @DF-RHF Final Energy:  -208.04366116053052
    Total Energy =                       -208.0436611605305757
  Basis Set: CC-PVTZ
  Basis Set:
  @DF-RHF Final Energy:  -208.04365827773768
    Total Energy =                       -208.0436582777375918
  Basis Set: CC-PVTZ
  Basis Set:
  Basis Set: CC-PVTZ
  Basis Set:
  @DF-RHF Final Energy:  -208.04366832408488
    Total Energy =                       -208.0436683240847628
  Basis Set: CC-PVTZ
  Basis Set:
  Basis Set: CC-PVTZ
  Basis Set:
  @DF-RHF Final Energy:  -208.04366960821312
    Total Energy =                       -208.0436696082131505
  Basis Set: CC-PVTZ
  Basis Set:
  Charge       = 0
  Multiplicity = 1
  Basis Set: CC-PVTZ
  Basis Set:

    Orbital Energies (a.u.)
    -----------------------

    Doubly Occupied:

       1A    -20.516631     2A    -15.584378     3A    -11.335976
       4A    -11.260522     5A     -1.393968     6A     -1.239341
       7A     -0.969787     8A     -0.809263     9A     -0.749154
      10A     -0.645819    11A     -0.629972    12A     -0.596148
      13A     -0.559532    14A     -0.536977    15A     -0.428251
      16A     -0.396763

  @DF-RHF Final Energy:  -208.04367001344224

   => Energetics <=

    Nuclear Repulsion Energy =            122.9381992463195274
    One-Electron Energy =                -526.6587764231617257
    Two-Electron Energy =                 195.6769071633998749
    DFT Exchange-Correlation Energy =       0.0000000000000000
    Empirical Dispersion Energy =           0.0000000000000000
    PCM Polarization Energy =               0.0000000000000000
    EFP Energy =                            0.0000000000000000
    Total Energy =                       -208.0436700134423234
    Molecular point group: c1
  Basis Set: CC-PVTZ
  Basis Set:

  -Total Gradient:
     Atom            X                  Y                   Z
    ------   -----------------  -----------------  -----------------
       1       -0.000003188531     0.000002444753    -0.000007360638
       2       -0.000027879226     0.000004175063     0.000049334221
       3        0.000069529825    -0.000010248517     0.000018970861
       4        0.000000095393     0.000004110946    -0.000015609025
       5       -0.000003645018     0.000056137397    -0.000025168849
       6       -0.000029394204    -0.000020267785    -0.000027733520
       7       -0.000015537524    -0.000026668536     0.000016816854
       8       -0.000002928831    -0.000004523895    -0.000003312169
       9        0.000012948118    -0.000005159425    -0.000005937735

  **** Optimization is complete! (in 9 steps) ****
    Final optimized geometry and variables:
    Molecular point group: c1

    Geometry (in Angstrom), charge = 0, multiplicity = 1:

    H            1.431924718835    -1.290431844632    -0.101690144271
    C            0.728110604287    -0.468554084898    -0.245874092516
    N           -0.244567991361    -0.446352347778     0.677698729394
    O            0.835937716032     0.307736588078    -1.141902008895
    C           -1.270892558436     0.572318602294     0.691973797829
    H           -0.216526732552    -1.119074349970     1.402169519634
    H           -1.764596308012     0.624241491284    -0.267637658333
    H           -0.856950324459     1.547491385217     0.913789856684
    H           -1.999864455248     0.320039877420     1.448365675705

  Mulliken Charges: (a.u.)
   Center  Symbol    Alpha    Beta     Spin     Total
       1     H     0.46442  0.46442  0.00000  0.07116
       2     C     2.87951  2.87951  0.00000  0.24098
       3     N     3.60564  3.60564  0.00000 -0.21128
       4     O     4.21436  4.21436  0.00000 -0.42872
       5     C     3.07509  3.07509  0.00000 -0.15018
       6     H     0.41004  0.41004  0.00000  0.17992
       7     H     0.44525  0.44525  0.00000  0.10951
       8     H     0.45114  0.45114  0.00000  0.09772
       9     H     0.45456  0.45456  0.00000  0.09089

   Total alpha = 16.00000, Total beta = 16.00000, Total charge = -0.00000

*** Psi4 exiting successfully. Buy a developer a beer!
