  ==> Input File <==

--------------------------------------------------------------------------
set {
	reference rhf
	basis 6-31G*
}

set_num_threads( 4 )
memory 2 gb

molecule MOL {
0 1

O	 -2.515157	 -0.964164	 -0.088328
C	 -1.921153	 0.064240	 -0.045697
C	 -2.517588	 1.417483	 -0.323808
O	 -0.632575	 0.154573	 0.251549
H	 -1.995118	 1.885119	 -1.150421
H	 -3.565279	 1.309965	 -0.561755
H	 -2.397296	 2.055898	 0.543782
C	 0.160891	 -1.019931	 0.106212
C	 1.589627	 -0.672828	 0.480843
H	 0.089836	 -1.367806	 -0.916050
H	 -0.238459	 -1.792301	 0.749618
C	 2.246377	 0.346236	 -0.452210
H	 2.163194	 -1.597435	 0.473358
H	 1.604769	 -0.303424	 1.502885
C	 3.691736	 0.652107	 -0.061850
H	 2.219579	 -0.032311	 -1.472055
H	 1.666466	 1.263317	 -0.447249
H	 4.134505	 1.377213	 -0.737283
H	 4.305508	 -0.243868	 -0.089969
H	 3.748266	 1.059562	 0.943567

	symmetry c1
}
set optking {
	frozen_dihedral = ("
		1 2 4 8
	")
}

ee = optimize('scf')
oeprop('DIPOLE', 'QUADRUPOLE', 'MULLIKEN_CHARGES')
f=open( 'psi4out.xyz', 'w' )
f.write( "20  " )
f.write( str(ee) + "\n" )
f.write( MOL.save_string_xyz() )
f.close()
--------------------------------------------------------------------------

    Molecular point group: c1
  Charge       = 0
  Multiplicity = 1
  Basis Set: 6-31G*
  Basis Set:
  @DF-RHF Final Energy:  -383.94322717087243
    Total Energy =                       -383.9432271708727740
    Molecular point group: c1
  Basis Set: 6-31G*
  Basis Set:
  Basis Set: 6-31G*
  Basis Set:
  @DF-RHF Final Energy:  -383.93993655923475
    Total Energy =                       -383.9399365592345248
  Basis Set: 6-31G*
  Basis Set:
  Basis Set: 6-31G*
  Basis Set:
  @DF-RHF Final Energy:  -383.94349881308187
    Total Energy =                       -383.9434988130822148
  Basis Set: 6-31G*
  Basis Set:
  Basis Set: 6-31G*
  Basis Set:
  @DF-RHF Final Energy:  -383.94354061898116
    Total Energy =                       -383.9435406189809328
  Basis Set: 6-31G*
  Basis Set:
  Basis Set: 6-31G*
  Basis Set:
  @DF-RHF Final Energy:  -383.94354322821482
    Total Energy =                       -383.9435432282145939
  Basis Set: 6-31G*
  Basis Set:
  Basis Set: 6-31G*
  Basis Set:
  @DF-RHF Final Energy:  -383.94354519722680
    Total Energy =                       -383.9435451972268538
  Basis Set: 6-31G*
  Basis Set:
  Basis Set: 6-31G*
  Basis Set:
  @DF-RHF Final Energy:  -383.94354631884806
    Total Energy =                       -383.9435463188475524
  Basis Set: 6-31G*
  Basis Set:
  Charge       = 0
  Multiplicity = 1
  Basis Set: 6-31G*
  Basis Set:

    Orbital Energies (a.u.)
    -----------------------

    Doubly Occupied:

       1A    -20.599858     2A    -20.545264     3A    -11.374868
       4A    -11.283467     5A    -11.233587     6A    -11.225935
       7A    -11.221368     8A    -11.213977     9A     -1.466678
      10A     -1.362641    11A     -1.086206    12A     -1.028119
      13A     -0.982087    14A     -0.880568    15A     -0.811285
      16A     -0.776031    17A     -0.690496    18A     -0.682336
      19A     -0.665285    20A     -0.632741    21A     -0.602286
      22A     -0.593482    23A     -0.572046    24A     -0.555164
      25A     -0.544431    26A     -0.525705    27A     -0.514072
      28A     -0.482910    29A     -0.475817    30A     -0.475211
      31A     -0.447741    32A     -0.438272

  @DF-RHF Final Energy:  -383.94354648743189

   => Energetics <=

    Nuclear Repulsion Energy =            385.4259125619220754
    One-Electron Energy =               -1286.7590573765623958
    Two-Electron Energy =                 517.3895983272080912
    DFT Exchange-Correlation Energy =       0.0000000000000000
    Empirical Dispersion Energy =           0.0000000000000000
    PCM Polarization Energy =               0.0000000000000000
    EFP Energy =                            0.0000000000000000
    Total Energy =                       -383.9435464874321724
    Molecular point group: c1
  Basis Set: 6-31G*
  Basis Set:

  -Total Gradient:
     Atom            X                  Y                   Z
    ------   -----------------  -----------------  -----------------
       1       -0.002055207843     0.000427640893     0.006323667535
       2        0.003727306308     0.000056848937    -0.012024933958
       3       -0.000063472907    -0.000055240201     0.000228283832
       4       -0.002925303246    -0.001908383103     0.009994589365
       5        0.000019165861     0.000004365862     0.000004923917
       6       -0.000002486218     0.000021749058    -0.000001279070
       7       -0.000012505393    -0.000000994784    -0.000005905352
       8        0.001361891424     0.001487232552    -0.004579699894
       9        0.000001937933     0.000016143507    -0.000019418956
      10       -0.000011616519     0.000026226917     0.000060953840
      11       -0.000030332597    -0.000067857748     0.000016662747
      12        0.000004747863    -0.000030121536     0.000002132994
      13        0.000005142580    -0.000002872400     0.000004658948
      14       -0.000020303156    -0.000006901632    -0.000007765714
      15        0.000009077526     0.000014463720    -0.000003289338
      16        0.000000682810     0.000006102316     0.000002417168
      17       -0.000009421305     0.000012302611     0.000003462774
      18        0.000001367171     0.000000471595     0.000001291714
      19       -0.000000682105    -0.000000778054    -0.000001707554
      20        0.000000011811    -0.000000398506     0.000000955001

  **** Optimization is complete! (in 8 steps) ****
    Final optimized geometry and variables:
    Molecular point group: c1

    Geometry (in Angstrom), charge = 0, multiplicity = 1:

    O           -2.498417456429    -0.959849255229    -0.219735557951
    C           -1.910293320328     0.063254134139    -0.085001106334
    C           -2.506835790558     1.431372805721    -0.275357317323
    O           -0.647486482531     0.135148506637     0.319583264266
    H           -1.983682463958     1.950080051887    -1.070955495504
    H           -3.554468486068     1.341005692529    -0.520738782964
    H           -2.384485151299     2.013070591325     0.630800181095
    C            0.154639667313    -1.035462836169     0.187752672325
    C            1.584399013720    -0.670553984014     0.540800002044
    H            0.076247149786    -1.398929277081    -0.829301244885
    H           -0.228982372401    -1.802439519074     0.846492440341
    C            2.223224311135     0.339732550765    -0.413717907305
    H            2.165686589725    -1.590389842382     0.542362114415
    H            1.605968660818    -0.285432223663     1.556796955704
    C            3.669989391160     0.663160983603    -0.043002978878
    H            2.189699613955    -0.054450778064    -1.427558782002
    H            1.635798539246     1.252038455413    -0.416422026348
    H            4.100286757262     1.380657882609    -0.734446772040
    H            4.290696081936    -0.228270968422    -0.062640828963
    H            3.733091516602     1.087360874428     0.955028166737

  Mulliken Charges: (a.u.)
   Center  Symbol    Alpha    Beta     Spin     Total
       1     O     4.28054  4.28054  0.00000 -0.56107
       2     C     2.61899  2.61899  0.00000  0.76202
       3     C     3.28219  3.28219  0.00000 -0.56438
       4     O     4.30975  4.30975  0.00000 -0.61950
       5     H     0.40216  0.40216  0.00000  0.19567
       6     H     0.39702  0.39702  0.00000  0.20597
       7     H     0.39948  0.39948  0.00000  0.20104
       8     C     3.00274  3.00274  0.00000 -0.00548
       9     C     3.16474  3.16474  0.00000 -0.32949
      10     H     0.41395  0.41395  0.00000  0.17210
      11     H     0.40606  0.40606  0.00000  0.18789
      12     C     3.15515  3.15515  0.00000 -0.31030
      13     H     0.41820  0.41820  0.00000  0.16359
      14     H     0.41349  0.41349  0.00000  0.17302
      15     C     3.24036  3.24036  0.00000 -0.48073
      16     H     0.42359  0.42359  0.00000  0.15282
      17     H     0.41214  0.41214  0.00000  0.17571
      18     H     0.41763  0.41763  0.00000  0.16475
      19     H     0.42156  0.42156  0.00000  0.15688
      20     H     0.42026  0.42026  0.00000  0.15949

   Total alpha = 32.00000, Total beta = 32.00000, Total charge =  0.00000
