  ==> Input File <==

--------------------------------------------------------------------------
set {
	reference rhf
	basis cc-pvtz
}

set_num_threads( 4 )
memory 2 gb

molecule MOL {
0 1

H	 -1.587703	 2.321768	 -0.428877
C	 -1.234667	 2.189991	 0.585136
C	 0.080076	 1.426035	 0.610331
H	 -2.002809	 1.658819	 1.131056
H	 -1.109579	 3.168097	 1.034097
C	 0.000000	 0.039916	 0.000014
H	 0.444037	 1.316984	 1.628436
H	 0.855574	 1.974174	 0.082088
C	 1.286532	 -0.763243	 0.000268
O	 -1.010381	 -0.391099	 -0.451358
C	 2.547023	 0.087626	 -0.000114
H	 1.264245	 -1.421103	 -0.864380
H	 1.264290	 -1.420353	 0.865489
H	 2.584452	 0.725630	 -0.872909
H	 3.427035	 -0.544422	 0.000125
H	 2.584484	 0.726356	 0.872143

	symmetry c1
}
set optking {
	frozen_dihedral = ("
		3 6 9 12
	")
}

ee = optimize('scf')
oeprop('DIPOLE', 'QUADRUPOLE', 'MULLIKEN_CHARGES')
f=open( 'psi4out.xyz', 'w' )
f.write( "16  " )
f.write( str(ee) + "\n" )
f.write( MOL.save_string_xyz() )
f.close()
--------------------------------------------------------------------------

    Molecular point group: c1
  Charge       = 0
  Multiplicity = 1
  Basis Set: CC-PVTZ
  Basis Set:
  @DF-RHF Final Energy:  -270.12612026222894
    Total Energy =                       -270.1261202622284827
    Molecular point group: c1
  Basis Set: CC-PVTZ
  Basis Set:
  Basis Set: CC-PVTZ
  Basis Set:
  @DF-RHF Final Energy:  -270.12737836538133
    Total Energy =                       -270.1273783653813325
  Basis Set: CC-PVTZ
  Basis Set:
  Basis Set: CC-PVTZ
  Basis Set:
  @DF-RHF Final Energy:  -270.12747071389822
    Total Energy =                       -270.1274707138982762
  Basis Set: CC-PVTZ
  Basis Set:
  Basis Set: CC-PVTZ
  Basis Set:
  @DF-RHF Final Energy:  -270.12802115437944
    Total Energy =                       -270.1280211543794962
  Basis Set: CC-PVTZ
  Basis Set:
  Basis Set: CC-PVTZ
  Basis Set:
  @DF-RHF Final Energy:  -270.12807857994721
    Total Energy =                       -270.1280785799472142
  Basis Set: CC-PVTZ
  Basis Set:
  Charge       = 0
  Multiplicity = 1
  Basis Set: CC-PVTZ
  Basis Set:

    Orbital Energies (a.u.)
    -----------------------

    Doubly Occupied:

       1A    -20.535838     2A    -11.318046     3A    -11.232361
       4A    -11.231694     5A    -11.225804     6A    -11.211261
       7A     -1.397052     8A     -1.073357     9A     -1.036058
      10A     -0.908200    11A     -0.867312    12A     -0.723279
      13A     -0.658999    14A     -0.645912    15A     -0.633046
      16A     -0.610031    17A     -0.554727    18A     -0.543144
      19A     -0.537261    20A     -0.511441    21A     -0.507103
      22A     -0.501269    23A     -0.476926    24A     -0.398293

  @DF-RHF Final Energy:  -270.12807915631436

   => Energetics <=

    Nuclear Repulsion Energy =            240.9128392055303323
    One-Electron Energy =                -843.4050065939545675
    Two-Electron Energy =                 332.3640882321098502
    DFT Exchange-Correlation Energy =       0.0000000000000000
    Empirical Dispersion Energy =           0.0000000000000000
    PCM Polarization Energy =               0.0000000000000000
    EFP Energy =                            0.0000000000000000
    Total Energy =                       -270.1280791563144135
    Molecular point group: c1
  Basis Set: CC-PVTZ
  Basis Set:

  -Total Gradient:
     Atom            X                  Y                   Z
    ------   -----------------  -----------------  -----------------
       1        0.000008036399    -0.000002589659     0.000011580719
       2       -0.000019349084    -0.000023714222    -0.000010502419
       3        0.000320024634     0.000480552594    -0.001009282321
       4       -0.000015583041     0.000003733600     0.000004274091
       5        0.000017650480    -0.000008721785     0.000003342241
       6       -0.000314369850    -0.000340993918     0.001391810990
       7        0.000001913290     0.000026535471    -0.000013510261
       8        0.000014247123     0.000030135957    -0.000011128152
       9       -0.000846957447    -0.001303459857     0.000406709574
      10        0.000107785817    -0.000136538771     0.000011378475
      11        0.000031283486     0.000075128108     0.000084536803
      12        0.000682296685     0.001112479864    -0.000843175458
      13       -0.000020489249     0.000086546644    -0.000013814323
      14        0.000000898216     0.000000510194    -0.000028132099
      15       -0.000033194975    -0.000005119213    -0.000005382122
      16        0.000065807516     0.000005514991     0.000021294259

  **** Optimization is complete! (in 6 steps) ****
    Final optimized geometry and variables:
    Molecular point group: c1

    Geometry (in Angstrom), charge = 0, multiplicity = 1:

    H           -1.997923643133     1.816220330056    -0.502118935393
    C           -1.588952337615     1.718243301525     0.494168738257
    C           -0.230181679727     1.036070750413     0.461010446745
    H           -2.296302904184     1.148142854371     1.081669020053
    H           -1.501232899947     2.707073032833     0.928397750607
    C           -0.261757696728    -0.355715005484    -0.136844307865
    H            0.190877663885     0.962600423719     1.460266376553
    H            0.481255314156     1.625339716474    -0.109811964573
    C            1.010444230982    -1.190979919380    -0.123885537979
    O           -1.258534287073    -0.812668847854    -0.594836872042
    C            2.341592675389    -0.443704977162    -0.097153115313
    H            0.959392621063    -1.832476085890    -0.993353701941
    H            0.934356629579    -1.837053785049     0.746703727208
    H            2.450585303611     0.206148251653    -0.957951172235
    H            3.159159475804    -1.153355832564    -0.119712819249
    H            2.458376833995     0.159210537038     0.794500730009

  Mulliken Charges: (a.u.)
   Center  Symbol    Alpha    Beta     Spin     Total
       1     H     0.44681  0.44681  0.00000  0.10638
       2     C     3.14210  3.14210  0.00000 -0.28421
       3     C     3.10659  3.10659  0.00000 -0.21319
       4     H     0.44836  0.44836  0.00000  0.10328
       5     H     0.45095  0.45095  0.00000  0.09810
       6     C     2.87015  2.87015  0.00000  0.25970
       7     H     0.44356  0.44356  0.00000  0.11288
       8     H     0.44307  0.44307  0.00000  0.11386
       9     C     3.09091  3.09091  0.00000 -0.18181
      10     O     4.17570  4.17570  0.00000 -0.35140
      11     C     3.15922  3.15922  0.00000 -0.31844
      12     H     0.43641  0.43641  0.00000  0.12719
      13     H     0.44427  0.44427  0.00000  0.11147
      14     H     0.44937  0.44937  0.00000  0.10127
      15     H     0.44130  0.44130  0.00000  0.11741
      16     H     0.45123  0.45123  0.00000  0.09753

   Total alpha = 24.00000, Total beta = 24.00000, Total charge =  0.00000
