                              Psi4 1.0.54 Driver

  ==> Input File <==

--------------------------------------------------------------------------
set {
	reference rhf
	basis cc-pvtz
}

set_num_threads( 4 )
memory 2 gb

molecule MOL {
0 1

H	 -2.542443	 2.076436	 -1.861229
C	 -2.831993	 1.028208	 -1.705461
C	 -1.849609	 0.015202	 -2.227602
O	 -3.854584	 0.770179	 -1.171573
C	 -0.422122	 0.263198	 -1.731161
H	 -2.199166	 -0.973435	 -1.959755
H	 -1.869449	 0.094298	 -3.312339
C	 -0.247837	 0.040196	 -0.230469
H	 0.248561	 -0.394360	 -2.273509
H	 -0.123132	 1.276760	 -1.987070
C	 1.181757	 0.280428	 0.247371
H	 -0.544883	 -0.976236	 0.013942
H	 -0.923400	 0.690501	 0.319209
C	 2.151032	 -0.811012	 -0.202643
H	 1.515939	 1.247397	 -0.115449
H	 1.191514	 0.341223	 1.333422
C	 3.580021	 -0.656538	 0.320835
H	 2.170545	 -0.847575	 -1.289412
H	 1.766632	 -1.772905	 0.124928
C	 4.327657	 0.562694	 -0.213579
H	 4.138806	 -1.549270	 0.057813
H	 3.561991	 -0.620783	 1.406976
H	 4.355973	 0.557257	 -1.298551
H	 3.867136	 1.491650	 0.100501
H	 5.351524	 0.571613	 0.142204

	symmetry c1
}
set optking {
	frozen_dihedral = ("
		12 8 11 14
	")
}

ee,wfn = optimize('scf', return_wfn=True)
oeprop( wfn, 'DIPOLE', 'QUADRUPOLE', 'MULLIKEN_CHARGES')
f=open( 'psi4out.xyz', 'w' )
f.write( "25  " )
f.write( str(ee) + "\n" )
f.write( MOL.save_string_xyz() )
f.close()
--------------------------------------------------------------------------

    Molecular point group: c1
  Charge       = 0
  Multiplicity = 1
  Basis Set: CC-PVTZ
  Basis Set:
  @DF-RHF Final Energy:  -387.25812290831385
    Total Energy =                       -387.2581229083136805
    Molecular point group: c1
  Basis Set: CC-PVTZ
  Basis Set:
  Basis Set: CC-PVTZ
  Basis Set:
  @DF-RHF Final Energy:  -387.25791389056531
    Total Energy =                       -387.2579138905655327
  Basis Set: CC-PVTZ
  Basis Set:
  Basis Set: CC-PVTZ
  Basis Set:
  @DF-RHF Final Energy:  -387.25847744940904
    Total Energy =                       -387.2584774494093836
  Basis Set: CC-PVTZ
  Basis Set:
  Basis Set: CC-PVTZ
  Basis Set:
  @DF-RHF Final Energy:  -387.25824507252349
    Total Energy =                       -387.2582450725235503
  Basis Set: CC-PVTZ
  Basis Set:
  @DF-RHF Final Energy:  -387.25848728380885
    Total Energy =                       -387.2584872838086767
  Basis Set: CC-PVTZ
  Basis Set:
  @DF-RHF Final Energy:  -387.25849237280443
    Total Energy =                       -387.2584923728041986
  Basis Set: CC-PVTZ
  Basis Set:
  Basis Set: CC-PVTZ
  Basis Set:
  @DF-RHF Final Energy:  -387.25849998199106
    Total Energy =                       -387.2584999819910081
  Basis Set: CC-PVTZ
  Basis Set:
  Basis Set: CC-PVTZ
  Basis Set:
  @DF-RHF Final Energy:  -387.25850215427971
    Total Energy =                       -387.2585021542798813
  Basis Set: CC-PVTZ
  Basis Set:
  Charge       = 0
  Multiplicity = 1
  Basis Set: CC-PVTZ
  Basis Set:

    Orbital Energies (a.u.)
    -----------------------

    Doubly Occupied:

       1A    -20.551244     2A    -11.320829     3A    -11.233630
       4A    -11.232291     5A    -11.222166     6A    -11.218144
       7A    -11.217372     8A    -11.216396     9A    -11.209818
      10A     -1.406258    11A     -1.105546    12A     -1.070542
      13A     -1.014193    14A     -0.942031    15A     -0.881927
      16A     -0.823362    17A     -0.790483    18A     -0.776622
      19A     -0.668610    20A     -0.656268    21A     -0.635747
      22A     -0.624866    23A     -0.607599    24A     -0.599565
      25A     -0.581039    26A     -0.549932    27A     -0.535305
      28A     -0.526923    29A     -0.518922    30A     -0.502568
      31A     -0.486142    32A     -0.478475    33A     -0.461915
      34A     -0.453951    35A     -0.448954    36A     -0.411397

  @DF-RHF Final Energy:  -387.25850211096304

   => Energetics <=

    Nuclear Repulsion Energy =            443.2406620425597339
    One-Electron Energy =               -1403.0362635019505433
    Two-Electron Energy =                 572.5370993484281144
    DFT Exchange-Correlation Energy =       0.0000000000000000
    Empirical Dispersion Energy =           0.0000000000000000
    PCM Polarization Energy =               0.0000000000000000
    EFP Energy =                            0.0000000000000000
    Total Energy =                       -387.2585021109626950
    Molecular point group: c1
  Basis Set: CC-PVTZ
  Basis Set:

  -Total Gradient:
     Atom            X                  Y                   Z
    ------   -----------------  -----------------  -----------------
       1       -0.000011200844     0.000000065661     0.000000277691
       2        0.000008328645    -0.000032064989     0.000015532340
       3       -0.000016580820     0.000011887543    -0.000012382849
       4       -0.000008283619     0.000021564064     0.000005722952
       5        0.000017289703    -0.000048568803     0.000011648365
       6        0.000000101498     0.000003909404    -0.000003528986
       7        0.000008913107     0.000005576744     0.000000422750
       8       -0.000487935482     0.000447038619     0.001307695632
       9        0.000013045674    -0.000006342488    -0.000009912185
      10        0.000004591146     0.000001218195     0.000009306412
      11        0.000302566963     0.000341083971    -0.001130340745
      12        0.000346682295    -0.000419275645    -0.000860953189
      13       -0.000020483121     0.000009387110     0.000008206321
      14       -0.000147540652    -0.000329586802     0.000677164415
      15        0.000003584145     0.000020755618     0.000001148366
      16       -0.000005237791    -0.000008393414    -0.000007839390
      17        0.000006067792    -0.000015694459    -0.000013485735
      18        0.000004561800    -0.000013979069    -0.000002954607
      19       -0.000006831928    -0.000001341506     0.000007778790
      20       -0.000008215042     0.000006251728     0.000001957361
      21        0.000008925816     0.000000005273    -0.000010893116
      22       -0.000001185371    -0.000012993524     0.000006846479
      23        0.000003225072    -0.000003847738    -0.000003113075
      24       -0.000015046284     0.000016862400    -0.000002703716
      25        0.000000657290     0.000006482109     0.000004399720

  **** Optimization is complete! (in 9 steps) ****
    Final optimized geometry and variables:
    Molecular point group: c1

    Geometry (in Angstrom), charge = 0, multiplicity = 1:

    H           -2.709211709084     1.878022801680    -1.263665694256
    C           -3.046936356737     0.866967223419    -0.997868212736
    C           -2.134311753673    -0.243434714060    -1.443027051666
    O           -4.064761538470     0.717508858695    -0.415605808978
    C           -0.678894186249    -0.023020649977    -1.019214063649
    H           -2.522417590295    -1.180536091492    -1.065355337744
    H           -2.189627655857    -0.272844251500    -2.529050314398
    C           -0.471503849169    -0.098219780253     0.493980672447
    H           -0.066523509359    -0.764786315844    -1.516748489762
    H           -0.340701674354     0.943968608255    -1.384201342416
    C            0.970049245228     0.150850104505     0.944200447526
    H           -0.796156482029    -1.074553945897     0.843833624891
    H           -1.117581198216     0.627806882279     0.978470588419
    C            1.936972026211    -0.990598699634     0.626071271139
    H            1.323157657413     1.078151060422     0.503767178751
    H            0.969712829003     0.307325058560     2.019337509975
    C            3.343204626977    -0.807309336182     1.200422231780
    H            2.013806265009    -1.128708811662    -0.448760806217
    H            1.521271517679    -1.913074793216     1.022367980692
    C            4.131989217945     0.352753721541     0.597745768790
    H            3.900060222838    -1.725598477614     1.041629824571
    H            3.276048053304    -0.676699695888     2.277181416889
    H            4.209685535218     0.252465452813    -0.480267190476
    H            3.671129481072     1.310221052148     0.808534335413
    H            5.138632794316     0.381807951090     0.998643589636

  Mulliken Charges: (a.u.)
   Center  Symbol    Alpha    Beta     Spin     Total
       1     H     0.46400  0.46400  0.00000  0.07200
       2     C     2.90563  2.90563  0.00000  0.18875
       3     C     3.08703  3.08703  0.00000 -0.17406
       4     O     4.16616  4.16616  0.00000 -0.33231
       5     C     3.11730  3.11730  0.00000 -0.23460
       6     H     0.44262  0.44262  0.00000  0.11475
       7     H     0.44066  0.44066  0.00000  0.11869
       8     C     3.09991  3.09991  0.00000 -0.19982
       9     H     0.44114  0.44114  0.00000  0.11772
      10     H     0.45015  0.45015  0.00000  0.09969
      11     C     3.10197  3.10197  0.00000 -0.20393
      12     H     0.44920  0.44920  0.00000  0.10160
      13     H     0.44080  0.44080  0.00000  0.11839
      14     C     3.09557  3.09557  0.00000 -0.19115
      15     H     0.45163  0.45163  0.00000  0.09674
      16     H     0.44565  0.44565  0.00000  0.10871
      17     C     3.08943  3.08943  0.00000 -0.17886
      18     H     0.45395  0.45395  0.00000  0.09210
      19     H     0.44830  0.44830  0.00000  0.10339
      20     C     3.15307  3.15307  0.00000 -0.30614
      21     H     0.44794  0.44794  0.00000  0.10412
      22     H     0.45369  0.45369  0.00000  0.09263
      23     H     0.45516  0.45516  0.00000  0.08968
      24     H     0.45353  0.45353  0.00000  0.09293
      25     H     0.44551  0.44551  0.00000  0.10898

   Total alpha = 36.00000, Total beta = 36.00000, Total charge =  0.00000

*** Psi4 exiting successfully. Buy a developer a beer!
