                              Psi4 1.0.54 Driver

  ==> Input File <==

--------------------------------------------------------------------------
set {
	reference rhf
	basis cc-pvtz
}

set_num_threads( 4 )
memory 2 gb

molecule MOL {
0 1

O	 1.216069	 1.304886	 0.000821
C	 1.121787	 0.124983	 0.000110
C	 -0.170912	 -0.649867	 -0.000147
O	 2.167739	 -0.685178	 -0.000678
C	 -1.413045	 0.229353	 0.001137
H	 -0.152877	 -1.303435	 -0.866175
H	 -0.152278	 -1.305116	 0.864586
C	 -1.327734	 1.354408	 1.028406
H	 -2.285327	 -0.383391	 0.199151
H	 -1.557697	 0.646407	 -0.989159
C	 -2.568556	 2.240480	 1.039763
H	 -1.179479	 0.930495	 2.018133
H	 -0.451785	 1.964792	 0.824986
H	 -3.457412	 1.664822	 1.274580
H	 -2.480234	 3.029405	 1.777647
H	 -2.724384	 2.706723	 0.072853
C	 3.449556	 -0.089977	 -0.000570
H	 3.585694	 0.522473	 -0.879546
H	 4.155805	 -0.904274	 -0.001389
H	 3.586173	 0.521118	 0.879272

	symmetry c1
}
set optking {
	frozen_dihedral = ("
		9 5 3 6
	")
}

ee,wfn = optimize('scf', return_wfn=True)
oeprop( wfn, 'DIPOLE', 'QUADRUPOLE', 'MULLIKEN_CHARGES')
f=open( 'psi4out.xyz', 'w' )
f.write( "20  " )
f.write( str(ee) + "\n" )
f.write( MOL.save_string_xyz() )
f.close()
--------------------------------------------------------------------------

    Molecular point group: c1
  Charge       = 0
  Multiplicity = 1
  Basis Set: CC-PVTZ
  Basis Set:
  @DF-RHF Final Energy:  -384.07238039954251
    Total Energy =                       -384.0723803995429080
    Molecular point group: c1
  Basis Set: CC-PVTZ
  Basis Set:
  Basis Set: CC-PVTZ
  Basis Set:
  @DF-RHF Final Energy:  -384.07858835487093
    Total Energy =                       -384.0785883548708171
  Basis Set: CC-PVTZ
  Basis Set:
  Basis Set: CC-PVTZ
  Basis Set:
  @DF-RHF Final Energy:  -384.07955730158358
    Total Energy =                       -384.0795573015833497
  Basis Set: CC-PVTZ
  Basis Set:
  Basis Set: CC-PVTZ
  Basis Set:
  @DF-RHF Final Energy:  -384.07944856948103
    Total Energy =                       -384.0794485694807463
  Basis Set: CC-PVTZ
  Basis Set:
  @DF-RHF Final Energy:  -384.07952989540593
    Total Energy =                       -384.0795298954059263
  @DF-RHF Final Energy:  -384.08051031031334
    Total Energy =                       -384.0805103103134570
  @DF-RHF Final Energy:  -384.08073600398535
    Total Energy =                       -384.0807360039850664
  @DF-RHF Final Energy:  -384.08079250820549
    Total Energy =                       -384.0807925082051497
  Basis Set: CC-PVTZ
  Basis Set:
  @DF-RHF Final Energy:  -384.08081483037824
    Total Energy =                       -384.0808148303788130
  Basis Set: CC-PVTZ
  Basis Set:
  Basis Set: CC-PVTZ
  Basis Set:
  @DF-RHF Final Energy:  -384.08082517220066
    Total Energy =                       -384.0808251722004343
  Basis Set: CC-PVTZ
  Basis Set:
  Basis Set: CC-PVTZ
  Basis Set:
  @DF-RHF Final Energy:  -384.08082659256962
    Total Energy =                       -384.0808265925694513
  Basis Set: CC-PVTZ
  Basis Set:
  Charge       = 0
  Multiplicity = 1
  Basis Set: CC-PVTZ
  Basis Set:

    Orbital Energies (a.u.)
    -----------------------

    Doubly Occupied:

       1A    -20.598295     2A    -20.532325     3A    -11.364924
       4A    -11.278978     5A    -11.234297     6A    -11.220978
       7A    -11.212621     8A    -11.206286     9A     -1.473040
      10A     -1.365481    11A     -1.088219    12A     -1.022864
      13A     -0.970125    14A     -0.885912    15A     -0.807674
      16A     -0.768174    17A     -0.699748    18A     -0.683700
      19A     -0.674981    20A     -0.638635    21A     -0.604205
      22A     -0.589525    23A     -0.583047    24A     -0.539638
      25A     -0.537425    26A     -0.518956    27A     -0.513824
      28A     -0.478975    29A     -0.473213    30A     -0.464610
      31A     -0.458634    32A     -0.435701

  @DF-RHF Final Energy:  -384.08082673547966

   => Energetics <=

    Nuclear Repulsion Energy =            390.9936117199214891
    One-Electron Energy =               -1298.2988618660051543
    Two-Electron Energy =                 523.2244234106037766
    DFT Exchange-Correlation Energy =       0.0000000000000000
    Empirical Dispersion Energy =           0.0000000000000000
    PCM Polarization Energy =               0.0000000000000000
    EFP Energy =                            0.0000000000000000
    Total Energy =                       -384.0808267354798318
    Molecular point group: c1
  Basis Set: CC-PVTZ
  Basis Set:

  -Total Gradient:
     Atom            X                  Y                   Z
    ------   -----------------  -----------------  -----------------
       1        0.000011771058     0.000025912135    -0.000009061047
       2        0.000003370288    -0.000046888499     0.000024765001
       3       -0.003080831690    -0.004030306181     0.003807520920
       4       -0.000014590483     0.000017747612    -0.000017280209
       5        0.000117739627     0.000124212051    -0.006203030876
       6        0.002566450801     0.003350645948    -0.002281187452
       7       -0.000004388466    -0.000001837177    -0.000001602063
       8        0.000001664366    -0.000009037261    -0.000009735019
       9        0.000401247943     0.000557732545     0.004683453807
      10        0.000000683337    -0.000002350694     0.000000508985
      11       -0.000004433495     0.000007906483     0.000002025597
      12       -0.000000435104     0.000001614169     0.000000585895
      13        0.000003182914     0.000002043013     0.000000463766
      14        0.000001957422    -0.000000431022     0.000000300610
      15       -0.000000984224     0.000001535670    -0.000000078394
      16       -0.000000028444    -0.000000299071     0.000000191242
      17       -0.000012981281    -0.000000373282     0.000004837523
      18        0.000000475652     0.000000526257    -0.000013758102
      19        0.000011784936    -0.000009873257     0.000007323991
      20       -0.000001655150     0.000011520559     0.000003755826

  **** Optimization is complete! (in 12 steps) ****
    Final optimized geometry and variables:
    Molecular point group: c1

    Geometry (in Angstrom), charge = 0, multiplicity = 1:

    O            1.008045187390     0.624406864639    -0.970574308483
    C            0.816557482743    -0.390149618051    -0.389675725232
    C           -0.509696292780    -1.109242250559    -0.324165894960
    O            1.771384558601    -1.054679676426     0.237461055912
    C           -1.725586092724    -0.182837104290    -0.331021975392
    H           -0.512083186491    -1.718805336478    -1.223985684649
    H           -0.513031113232    -1.773682983207     0.527958093471
    C           -1.719962830481     0.870319145220     0.777986233118
    H           -2.603967121593    -0.803590329773    -0.181941507734
    H           -1.815822316550     0.300280144450    -1.295668338825
    C           -3.000536484413     1.698416384491     0.799096777376
    H           -1.596809954023     0.375966290065     1.738964934508
    H           -0.870532991042     1.529755878089     0.653154315280
    H           -3.872862666429     1.072774505261     0.957732075492
    H           -2.975087260628     2.437105328962     1.591733139341
    H           -3.138133317681     2.225513140593    -0.138951361555
    C            3.078628039588    -0.519359574287     0.180405592101
    H            3.419798948169    -0.455446888539    -0.842198776109
    H            3.702327777401    -1.197628889961     0.739691937803
    H            3.106630512985     0.464944682235     0.623446624247

  Mulliken Charges: (a.u.)
   Center  Symbol    Alpha    Beta     Spin     Total
       1     O     4.20442  4.20442  0.00000 -0.40883
       2     C     2.80064  2.80064  0.00000  0.39872
       3     C     3.10734  3.10734  0.00000 -0.21468
       4     O     4.14620  4.14620  0.00000 -0.29240
       5     C     3.08502  3.08502  0.00000 -0.17004
       6     H     0.43793  0.43793  0.00000  0.12415
       7     H     0.43553  0.43553  0.00000  0.12894
       8     C     3.09236  3.09236  0.00000 -0.18472
       9     H     0.44911  0.44911  0.00000  0.10178
      10     H     0.44587  0.44587  0.00000  0.10826
      11     C     3.15120  3.15120  0.00000 -0.30239
      12     H     0.45564  0.45564  0.00000  0.08872
      13     H     0.44199  0.44199  0.00000  0.11601
      14     H     0.45662  0.45662  0.00000  0.08677
      15     H     0.44794  0.44794  0.00000  0.10412
      16     H     0.45301  0.45301  0.00000  0.09398
      17     C     3.03564  3.03564  0.00000 -0.07129
      18     H     0.45435  0.45435  0.00000  0.09130
      19     H     0.44520  0.44520  0.00000  0.10960
      20     H     0.45400  0.45400  0.00000  0.09201

   Total alpha = 32.00000, Total beta = 32.00000, Total charge =  0.00000

*** Psi4 exiting successfully. Buy a developer a beer!
