  ==> Input File <==

--------------------------------------------------------------------------
set {
	reference rhf
	basis 6-31G*
}

set_num_threads( 1 )
memory 2 gb

molecule MOL {
0 1

O	 -3.477472	 -0.024120	 -0.858608
C	 -2.668563	 0.129746	 -0.000350
C	 -2.879959	 1.009581	 1.204835
O	 -1.481751	 -0.454642	 0.000584
H	 -3.754389	 0.660834	 1.741128
H	 -2.021875	 1.007631	 1.860674
H	 -3.083417	 2.018845	 0.867389
C	 -0.334255	 0.388708	 0.000906
C	 0.891947	 -0.504646	 0.000751
H	 -0.365390	 1.025305	 -0.873475
H	 -0.365484	 1.024911	 0.875569
C	 2.191998	 0.301789	 0.000897
H	 0.855148	 -1.151283	 -0.871571
H	 0.855132	 -1.151660	 0.872805
C	 3.441114	 -0.581407	 0.000108
H	 2.215074	 0.954890	 -0.869742
H	 2.215465	 0.953923	 0.872248
C	 4.739576	 0.224112	 -0.001102
H	 3.419457	 -1.233487	 -0.870178
H	 3.420834	 -1.233096	 0.870717
H	 4.804918	 0.861552	 -0.878265
H	 5.606527	 -0.429058	 -0.001824
H	 4.806469	 0.861674	 0.875853

	symmetry c1
}
set optking {
	frozen_dihedral = ("
		13 9 8 10,
		2 4 8 10,
		16 12 9 13,
		19 15 12 16
	")
}

ee = energy('scf')
oeprop('DIPOLE', 'QUADRUPOLE', 'MULLIKEN_CHARGES')
f=open( 'psi4out.xyz', 'w' )
f.write( "23  " )
f.write( str(ee) + "\n" )
f.write( MOL.save_string_xyz() )
f.close()
--------------------------------------------------------------------------

    Molecular point group: c1

    Geometry (in Angstrom), charge = 0, multiplicity = 1:

       Center              X                  Y                   Z               Mass
    ------------   -----------------  -----------------  -----------------  -----------------
           O         -3.508325555274    -0.086844801352    -0.898998935576    15.994914619560
           C         -2.699416555274     0.067021198648    -0.040740935576    12.000000000000
           C         -2.910812555274     0.946856198648     1.164444064424    12.000000000000
           O         -1.512604555274    -0.517366801352    -0.039806935576    15.994914619560
           H         -3.785242555274     0.598109198648     1.700737064424     1.007825032070
           H         -2.052728555274     0.944906198648     1.820283064424     1.007825032070
           H         -3.114270555274     1.956120198648     0.826998064424     1.007825032070
           C         -0.365108555274     0.325983198648    -0.039484935576    12.000000000000
           C          0.861093444726    -0.567370801352    -0.039639935576    12.000000000000
           H         -0.396243555274     0.962580198648    -0.913865935576     1.007825032070
           H         -0.396337555274     0.962186198648     0.835178064424     1.007825032070
           C          2.161144444726     0.239064198648    -0.039493935576    12.000000000000
           H          0.824294444726    -1.214007801352    -0.911961935576     1.007825032070
           H          0.824278444726    -1.214384801352     0.832414064424     1.007825032070
           C          3.410260444726    -0.644131801352    -0.040282935576    12.000000000000
           H          2.184220444726     0.892165198648    -0.910132935576     1.007825032070
           H          2.184611444726     0.891198198648     0.831857064424     1.007825032070
           C          4.708722444726     0.161387198648    -0.041492935576    12.000000000000
           H          3.388603444726    -1.296211801352    -0.910568935576     1.007825032070
           H          3.389980444726    -1.295820801352     0.830326064424     1.007825032070
           H          4.774064444726     0.798827198648    -0.918655935576     1.007825032070
           H          5.575673444726    -0.491782801352    -0.042214935576     1.007825032070
           H          4.775615444726     0.798949198648     0.835462064424     1.007825032070

  Charge       = 0
  Multiplicity = 1
  Basis Set: 6-31G*
  Basis Set:

    Orbital Energies (a.u.)
    -----------------------

    Doubly Occupied:

       1A    -20.590439     2A    -20.547742     3A    -11.375457
       4A    -11.297778     5A    -11.234497     6A    -11.230962
       7A    -11.229704     8A    -11.225750     9A    -11.216456
      10A     -1.462756    11A     -1.366458    12A     -1.098679
      13A     -1.038007    14A     -1.011942    15A     -0.942581
      16A     -0.848539    17A     -0.808874    18A     -0.778980
      19A     -0.701625    20A     -0.690354    21A     -0.658694
      22A     -0.651488    23A     -0.621638    24A     -0.594399
      25A     -0.581324    26A     -0.579413    27A     -0.563169
      28A     -0.545765    29A     -0.521514    30A     -0.503949
      31A     -0.487370    32A     -0.481469    33A     -0.476013
      34A     -0.474714    35A     -0.455167    36A     -0.432061

  @DF-RHF Final Energy:  -422.95610130485676

   => Energetics <=

    Nuclear Repulsion Energy =            451.1047257820450227
    One-Electron Energy =               -1469.4701922220087908
    Two-Electron Energy =                 595.4093651351076915
    DFT Exchange-Correlation Energy =       0.0000000000000000
    Empirical Dispersion Energy =           0.0000000000000000
    PCM Polarization Energy =               0.0000000000000000
    EFP Energy =                            0.0000000000000000
    Total Energy =                       -422.9561013048560199

  Mulliken Charges: (a.u.)
   Center  Symbol    Alpha    Beta     Spin     Total
       1     O     4.25821  4.25821  0.00000 -0.51642
       2     C     2.62093  2.62093  0.00000  0.75813
       3     C     3.30109  3.30109  0.00000 -0.60218
       4     O     4.31199  4.31199  0.00000 -0.62398
       5     H     0.39256  0.39256  0.00000  0.21489
       6     H     0.40739  0.40739  0.00000  0.18523
       7     H     0.39787  0.39787  0.00000  0.20427
       8     C     2.99922  2.99922  0.00000  0.00155
       9     C     3.16252  3.16252  0.00000 -0.32504
      10     H     0.41264  0.41264  0.00000  0.17472
      11     H     0.42128  0.42128  0.00000  0.15744
      12     C     3.16149  3.16149  0.00000 -0.32299
      13     H     0.40695  0.40695  0.00000  0.18610
      14     H     0.41174  0.41174  0.00000  0.17652
      15     C     3.15194  3.15194  0.00000 -0.30388
      16     H     0.42060  0.42060  0.00000  0.15880
      17     H     0.42246  0.42246  0.00000  0.15507
      18     C     3.24006  3.24006  0.00000 -0.48012
      19     H     0.41956  0.41956  0.00000  0.16088
      20     H     0.42069  0.42069  0.00000  0.15862
      21     H     0.42060  0.42060  0.00000  0.15880
      22     H     0.41691  0.41691  0.00000  0.16618
      23     H     0.42129  0.42129  0.00000  0.15742

   Total alpha = 36.00000, Total beta = 36.00000, Total charge =  0.00000
