  ==> Input File <==

--------------------------------------------------------------------------
set {
	reference rhf
	basis 6-31G*
}

set_num_threads( 1 )
memory 2 gb

molecule MOL {
0 1

H	 3.463771	 0.168298	 -0.756243
C	 2.752674	 -0.045734	 0.033351
C	 1.322923	 0.120767	 -0.479465
H	 2.934561	 -1.059086	 0.377456
H	 2.958358	 0.631174	 0.856809
C	 0.306652	 -0.176050	 0.621399
H	 1.144658	 -0.551717	 -1.312180
H	 1.166477	 1.131798	 -0.836680
N	 -1.068537	 -0.011044	 0.085269
H	 0.372515	 -1.192590	 0.973735
H	 0.391664	 0.520566	 1.441230
O	 -1.843740	 -0.896722	 0.275023
O	 -1.293676	 0.987167	 -0.528664

	symmetry c1
}
set optking {
	frozen_dihedral = ("
		7 3 6 9
	")
}

ee = energy('scf')
oeprop('DIPOLE', 'QUADRUPOLE', 'MULLIKEN_CHARGES')
f=open( 'psi4out.xyz', 'w' )
f.write( "13  " )
f.write( str(ee) + "\n" )
f.write( MOL.save_string_xyz() )
f.close()
--------------------------------------------------------------------------

    Molecular point group: c1

    Geometry (in Angstrom), charge = 0, multiplicity = 1:

       Center              X                  Y                   Z               Mass
    ------------   -----------------  -----------------  -----------------  -----------------
           H          3.464099261269     0.171380638942    -0.756135549652     1.007825032070
           C          2.753002261269    -0.042651361058     0.033458450348    12.000000000000
           C          1.323251261269     0.123849638942    -0.479357549652    12.000000000000
           H          2.934889261269    -1.056003361058     0.377563450348     1.007825032070
           H          2.958686261269     0.634256638942     0.856916450348     1.007825032070
           C          0.306980261269    -0.172967361058     0.621506450348    12.000000000000
           H          1.144986261269    -0.548634361058    -1.312072549652     1.007825032070
           H          1.166805261269     1.134880638942    -0.836572549652     1.007825032070
           N         -1.068208738731    -0.007961361058     0.085376450348    14.003074004780
           H          0.372843261269    -1.189507361058     0.973842450348     1.007825032070
           H          0.391992261269     0.523648638942     1.441337450348     1.007825032070
           O         -1.843411738731    -0.893639361058     0.275130450348    15.994914619560
           O         -1.293347738731     0.990249638942    -0.528556549652    15.994914619560

  Charge       = 0
  Multiplicity = 1
  Basis Set: 6-31G*
  Basis Set:

    Orbital Energies (a.u.)
    -----------------------

    Doubly Occupied:

       1A    -20.603216     2A    -20.600028     3A    -15.847936
       4A    -11.299577     5A    -11.252105     6A    -11.237538
       7A     -1.631535     8A     -1.417244     9A     -1.134351
      10A     -1.027155    11A     -0.883326    12A     -0.829286
      13A     -0.760744    14A     -0.740596    15A     -0.724936
      16A     -0.666076    17A     -0.604545    18A     -0.584916
      19A     -0.549265    20A     -0.520805    21A     -0.511300
      22A     -0.484661    23A     -0.473206    24A     -0.449299

  @DF-RHF Final Energy:  -321.73490173443531

   => Energetics <=

    Nuclear Repulsion Energy =            247.8075266910562959
    One-Electron Energy =                -929.4175239245439570
    Two-Electron Energy =                 359.8750954990517812
    DFT Exchange-Correlation Energy =       0.0000000000000000
    Empirical Dispersion Energy =           0.0000000000000000
    PCM Polarization Energy =               0.0000000000000000
    EFP Energy =                            0.0000000000000000
    Total Energy =                       -321.7349017344358799

  Mulliken Charges: (a.u.)
   Center  Symbol    Alpha    Beta     Spin     Total
       1     H     0.40775  0.40775  0.00000  0.18450
       2     C     3.24850  3.24850  0.00000 -0.49700
       3     C     3.17185  3.17185  0.00000 -0.34370
       4     H     0.41611  0.41611  0.00000  0.16778
       5     H     0.41591  0.41591  0.00000  0.16817
       6     C     3.08867  3.08867  0.00000 -0.17734
       7     H     0.40568  0.40568  0.00000  0.18864
       8     H     0.39273  0.39273  0.00000  0.21454
       9     N     3.22127  3.22127  0.00000  0.55746
      10     H     0.38563  0.38563  0.00000  0.22875
      11     H     0.38736  0.38736  0.00000  0.22527
      12     O     4.22857  4.22857  0.00000 -0.45714
      13     O     4.22997  4.22997  0.00000 -0.45994

   Total alpha = 24.00000, Total beta = 24.00000, Total charge = -0.00000
