  ==> Input File <==

--------------------------------------------------------------------------
set {
	reference rhf
	basis 6-31G*
}

set_num_threads( 1 )
memory 2 gb

molecule MOL {
0 1

O	 0.074228	 1.262779	 -0.000085
C	 0.028650	 0.075053	 -0.000277
C	 -1.233602	 -0.752807	 0.000328
O	 1.109162	 -0.694619	 -0.000298
C	 -2.501530	 0.091881	 0.000126
H	 -1.193807	 -1.406641	 -0.865785
H	 -1.193516	 -1.405779	 0.867015
H	 -2.545121	 0.729328	 -0.874513
H	 -3.377167	 -0.548497	 0.000561
H	 -2.544818	 0.730135	 0.874258
C	 2.266485	 -0.177481	 -0.631772
H	 2.073188	 0.019380	 -1.676423
H	 3.023959	 -0.938683	 -0.528489
H	 2.585431	 0.736123	 -0.151070

	symmetry c1
}
set optking {
	frozen_dihedral = ("
		4 2 3 6
	")
}

ee = energy('scf')
oeprop('DIPOLE', 'QUADRUPOLE', 'MULLIKEN_CHARGES')
f=open( 'psi4out.xyz', 'w' )
f.write( "14  " )
f.write( str(ee) + "\n" )
f.write( MOL.save_string_xyz() )
f.close()
--------------------------------------------------------------------------

    Molecular point group: c1

    Geometry (in Angstrom), charge = 0, multiplicity = 1:

       Center              X                  Y                   Z               Mass
    ------------   -----------------  -----------------  -----------------  -----------------
           O          0.091813123239     1.287463425519     0.113008252790    15.994914619560
           C          0.046235123239     0.099737425519     0.112816252790    12.000000000000
           C         -1.216016876761    -0.728122574481     0.113421252790    12.000000000000
           O          1.126747123239    -0.669934574481     0.112795252790    15.994914619560
           C         -2.483944876761     0.116565425519     0.113219252790    12.000000000000
           H         -1.176221876761    -1.381956574481    -0.752691747210     1.007825032070
           H         -1.175930876761    -1.381094574481     0.980108252790     1.007825032070
           H         -2.527535876761     0.754012425519    -0.761419747210     1.007825032070
           H         -3.359581876761    -0.523812574481     0.113654252790     1.007825032070
           H         -2.527232876761     0.754819425519     0.987351252790     1.007825032070
           C          2.284070123239    -0.152796574481    -0.518678747210    12.000000000000
           H          2.090773123239     0.044064425519    -1.563329747210     1.007825032070
           H          3.041544123239    -0.913998574481    -0.415395747210     1.007825032070
           H          2.603016123239     0.760807425519    -0.037976747210     1.007825032070

  Charge       = 0
  Multiplicity = 1
  Basis Set: 6-31G*
  Basis Set:

    Orbital Energies (a.u.)
    -----------------------

    Doubly Occupied:

       1A    -20.599906     2A    -20.548112     3A    -11.373346
       4A    -11.283860     5A    -11.238892     6A    -11.216602
       7A     -1.468837     8A     -1.364207     9A     -1.063918
      10A     -0.980606    11A     -0.880188    12A     -0.768969
      13A     -0.700656    14A     -0.681513    15A     -0.671821
      16A     -0.621119    17A     -0.605305    18A     -0.548371
      19A     -0.538437    20A     -0.521913    21A     -0.512025
      22A     -0.496021    23A     -0.456134    24A     -0.437781

  @DF-RHF Final Energy:  -305.86693627057969

   => Energetics <=

    Nuclear Repulsion Energy =            247.0985876181846095
    One-Electron Energy =                -906.7740317774469077
    Two-Electron Energy =                 353.8085078886833230
    DFT Exchange-Correlation Energy =       0.0000000000000000
    Empirical Dispersion Energy =           0.0000000000000000
    PCM Polarization Energy =               0.0000000000000000
    EFP Energy =                            0.0000000000000000
    Total Energy =                       -305.8669362705789467

  Mulliken Charges: (a.u.)
   Center  Symbol    Alpha    Beta     Spin     Total
       1     O     4.28017  4.28017  0.00000 -0.56033
       2     C     2.60813  2.60813  0.00000  0.78373
       3     C     3.20607  3.20607  0.00000 -0.41214
       4     O     4.30725  4.30725  0.00000 -0.61450
       5     C     3.23937  3.23937  0.00000 -0.47873
       6     H     0.40221  0.40221  0.00000  0.19558
       7     H     0.39920  0.39920  0.00000  0.20160
       8     H     0.41050  0.41050  0.00000  0.17900
       9     H     0.41803  0.41803  0.00000  0.16395
      10     H     0.40930  0.40930  0.00000  0.18140
      11     C     3.09433  3.09433  0.00000 -0.18865
      12     H     0.41515  0.41515  0.00000  0.16969
      13     H     0.40721  0.40721  0.00000  0.18558
      14     H     0.40308  0.40308  0.00000  0.19383

   Total alpha = 24.00000, Total beta = 24.00000, Total charge = -0.00000
