  ==> Input File <==

--------------------------------------------------------------------------
set {
	reference rhf
	basis cc-pvtz
}

set_num_threads( 4 )
memory 2 gb

molecule MOL {
0 1

O	 1.335647	 -2.750362	 -0.363011
C	 0.419462	 -2.021218	 -0.193203
C	 -1.022391	 -2.440895	 -0.169010
O	 0.550743	 -0.719877	 0.000412
H	 -1.461327	 -2.176783	 0.784398
H	 -1.091800	 -3.504503	 -0.328554
H	 -1.567350	 -1.911355	 -0.939752
C	 1.863204	 -0.194033	 0.000410
H	 2.031502	 0.409177	 -0.879273
H	 2.524488	 -1.045142	 0.000793
H	 2.031291	 0.409823	 0.879686

	symmetry c1
}
set optking {
	frozen_dihedral = ("
		2 4 8 9
	")
}

ee = optimize('scf')
oeprop('DIPOLE', 'QUADRUPOLE', 'MULLIKEN_CHARGES')
f=open( 'psi4out.xyz', 'w' )
f.write( "11  " )
f.write( str(ee) + "\n" )
f.write( MOL.save_string_xyz() )
f.close()
--------------------------------------------------------------------------

    Molecular point group: c1
  Charge       = 0
  Multiplicity = 1
  Basis Set: CC-PVTZ
  Basis Set:
  @DF-RHF Final Energy:  -266.93533315394393
    Total Energy =                       -266.9353331539439296
    Molecular point group: c1
  Basis Set: CC-PVTZ
  Basis Set:
  Basis Set: CC-PVTZ
  Basis Set:
  @DF-RHF Final Energy:  -266.93639516621522
    Total Energy =                       -266.9363951662151635
  Basis Set: CC-PVTZ
  Basis Set:
  Basis Set: CC-PVTZ
  Basis Set:
  @DF-RHF Final Energy:  -266.93728373883800
    Total Energy =                       -266.9372837388378912
  Basis Set: CC-PVTZ
  Basis Set:
  Basis Set: CC-PVTZ
  Basis Set:
  @DF-RHF Final Energy:  -266.93662842987715
    Total Energy =                       -266.9366284298772598
  Basis Set: CC-PVTZ
  Basis Set:
  Basis Set: CC-PVTZ
  Basis Set:
  @DF-RHF Final Energy:  -266.93732111426505
    Total Energy =                       -266.9373211142651598
  Basis Set: CC-PVTZ
  Basis Set:
  Charge       = 0
  Multiplicity = 1
  Basis Set: CC-PVTZ
  Basis Set:

    Orbital Energies (a.u.)
    -----------------------

    Doubly Occupied:

       1A    -20.597738     2A    -20.534588     3A    -11.370122
       4A    -11.278560     5A    -11.232622     6A     -1.471766
       7A     -1.368244     8A     -1.037018     9A     -0.954108
      10A     -0.779083    11A     -0.699417    12A     -0.682189
      13A     -0.681013    14A     -0.597888    15A     -0.592781
      16A     -0.561611    17A     -0.530702    18A     -0.520917
      19A     -0.458532    20A     -0.446117

  @DF-RHF Final Energy:  -266.93732279761480

   => Energetics <=

    Nuclear Repulsion Energy =            183.2590384552462126
    One-Electron Energy =                -727.6026886373686011
    Two-Electron Energy =                 277.4063273845074491
    DFT Exchange-Correlation Energy =       0.0000000000000000
    Empirical Dispersion Energy =           0.0000000000000000
    PCM Polarization Energy =               0.0000000000000000
    EFP Energy =                            0.0000000000000000
    Total Energy =                       -266.9373227976149110
    Molecular point group: c1
  Basis Set: CC-PVTZ
  Basis Set:

  -Total Gradient:
     Atom            X                  Y                   Z
    ------   -----------------  -----------------  -----------------
       1       -0.000027393774    -0.000000053061     0.000013499323
       2        0.000108633439    -0.000085417833     0.000636022385
       3        0.000011161423     0.000016959236     0.000022844443
       4       -0.000115316723     0.000361247693    -0.000883538760
       5        0.000006105153    -0.000000590573    -0.000004798324
       6        0.000003080341    -0.000006325157     0.000001068964
       7        0.000011744867     0.000001921782    -0.000004508455
       8        0.000271957944    -0.000863528875    -0.000166159971
       9       -0.000282700173     0.000603694782     0.000380429044
      10        0.000016748593    -0.000020221186     0.000002031146
      11       -0.000004021090    -0.000007686811     0.000003110205

  **** Optimization is complete! (in 6 steps) ****
    Final optimized geometry and variables:
    Molecular point group: c1

    Geometry (in Angstrom), charge = 0, multiplicity = 1:

    O            0.664018645169    -1.175028012650    -0.240950753385
    C           -0.225700998321    -0.418354136474    -0.054637843784
    C           -1.677993318338    -0.800485398787    -0.012763654359
    O           -0.069911666352     0.880809538511     0.143910452297
    H           -2.096779018607    -0.529618026703     0.947718762658
    H           -1.777420069733    -1.861025818735    -0.176791183709
    H           -2.218678231101    -0.252409509684    -0.773447271171
    C            1.233067082636     1.433201966035     0.156057207366
    H            1.361564252867     2.037628547097    -0.730575884906
    H            1.980376807320     0.659578051850     0.187765997146
    H            1.307070958740     2.062930710386     1.029821237106

  Mulliken Charges: (a.u.)
   Center  Symbol    Alpha    Beta     Spin     Total
       1     O     4.19709  4.19709  0.00000 -0.39418
       2     C     2.79808  2.79808  0.00000  0.40385
       3     C     3.13941  3.13941  0.00000 -0.27881
       4     O     4.14989  4.14989  0.00000 -0.29977
       5     H     0.44579  0.44579  0.00000  0.10843
       6     H     0.43800  0.43800  0.00000  0.12401
       7     H     0.44555  0.44555  0.00000  0.10889
       8     C     3.03693  3.03693  0.00000 -0.07385
       9     H     0.45457  0.45457  0.00000  0.09087
      10     H     0.44350  0.44350  0.00000  0.11301
      11     H     0.45122  0.45122  0.00000  0.09757

   Total alpha = 20.00000, Total beta = 20.00000, Total charge = -0.00000
