                              Psi4 1.0.54 Driver

  ==> Input File <==

--------------------------------------------------------------------------
set {
	reference rhf
	basis cc-pvtz
}

set_num_threads( 4 )
memory 2 gb

molecule MOL {
0 1

H	 -2.644180	 -0.653737	 1.272255
C	 -2.092774	 -0.380414	 0.391915
O	 -0.808934	 -0.154049	 0.752536
F	 -2.163230	 -1.351640	 -0.507133
F	 -2.627232	 0.691260	 -0.169301
C	 0.085006	 0.250800	 -0.215074
C	 -0.684380	 0.366226	 -1.528847
Cl	 1.413558	 -0.911404	 -0.387613
H	 0.522912	 1.209407	 0.001624
F	 0.109042	 0.763215	 -2.491087
F	 -1.632515	 1.262543	 -1.391113
F	 -1.236284	 -0.762648	 -1.879982

	symmetry c1
}
set optking {
	frozen_dihedral = ("
		9 6 3 2
	")
}

ee,wfn = optimize('scf', return_wfn=True)
oeprop( wfn, 'DIPOLE', 'QUADRUPOLE', 'MULLIKEN_CHARGES')
f=open( 'psi4out.xyz', 'w' )
f.write( "12  " )
f.write( str(ee) + "\n" )
f.write( MOL.save_string_xyz() )
f.close()
--------------------------------------------------------------------------

    Molecular point group: c1
  Charge       = 0
  Multiplicity = 1
  Basis Set: CC-PVTZ
  Basis Set:
  @DF-RHF Final Energy: -1146.41644448832812
    Total Energy =                      -1146.4164444883281249
    Molecular point group: c1
  Basis Set: CC-PVTZ
  Basis Set:
  Basis Set: CC-PVTZ
  Basis Set:
  @DF-RHF Final Energy: -1146.49679533367544
    Total Energy =                      -1146.4967953336754363
  Basis Set: CC-PVTZ
  Basis Set:
  Basis Set: CC-PVTZ
  Basis Set:
  @DF-RHF Final Energy: -1146.54515412038381
    Total Energy =                      -1146.5451541203842680
  Basis Set: CC-PVTZ
  Basis Set:
  Basis Set: CC-PVTZ
  Basis Set:
  @DF-RHF Final Energy: -1146.57234016969960
    Total Energy =                      -1146.5723401697005102
  Basis Set: CC-PVTZ
  Basis Set:
  @DF-RHF Final Energy: -1146.58793454682154
    Total Energy =                      -1146.5879345468224528
  @DF-RHF Final Energy: -1146.59524620067941
    Total Energy =                      -1146.5952462006798669
  @DF-RHF Final Energy: -1146.59844472627901
    Total Energy =                      -1146.5984447262787853
  @DF-RHF Final Energy: -1146.59806835184281
    Total Energy =                      -1146.5980683518428123
  @DF-RHF Final Energy: -1146.60182139328936
    Total Energy =                      -1146.6018213932886738
  @DF-RHF Final Energy: -1146.60241340698121
    Total Energy =                      -1146.6024134069814409
  @DF-RHF Final Energy: -1146.60253242482486
    Total Energy =                      -1146.6025324248259949
  @DF-RHF Final Energy: -1146.60256445465416
    Total Energy =                      -1146.6025644546557487
  @DF-RHF Final Energy: -1146.60258992737431
    Total Energy =                      -1146.6025899273736286
  @DF-RHF Final Energy: -1146.60271413931150
    Total Energy =                      -1146.6027141393117290
  @DF-RHF Final Energy: -1146.60289455408883
    Total Energy =                      -1146.6028945540886070
  @DF-RHF Final Energy: -1146.60316977672255
    Total Energy =                      -1146.6031697767227797
  @DF-RHF Final Energy: -1146.60332108924899
    Total Energy =                      -1146.6033210892489933
  @DF-RHF Final Energy: -1146.60340118231284
    Total Energy =                      -1146.6034011823126093
  @DF-RHF Final Energy: -1146.60347161594655
    Total Energy =                      -1146.6034716159467735
  @DF-RHF Final Energy: -1146.60348488976160
    Total Energy =                      -1146.6034848897616030
  @DF-RHF Final Energy: -1146.60349647268458
    Total Energy =                      -1146.6034964726845828
  Basis Set: CC-PVTZ
  Basis Set:
  @DF-RHF Final Energy: -1146.60351043342871
    Total Energy =                      -1146.6035104334282551
  Basis Set: CC-PVTZ
  Basis Set:
  Basis Set: CC-PVTZ
  Basis Set:
  @DF-RHF Final Energy: -1146.60353157469990
    Total Energy =                      -1146.6035315747008099
  Basis Set: CC-PVTZ
  Basis Set:
  Basis Set: CC-PVTZ
  Basis Set:
  @DF-RHF Final Energy: -1146.60353673698455
    Total Energy =                      -1146.6035367369843243
  Basis Set: CC-PVTZ
  Basis Set:
  Charge       = 0
  Multiplicity = 1
  Basis Set: CC-PVTZ
  Basis Set:

    Orbital Energies (a.u.)
    -----------------------

    Doubly Occupied:

       1A   -104.856050     2A    -26.357025     3A    -26.354876
       4A    -26.353573     5A    -26.340177     6A    -26.333623
       7A    -20.634406     8A    -11.525301     9A    -11.482352
      10A    -11.406231    11A    -10.581616    12A     -8.048400
      13A     -8.046419    14A     -8.046336    15A     -1.770739
      16A     -1.719009    17A     -1.665193    18A     -1.662736
      19A     -1.640321    20A     -1.476545    21A     -1.178926
      22A     -1.045255    23A     -1.002002    24A     -0.922372
      25A     -0.865602    26A     -0.860535    27A     -0.855703
      28A     -0.832580    29A     -0.817760    30A     -0.761123
      31A     -0.738137    32A     -0.735345    33A     -0.713765
      34A     -0.694301    35A     -0.685232    36A     -0.680857
      37A     -0.668230    38A     -0.664312    39A     -0.657803
      40A     -0.647203    41A     -0.587177    42A     -0.556230
      43A     -0.523407    44A     -0.478681    45A     -0.468035

  @DF-RHF Final Energy: -1146.60353721975753

   => Energetics <=

    Nuclear Repulsion Energy =            753.9483995159956748
    One-Electron Energy =               -3091.2208686553321968
    Two-Electron Energy =                1190.6689319195784265
    DFT Exchange-Correlation Energy =       0.0000000000000000
    Empirical Dispersion Energy =           0.0000000000000000
    PCM Polarization Energy =               0.0000000000000000
    EFP Energy =                            0.0000000000000000
    Total Energy =                      -1146.6035372197579818
    Molecular point group: c1
  Basis Set: CC-PVTZ
  Basis Set:

  -Total Gradient:
     Atom            X                  Y                   Z
    ------   -----------------  -----------------  -----------------
       1       -0.000008209566    -0.000012240738    -0.000013175921
       2       -0.000002946807    -0.000354704940    -0.000135666525
       3        0.000085307126     0.000611713669     0.000281660945
       4        0.000005676791     0.000000617084     0.000002066483
       5        0.000025747206    -0.000046402674    -0.000026368021
       6       -0.000489866955     0.000033654248    -0.000093807123
       7        0.000019815229     0.000009307888     0.000016600653
       8        0.000005114224    -0.000009941794    -0.000006914293
       9        0.000378274163    -0.000242644334     0.000009566173
      10       -0.000013594812    -0.000004929546     0.000002737790
      11       -0.000003769071    -0.000005947426    -0.000035797908
      12       -0.000001547479     0.000021518537    -0.000000902249

  **** Optimization is complete! (in 25 steps) ****
    Final optimized geometry and variables:
    Molecular point group: c1

    Geometry (in Angstrom), charge = 0, multiplicity = 1:

    H           -0.732078749289    -1.272833841889     2.594197476998
    C           -0.809574936813    -0.609327155133     1.752133779903
    O            0.452901538592    -0.365653551698     1.329302041564
    F           -1.553092311534    -1.161705980611     0.813278410248
    F           -1.413328978003     0.504602017038     2.129844153371
    C            0.895266667750     0.209719293550     0.151819062356
    C           -0.117521798958     0.658718413665    -0.916484115575
    CL           2.047893435468    -0.910686843477    -0.607289190308
    H            1.457761378662     1.089021773653     0.410821227795
    F            0.534657467483     1.388269896859    -1.791468048145
    F           -1.041983228431     1.415831456477    -0.380804991462
    F           -0.695340459830    -0.316833308216    -1.555337780430

  Mulliken Charges: (a.u.)
   Center  Symbol    Alpha    Beta     Spin     Total
       1     H     0.44728  0.44728  0.00000  0.10545
       2     C     2.74337  2.74337  0.00000  0.51326
       3     O     4.16119  4.16119  0.00000 -0.32238
       4     F     4.61496  4.61496  0.00000 -0.22993
       5     F     4.61533  4.61533  0.00000 -0.23066
       6     C     2.93367  2.93367  0.00000  0.13265
       7     C     2.68485  2.68485  0.00000  0.63030
       8    CL     8.57322  8.57322  0.00000 -0.14643
       9     H     0.42375  0.42375  0.00000  0.15250
      10     F     4.60272  4.60272  0.00000 -0.20544
      11     F     4.60258  4.60258  0.00000 -0.20517
      12     F     4.59708  4.59708  0.00000 -0.19416

   Total alpha = 45.00000, Total beta = 45.00000, Total charge =  0.00000

*** Psi4 exiting successfully. Buy a developer a beer!
