  ==> Input File <==

--------------------------------------------------------------------------
set {
	reference rhf
	basis 6-31G*
}

set_num_threads( 1 )
memory 2 gb

molecule MOL {
0 1

H	 -4.031818	 -0.453427	 -0.000094
C	 -2.967712	 -0.297022	 -0.000064
C	 -2.458620	 0.992929	 0.000032
C	 -2.109895	 -1.385637	 -0.000122
H	 -3.124998	 1.836319	 0.000077
C	 -1.090278	 1.193236	 0.000070
H	 -2.506361	 -2.384847	 -0.000198
C	 -0.739812	 -1.187531	 -0.000085
H	 -0.678594	 2.184290	 0.000146
C	 -0.226438	 0.104061	 0.000012
H	 -0.072310	 -2.027032	 -0.000131
C	 1.239129	 0.373821	 0.000060
O	 1.787961	 0.259592	 1.200201
O	 1.862651	 0.663082	 -0.972775
C	 3.181054	 0.499401	 1.292147
H	 3.726746	 -0.199352	 0.675090
H	 3.435111	 0.360136	 2.331336
H	 3.412843	 1.507392	 0.980463

	symmetry c1
}
set optking {
	frozen_dihedral = ("
		12 13 15 16,
		10 12 13 15
	")
}

ee = energy('scf')
oeprop('DIPOLE', 'QUADRUPOLE', 'MULLIKEN_CHARGES')
f=open( 'psi4out.xyz', 'w' )
f.write( "18  " )
f.write( str(ee) + "\n" )
f.write( MOL.save_string_xyz() )
f.close()
--------------------------------------------------------------------------

    Molecular point group: c1

    Geometry (in Angstrom), charge = 0, multiplicity = 1:

       Center              X                  Y                   Z               Mass
    ------------   -----------------  -----------------  -----------------  -----------------
           H         -4.005962078756    -0.593866319401    -0.170323554205     1.007825032070
           C         -2.941856078756    -0.437461319401    -0.170293554205    12.000000000000
           C         -2.432764078756     0.852489680599    -0.170197554205    12.000000000000
           C         -2.084039078756    -1.526076319401    -0.170351554205    12.000000000000
           H         -3.099142078756     1.695879680599    -0.170152554205     1.007825032070
           C         -1.064422078756     1.052796680599    -0.170159554205    12.000000000000
           H         -2.480505078756    -2.525286319401    -0.170427554205     1.007825032070
           C         -0.713956078756    -1.327970319401    -0.170314554205    12.000000000000
           H         -0.652738078756     2.043850680599    -0.170083554205     1.007825032070
           C         -0.200582078756    -0.036378319401    -0.170217554205    12.000000000000
           H         -0.046454078756    -2.167471319401    -0.170360554205     1.007825032070
           C          1.264984921244     0.233381680599    -0.170169554205    12.000000000000
           O          1.813816921244     0.119152680599     1.029971445795    15.994914619560
           O          1.888506921244     0.522642680599    -1.143004554205    15.994914619560
           C          3.206909921244     0.358961680599     1.121917445795    12.000000000000
           H          3.752601921244    -0.339791319401     0.504860445795     1.007825032070
           H          3.460966921244     0.219696680599     2.161106445795     1.007825032070
           H          3.438698921244     1.366952680599     0.810233445795     1.007825032070

  Charge       = 0
  Multiplicity = 1
  Basis Set: 6-31G*
  Basis Set:

    Orbital Energies (a.u.)
    -----------------------

    Doubly Occupied:

       1A    -20.609747     2A    -20.550222     3A    -11.380718
       4A    -11.283271     5A    -11.252152     6A    -11.245136
       7A    -11.243758     8A    -11.241173     9A    -11.240216
      10A    -11.239400    11A     -1.474811    12A     -1.366031
      13A     -1.166643    14A     -1.049376    15A     -1.026580
      16A     -0.979587    17A     -0.861360    18A     -0.838974
      19A     -0.780210    20A     -0.738085    21A     -0.686119
      22A     -0.680096    23A     -0.676005    24A     -0.631561
      25A     -0.629854    26A     -0.598449    27A     -0.591254
      28A     -0.546937    29A     -0.536307    30A     -0.517064
      31A     -0.508260    32A     -0.501745    33A     -0.458760
      34A     -0.445617    35A     -0.343514    36A     -0.341575

  @DF-RHF Final Energy:  -457.33813770200055

   => Energetics <=

    Nuclear Repulsion Energy =            491.5413968977729269
    One-Electron Energy =               -1597.2381092158466345
    Two-Electron Energy =                 648.3585746160736107
    DFT Exchange-Correlation Energy =       0.0000000000000000
    Empirical Dispersion Energy =           0.0000000000000000
    PCM Polarization Energy =               0.0000000000000000
    EFP Energy =                            0.0000000000000000
    Total Energy =                       -457.3381377020000400

  Mulliken Charges: (a.u.)
   Center  Symbol    Alpha    Beta     Spin     Total
       1     H     0.39662  0.39662  0.00000  0.20676
       2     C     3.09764  3.09764  0.00000 -0.19528
       3     C     3.09938  3.09938  0.00000 -0.19877
       4     C     3.10013  3.10013  0.00000 -0.20027
       5     H     0.39539  0.39539  0.00000  0.20921
       6     C     3.09843  3.09843  0.00000 -0.19686
       7     H     0.39543  0.39543  0.00000  0.20913
       8     C     3.09654  3.09654  0.00000 -0.19308
       9     H     0.39019  0.39019  0.00000  0.21963
      10     C     3.00821  3.00821  0.00000 -0.01643
      11     H     0.39141  0.39141  0.00000  0.21717
      12     C     2.64232  2.64232  0.00000  0.71536
      13     O     4.29577  4.29577  0.00000 -0.59154
      14     O     4.27577  4.27577  0.00000 -0.55155
      15     C     3.09375  3.09375  0.00000 -0.18749
      16     H     0.40823  0.40823  0.00000  0.18354
      17     H     0.40664  0.40664  0.00000  0.18673
      18     H     0.40813  0.40813  0.00000  0.18374

   Total alpha = 36.00000, Total beta = 36.00000, Total charge = -0.00000
