  ==> Input File <==

--------------------------------------------------------------------------
set {
	reference rhf
	basis 6-31G*
}

set_num_threads( 4 )
memory 2 gb

molecule MOL {
0 1

H	 2.465338	 -2.224223	 0.000000
O	 2.784187	 -1.332015	 0.000000
C	 1.765313	 -0.449364	 0.000000
C	 1.559439	 0.288359	 -1.161604
C	 0.942377	 -0.263140	 1.093724
H	 2.212580	 0.125350	 -1.998081
C	 0.532728	 1.207645	 -1.223582
H	 1.078107	 -0.817727	 2.001213
C	 -0.078981	 0.668161	 0.997166
H	 0.380948	 1.772884	 -2.124318
C	 -0.307965	 1.413087	 -0.137823
N	 -0.946641	 0.861262	 2.157065
H	 -1.108594	 2.122532	 -0.170758
O	 -0.727128	 0.203068	 3.128984
O	 -1.823259	 1.664667	 2.065715

	symmetry c1
}
set optking {
	frozen_dihedral = ("
		4 3 2 1
	")
}

ee = optimize('scf')
oeprop('DIPOLE', 'QUADRUPOLE', 'MULLIKEN_CHARGES')
f=open( 'psi4out.xyz', 'w' )
f.write( "15  " )
f.write( str(ee) + "\n" )
f.write( MOL.save_string_xyz() )
f.close()
--------------------------------------------------------------------------

    Molecular point group: c1
  Charge       = 0
  Multiplicity = 1
  Basis Set: 6-31G*
  Basis Set:
  @DF-RHF Final Energy:  -509.02325235558328
    Total Energy =                       -509.0232523555832813
    Molecular point group: c1
  Basis Set: 6-31G*
  Basis Set:
  Basis Set: 6-31G*
  Basis Set:
  @DF-RHF Final Energy:  -509.02360540277033
    Total Energy =                       -509.0236054027704995
  Basis Set: 6-31G*
  Basis Set:
  Basis Set: 6-31G*
  Basis Set:
  @DF-RHF Final Energy:  -509.00922561060429
    Total Energy =                       -509.0092256106041759
  Basis Set: 6-31G*
  Basis Set:
  Basis Set: 6-31G*
  Basis Set:
  @DF-RHF Final Energy:  -509.02341478402280
    Total Energy =                       -509.0234147840230889
  Basis Set: 6-31G*
  Basis Set:
  Basis Set: 6-31G*
  Basis Set:
  @DF-RHF Final Energy:  -509.02387877335042
    Total Energy =                       -509.0238787733500203
  Basis Set: 6-31G*
  Basis Set:
  Basis Set: 6-31G*
  Basis Set:
  @DF-RHF Final Energy:  -509.02389041493541
    Total Energy =                       -509.0238904149352948
  Basis Set: 6-31G*
  Basis Set:
  Charge       = 0
  Multiplicity = 1
  Basis Set: 6-31G*
  Basis Set:

    Orbital Energies (a.u.)
    -----------------------

    Doubly Occupied:

       1A    -20.604056     2A    -20.603929     3A    -20.602490
       4A    -15.858875     5A    -11.321987     6A    -11.309600
       7A    -11.269134     8A    -11.268543     9A    -11.266231
      10A    -11.264327    11A     -1.637574    12A     -1.420892
      13A     -1.419918    14A     -1.200835    15A     -1.094727
      16A     -1.046523    17A     -0.964521    18A     -0.869894
      19A     -0.831000    20A     -0.791587    21A     -0.739777
      22A     -0.736449    23A     -0.722109    24A     -0.709276
      25A     -0.678513    26A     -0.641716    27A     -0.625163
      28A     -0.568558    29A     -0.554703    30A     -0.531473
      31A     -0.512127    32A     -0.490536    33A     -0.485687
      34A     -0.454237    35A     -0.377171    36A     -0.356920

  @DF-RHF Final Energy:  -509.02389276700029

   => Energetics <=

    Nuclear Repulsion Energy =            502.8411246675272537
    One-Electron Energy =               -1692.0679294962346830
    Two-Electron Energy =                 680.2029120617078206
    DFT Exchange-Correlation Energy =       0.0000000000000000
    Empirical Dispersion Energy =           0.0000000000000000
    PCM Polarization Energy =               0.0000000000000000
    EFP Energy =                            0.0000000000000000
    Total Energy =                       -509.0238927669995519
    Molecular point group: c1
  Basis Set: 6-31G*
  Basis Set:

  -Total Gradient:
     Atom            X                  Y                   Z
    ------   -----------------  -----------------  -----------------
       1        0.000050182830    -0.000023251379    -0.001469443973
       2       -0.000316868278    -0.000394856739     0.001634675645
       3        0.000854840955     0.001131574118     0.000432533194
       4       -0.000763268202    -0.000605758912    -0.000494782665
       5        0.000184559767    -0.000129217029    -0.000118514019
       6        0.000012166936    -0.000006064553     0.000016592162
       7        0.000144950608    -0.000123073083    -0.000127170460
       8       -0.000003881655     0.000015283365     0.000003399578
       9       -0.000136187095     0.000123215590    -0.000126302762
      10       -0.000016179876     0.000008015787     0.000002660025
      11        0.000010034609    -0.000002835185     0.000205969823
      12        0.000097769279     0.000034880700    -0.000014644283
      13        0.000008653650    -0.000014731448    -0.000024628320
      14       -0.000101496911     0.000065940049    -0.000030244834
      15       -0.000025276614    -0.000079121286     0.000109900885

  **** Optimization is complete! (in 7 steps) ****
    Final optimized geometry and variables:
    Molecular point group: c1

    Geometry (in Angstrom), charge = 0, multiplicity = 1:

    H            2.126248878263    -2.629649753690    -0.725965179553
    O            2.446375308850    -1.737044275695    -0.727665744775
    C            1.408807299264    -0.852676780583    -0.775798728617
    C            1.201773541752    -0.115192319394    -1.931609213382
    C            0.593981360007    -0.666127456149     0.325175476245
    H            1.853018736403    -0.275759998438    -2.770440108630
    C            0.178619772220     0.815709029510    -1.989039794913
    H            0.754010367879    -1.219941138724     1.227861469089
    C           -0.427189783427     0.262478910470     0.235949492749
    H            0.025039605375     1.386501367851    -2.885870624248
    C           -0.653798867864     1.013974899099    -0.900585372303
    N           -1.294360703797     0.456318566952     1.394799659402
    H           -1.452684862391     1.726049404344    -0.926691551665
    O           -1.096065396936    -0.223588413945     2.355518648005
    O           -2.152614322543     1.281220951308     1.312338200830

  Mulliken Charges: (a.u.)
   Center  Symbol    Alpha    Beta     Spin     Total
       1     H     0.26754  0.26754  0.00000  0.46492
       2     O     4.38428  4.38428  0.00000 -0.76856
       3     C     2.81698  2.81698  0.00000  0.36605
       4     C     3.10231  3.10231  0.00000 -0.20462
       5     C     3.11335  3.11335  0.00000 -0.22671
       6     H     0.38216  0.38216  0.00000  0.23568
       7     C     3.10537  3.10537  0.00000 -0.21073
       8     H     0.36137  0.36137  0.00000  0.27725
       9     C     2.91761  2.91761  0.00000  0.16478
      10     H     0.38651  0.38651  0.00000  0.22699
      11     C     3.09084  3.09084  0.00000 -0.18168
      12     N     3.24066  3.24066  0.00000  0.51869
      13     H     0.36417  0.36417  0.00000  0.27165
      14     O     4.23372  4.23372  0.00000 -0.46744
      15     O     4.23314  4.23314  0.00000 -0.46628

   Total alpha = 36.00000, Total beta = 36.00000, Total charge =  0.00000
