  ==> Input File <==

--------------------------------------------------------------------------
set {
	reference rhf
	basis 6-31G*
}

set_num_threads( 1 )
memory 2 gb

molecule MOL {
0 1

H	 2.395911	 -4.531722	 1.585838
O	 3.193254	 -4.354124	 1.108580
C	 2.901797	 -4.190043	 -0.256038
C	 2.200496	 -2.872327	 -0.566728
H	 3.855355	 -4.225942	 -0.767031
H	 2.307413	 -5.026441	 -0.621995
C	 0.815902	 -2.738524	 0.071914
H	 2.836478	 -2.056299	 -0.233574
H	 2.110160	 -2.783057	 -1.648040
C	 0.115918	 -1.429151	 -0.302766
H	 0.913314	 -2.801653	 1.152142
H	 0.192299	 -3.577803	 -0.236422
C	 -1.309753	 -1.282496	 0.241564
H	 0.719520	 -0.590125	 0.038624
H	 0.079591	 -1.354265	 -1.387557
C	 -2.037799	 -0.007733	 -0.193645
H	 -1.890610	 -2.142323	 -0.085726
H	 -1.285946	 -1.330893	 1.329189
C	 -3.489788	 0.042957	 0.286558
H	 -2.017067	 0.064384	 -1.280144
H	 -1.513726	 0.868678	 0.179924
C	 -4.216917	 1.317354	 -0.141063
H	 -4.025645	 -0.823308	 -0.095450
H	 -3.513059	 -0.038752	 1.371301
H	 -4.239342	 1.411634	 -1.223113
H	 -5.243387	 1.322503	 0.212445
H	 -3.726170	 2.201406	 0.256408

	symmetry c1
}
set optking {
	frozen_dihedral = ("
		14 10 7 4,
		10 7 4 8,
		8 4 3 2,
		10 13 16 20,
		20 16 19 22,
		4 3 2 1
	")
}

ee = energy('scf')
oeprop('DIPOLE', 'QUADRUPOLE', 'MULLIKEN_CHARGES')
f=open( 'psi4out.xyz', 'w' )
f.write( "27  " )
f.write( str(ee) + "\n" )
f.write( MOL.save_string_xyz() )
f.close()
--------------------------------------------------------------------------

    Molecular point group: c1

    Geometry (in Angstrom), charge = 0, multiplicity = 1:

       Center              X                  Y                   Z               Mass
    ------------   -----------------  -----------------  -----------------  -----------------
           H          2.559625146484    -2.770666993567     1.540157688734     1.007825032070
           O          3.356968146484    -2.593068993567     1.062899688734    15.994914619560
           C          3.065511146484    -2.428987993567    -0.301718311266    12.000000000000
           C          2.364210146484    -1.111271993567    -0.612408311266    12.000000000000
           H          4.019069146484    -2.464886993567    -0.812711311266     1.007825032070
           H          2.471127146484    -3.265385993567    -0.667675311266     1.007825032070
           C          0.979616146484    -0.977468993567     0.026233688734    12.000000000000
           H          3.000192146484    -0.295243993567    -0.279254311266     1.007825032070
           H          2.273874146484    -1.022001993567    -1.693720311266     1.007825032070
           C          0.279632146484     0.331904006433    -0.348446311266    12.000000000000
           H          1.077028146484    -1.040597993567     1.106461688734     1.007825032070
           H          0.356013146484    -1.816747993567    -0.282102311266     1.007825032070
           C         -1.146038853516     0.478559006433     0.195883688734    12.000000000000
           H          0.883234146484     1.170930006433    -0.007056311266     1.007825032070
           H          0.243305146484     0.406790006433    -1.433237311266     1.007825032070
           C         -1.874084853516     1.753322006433    -0.239325311266    12.000000000000
           H         -1.726895853516    -0.381267993567    -0.131406311266     1.007825032070
           H         -1.122231853516     0.430162006433     1.283508688734     1.007825032070
           C         -3.326073853516     1.804012006433     0.240877688734    12.000000000000
           H         -1.853352853516     1.825439006433    -1.325824311266     1.007825032070
           H         -1.350011853516     2.629733006433     0.134243688734     1.007825032070
           C         -4.053202853516     3.078409006433    -0.186743311266    12.000000000000
           H         -3.861930853516     0.937747006433    -0.141130311266     1.007825032070
           H         -3.349344853516     1.722303006433     1.325620688734     1.007825032070
           H         -4.075627853516     3.172689006433    -1.268793311266     1.007825032070
           H         -5.079672853516     3.083558006433     0.166764688734     1.007825032070
           H         -3.562455853516     3.962461006433     0.210727688734     1.007825032070

  Charge       = 0
  Multiplicity = 1
  Basis Set: 6-31G*
  Basis Set:

    Orbital Energies (a.u.)
    -----------------------

    Doubly Occupied:

       1A    -20.552371     2A    -11.267284     3A    -11.220887
       4A    -11.217281     5A    -11.216076     6A    -11.215709
       7A    -11.215575     8A    -11.214628     9A    -11.209264
      10A     -1.359144    11A     -1.094064    12A     -1.063032
      13A     -1.011641    14A     -0.950767    15A     -0.883457
      16A     -0.819986    17A     -0.791782    18A     -0.789842
      19A     -0.694369    20A     -0.659322    21A     -0.634670
      22A     -0.613476    23A     -0.599998    24A     -0.586835
      25A     -0.575708    26A     -0.554985    27A     -0.536773
      28A     -0.521454    29A     -0.511539    30A     -0.492367
      31A     -0.482386    32A     -0.473812    33A     -0.468893
      34A     -0.461553    35A     -0.460190    36A     -0.443896
      37A     -0.421281

  @DF-RHF Final Energy:  -388.28298956000469

   => Energetics <=

    Nuclear Repulsion Energy =            450.4506930630997203
    One-Electron Energy =               -1418.8946694555734211
    Two-Electron Energy =                 580.1609868324678700
    DFT Exchange-Correlation Energy =       0.0000000000000000
    Empirical Dispersion Energy =           0.0000000000000000
    PCM Polarization Energy =               0.0000000000000000
    EFP Energy =                            0.0000000000000000
    Total Energy =                       -388.2829895600058308

  Mulliken Charges: (a.u.)
   Center  Symbol    Alpha    Beta     Spin     Total
       1     H     0.27984  0.27984  0.00000  0.44031
       2     O     4.37098  4.37098  0.00000 -0.74196
       3     C     2.99741  2.99741  0.00000  0.00518
       4     C     3.16142  3.16142  0.00000 -0.32283
       5     H     0.41432  0.41432  0.00000  0.17137
       6     H     0.43196  0.43196  0.00000  0.13608
       7     C     3.16151  3.16151  0.00000 -0.32303
       8     H     0.41480  0.41480  0.00000  0.17039
       9     H     0.42404  0.42404  0.00000  0.15191
      10     C     3.15040  3.15040  0.00000 -0.30080
      11     H     0.42464  0.42464  0.00000  0.15073
      12     H     0.42499  0.42499  0.00000  0.15001
      13     C     3.15190  3.15190  0.00000 -0.30380
      14     H     0.42151  0.42151  0.00000  0.15698
      15     H     0.42380  0.42380  0.00000  0.15239
      16     C     3.15075  3.15075  0.00000 -0.30151
      17     H     0.42494  0.42494  0.00000  0.15011
      18     H     0.42383  0.42383  0.00000  0.15234
      19     C     3.15174  3.15174  0.00000 -0.30347
      20     H     0.42410  0.42410  0.00000  0.15181
      21     H     0.42312  0.42312  0.00000  0.15377
      22     C     3.23933  3.23933  0.00000 -0.47866
      23     H     0.42315  0.42315  0.00000  0.15370
      24     H     0.42292  0.42292  0.00000  0.15416
      25     H     0.42175  0.42175  0.00000  0.15651
      26     H     0.41922  0.41922  0.00000  0.16156
      27     H     0.42162  0.42162  0.00000  0.15675

   Total alpha = 37.00000, Total beta = 37.00000, Total charge =  0.00000
