  ==> Input File <==

--------------------------------------------------------------------------
set {
	reference rhf
	basis 6-31G*
}

set_num_threads( 4 )
memory 2 gb

molecule MOL {
0 1

H	 -3.161837	 0.500524	 -0.000234
C	 -2.367097	 -0.232926	 -0.000000
O	 -1.158440	 0.455814	 -0.000122
H	 -2.468853	 -0.861886	 -0.882833
H	 -2.468942	 -0.861421	 0.883154
C	 -1.253914	 1.782986	 -0.421280
C	 0.127209	 2.412975	 -0.373579
H	 -1.943025	 2.332208	 0.221667
H	 -1.655498	 1.827314	 -1.434529
C	 0.118733	 3.874262	 -0.820177
H	 0.507200	 2.332998	 0.640261
H	 0.792747	 1.831716	 -1.004371
H	 -0.523407	 4.478957	 -0.185807
H	 1.116342	 4.298212	 -0.776734
H	 -0.236548	 3.974242	 -1.842030

	symmetry c1
}
set optking {
	frozen_dihedral = ("
		6 3 2 4
	")
}

ee = optimize('scf')
oeprop('DIPOLE', 'QUADRUPOLE', 'MULLIKEN_CHARGES')
f=open( 'psi4out.xyz', 'w' )
f.write( "15  " )
f.write( str(ee) + "\n" )
f.write( MOL.save_string_xyz() )
f.close()
--------------------------------------------------------------------------

    Molecular point group: c1
  Charge       = 0
  Multiplicity = 1
  Basis Set: 6-31G*
  Basis Set:
  @DF-RHF Final Energy:  -232.13520879651168
    Total Energy =                       -232.1352087965116766
    Molecular point group: c1
  Basis Set: 6-31G*
  Basis Set:
  Basis Set: 6-31G*
  Basis Set:
  @DF-RHF Final Energy:  -232.13623903437244
    Total Energy =                       -232.1362390343726929
  Basis Set: 6-31G*
  Basis Set:
  Basis Set: 6-31G*
  Basis Set:
  @DF-RHF Final Energy:  -232.13655830006005
    Total Energy =                       -232.1365583000602442
  Basis Set: 6-31G*
  Basis Set:
  Charge       = 0
  Multiplicity = 1
  Basis Set: 6-31G*
  Basis Set:

    Orbital Energies (a.u.)
    -----------------------

    Doubly Occupied:

       1A    -20.550504     2A    -11.266613     3A    -11.263469
       4A    -11.213818     5A    -11.212713     6A     -1.374350
       7A     -1.056966     8A     -0.955394     9A     -0.877192
      10A     -0.808788    11A     -0.671836    12A     -0.652188
      13A     -0.629863    14A     -0.607326    15A     -0.564434
      16A     -0.544621    17A     -0.502120    18A     -0.488647
      19A     -0.478641    20A     -0.460657    21A     -0.409207

  @DF-RHF Final Energy:  -232.13656061737680

   => Energetics <=

    Nuclear Repulsion Energy =            189.4690522206259971
    One-Electron Energy =                -690.0325278207994870
    Two-Electron Energy =                 268.4269149827966885
    DFT Exchange-Correlation Energy =       0.0000000000000000
    Empirical Dispersion Energy =           0.0000000000000000
    PCM Polarization Energy =               0.0000000000000000
    EFP Energy =                            0.0000000000000000
    Total Energy =                       -232.1365606173768015
    Molecular point group: c1
  Basis Set: 6-31G*
  Basis Set:

  -Total Gradient:
     Atom            X                  Y                   Z
    ------   -----------------  -----------------  -----------------
       1       -0.000060595478     0.000010700422    -0.000006615356
       2       -0.001714534782     0.003089172580    -0.000747940961
       3        0.000803723597    -0.001664558464    -0.002701811340
       4        0.001350783618    -0.002025467727     0.001377025844
       5        0.000018043492    -0.000027999916    -0.000008005935
       6       -0.000402390161     0.000657704241     0.002039025713
       7        0.000006850002    -0.000030222903     0.000017959660
       8       -0.000005409986    -0.000028289301     0.000011968701
       9        0.000004523722    -0.000001562690     0.000018211003
      10       -0.000002832068     0.000012035770    -0.000005481406
      11        0.000003827380    -0.000000026239     0.000001220271
      12       -0.000002405006     0.000001980746     0.000003842726
      13        0.000002672861     0.000001961078     0.000001408996
      14       -0.000000294717     0.000002888850    -0.000002339741
      15       -0.000001962475     0.000001683558     0.000001531824

  **** Optimization is complete! (in 4 steps) ****
    Final optimized geometry and variables:
    Molecular point group: c1

    Geometry (in Angstrom), charge = 0, multiplicity = 1:

    H           -2.305759745577    -1.218979012638     0.369790073767
    C           -1.443970755286    -1.878716073259     0.325821368642
    O           -0.240995932845    -1.171653638848     0.318799654557
    H           -1.524078093930    -2.511612502155    -0.554063578575
    H           -1.457090820542    -2.518649974306     1.200109952679
    C           -0.322618428227     0.154923161066    -0.110872173695
    C            1.064223899720     0.770710720663    -0.049995445065
    H           -1.011533972154     0.712019666896     0.524169311483
    H           -0.710925651368     0.203004394630    -1.128882599876
    C            1.074612288365     2.232480862606    -0.495360696881
    H            1.433637988138     0.685471224524     0.967356276655
    H            1.729825707160     0.183436063672    -0.675053192991
    H            0.432925949783     2.843138239275     0.133774925834
    H            2.075965114955     2.646476271075    -0.442428169247
    H            0.729532552769     2.337108330978    -1.520255950934

  Mulliken Charges: (a.u.)
   Center  Symbol    Alpha    Beta     Spin     Total
       1     H     0.43027  0.43027  0.00000  0.13945
       2     C     3.07672  3.07672  0.00000 -0.15345
       3     O     4.30940  4.30940  0.00000 -0.61880
       4     H     0.42507  0.42507  0.00000  0.14986
       5     H     0.41667  0.41667  0.00000  0.16667
       6     C     2.98144  2.98144  0.00000  0.03711
       7     C     3.15996  3.15996  0.00000 -0.31991
       8     H     0.43289  0.43289  0.00000  0.13422
       9     H     0.43357  0.43357  0.00000  0.13285
      10     C     3.24793  3.24793  0.00000 -0.49586
      11     H     0.41438  0.41438  0.00000  0.17124
      12     H     0.41436  0.41436  0.00000  0.17128
      13     H     0.42099  0.42099  0.00000  0.15802
      14     H     0.41544  0.41544  0.00000  0.16912
      15     H     0.42090  0.42090  0.00000  0.15819

   Total alpha = 21.00000, Total beta = 21.00000, Total charge = -0.00000
