  ==> Input File <==

--------------------------------------------------------------------------
set {
	reference rhf
	basis 6-31G*
}

set_num_threads( 1 )
memory 2 gb

molecule MOL {
0 1

H	 -3.261111	 -0.295142	 1.469456
C	 -3.306842	 -0.277400	 0.373456
C	 -2.660244	 0.921717	 -0.272021
O	 -3.838538	 -1.161155	 -0.216482
C	 -1.220012	 1.144545	 0.209990
H	 -2.705793	 0.797307	 -1.347733
H	 -3.263782	 1.790044	 -0.010477
C	 -0.252658	 0.041456	 -0.226725
H	 -0.873521	 2.100229	 -0.171974
H	 -1.211708	 1.231594	 1.295398
C	 1.180775	 0.282413	 0.250794
H	 -0.266029	 -0.034465	 -1.312038
H	 -0.597733	 -0.921000	 0.146291
C	 2.148627	 -0.814315	 -0.201312
H	 1.516199	 1.249228	 -0.115937
H	 1.192670	 0.346017	 1.338083
C	 3.580890	 -0.659131	 0.322722
H	 2.166869	 -0.852443	 -1.289387
H	 1.762857	 -1.776509	 0.128956
C	 3.826289	 -1.284711	 1.696785
H	 3.813206	 0.401548	 0.376919
H	 4.276196	 -1.084894	 -0.397832
H	 3.133533	 -0.889138	 2.434945
H	 3.710564	 -2.363258	 1.678946
H	 4.833372	 -1.071777	 2.042384

	symmetry c1
}
set optking {
	frozen_dihedral = ("
		6 3 5 8,
		6 3 2 4,
		3 5 8 12,
		12 8 11 14,
		8 11 14 18
	")
}

ee = energy('scf')
oeprop('DIPOLE', 'QUADRUPOLE', 'MULLIKEN_CHARGES')
f=open( 'psi4out.xyz', 'w' )
f.write( "25  " )
f.write( str(ee) + "\n" )
f.write( MOL.save_string_xyz() )
f.close()
--------------------------------------------------------------------------

    Molecular point group: c1

    Geometry (in Angstrom), charge = 0, multiplicity = 1:

       Center              X                  Y                   Z               Mass
    ------------   -----------------  -----------------  -----------------  -----------------
           H         -3.202587158439    -0.078930149448     1.245473305990     1.007825032070
           C         -3.248318158439    -0.061188149448     0.149473305990    12.000000000000
           C         -2.601720158439     1.137928850552    -0.496003694010    12.000000000000
           O         -3.780014158439    -0.944943149448    -0.440464694010    15.994914619560
           C         -1.161488158439     1.360756850552    -0.013992694010    12.000000000000
           H         -2.647269158439     1.013518850552    -1.571715694010     1.007825032070
           H         -3.205258158439     2.006255850552    -0.234459694010     1.007825032070
           C         -0.194134158439     0.257667850552    -0.450707694010    12.000000000000
           H         -0.814997158439     2.316440850552    -0.395956694010     1.007825032070
           H         -1.153184158439     1.447805850552     1.071415305990     1.007825032070
           C          1.239298841561     0.498624850552     0.026811305990    12.000000000000
           H         -0.207505158439     0.181746850552    -1.536020694010     1.007825032070
           H         -0.539209158439    -0.704788149448    -0.077691694010     1.007825032070
           C          2.207150841561    -0.598103149448    -0.425294694010    12.000000000000
           H          1.574722841561     1.465439850552    -0.339919694010     1.007825032070
           H          1.251193841561     0.562228850552     1.114100305990     1.007825032070
           C          3.639413841561    -0.442919149448     0.098739305990    12.000000000000
           H          2.225392841561    -0.636231149448    -1.513369694010     1.007825032070
           H          1.821380841561    -1.560297149448    -0.095026694010     1.007825032070
           C          3.884812841561    -1.068499149448     1.472802305990    12.000000000000
           H          3.871729841561     0.617759850552     0.152936305990     1.007825032070
           H          4.334719841561    -0.868682149448    -0.621814694010     1.007825032070
           H          3.192056841561    -0.672926149448     2.210962305990     1.007825032070
           H          3.769087841561    -2.147046149448     1.454963305990     1.007825032070
           H          4.891895841561    -0.855565149448     1.818401305990     1.007825032070

  Charge       = 0
  Multiplicity = 1
  Basis Set: 6-31G*
  Basis Set:

    Orbital Energies (a.u.)
    -----------------------

    Doubly Occupied:

       1A    -20.562070     2A    -11.326196     3A    -11.235459
       4A    -11.234727     5A    -11.224004     6A    -11.220632
       7A    -11.217310     8A    -11.216324     9A    -11.210954
      10A     -1.402039    11A     -1.104035    12A     -1.069527
      13A     -1.014075    14A     -0.942907    15A     -0.872980
      16A     -0.818749    17A     -0.788935    18A     -0.785250
      19A     -0.664160    20A     -0.662452    21A     -0.630272
      22A     -0.625471    23A     -0.606723    24A     -0.593193
      25A     -0.567452    26A     -0.559595    27A     -0.528199
      28A     -0.521697    29A     -0.516871    30A     -0.497290
      31A     -0.485258    32A     -0.482411    33A     -0.464729
      34A     -0.457483    35A     -0.441469    36A     -0.409610

  @DF-RHF Final Energy:  -387.12035397606667

   => Energetics <=

    Nuclear Repulsion Energy =            438.6095564751235543
    One-Electron Energy =               -1393.5388594613998521
    Two-Electron Energy =                 567.8089490102092896
    DFT Exchange-Correlation Energy =       0.0000000000000000
    Empirical Dispersion Energy =           0.0000000000000000
    PCM Polarization Energy =               0.0000000000000000
    EFP Energy =                            0.0000000000000000
    Total Energy =                       -387.1203539760670083

  Mulliken Charges: (a.u.)
   Center  Symbol    Alpha    Beta     Spin     Total
       1     H     0.43259  0.43259  0.00000  0.13482
       2     C     2.83086  2.83086  0.00000  0.33828
       3     C     3.20810  3.20810  0.00000 -0.41620
       4     O     4.23773  4.23773  0.00000 -0.47545
       5     C     3.16661  3.16661  0.00000 -0.33323
       6     H     0.39967  0.39967  0.00000  0.20066
       7     H     0.40667  0.40667  0.00000  0.18666
       8     C     3.15530  3.15530  0.00000 -0.31059
       9     H     0.41283  0.41283  0.00000  0.17434
      10     H     0.41962  0.41962  0.00000  0.16076
      11     C     3.15373  3.15373  0.00000 -0.30745
      12     H     0.41792  0.41792  0.00000  0.16416
      13     H     0.41815  0.41815  0.00000  0.16370
      14     C     3.15419  3.15419  0.00000 -0.30839
      15     H     0.42226  0.42226  0.00000  0.15549
      16     H     0.42294  0.42294  0.00000  0.15412
      17     C     3.15416  3.15416  0.00000 -0.30831
      18     H     0.42036  0.42036  0.00000  0.15928
      19     H     0.42183  0.42183  0.00000  0.15635
      20     C     3.24022  3.24022  0.00000 -0.48044
      21     H     0.42288  0.42288  0.00000  0.15423
      22     H     0.41954  0.41954  0.00000  0.16092
      23     H     0.42242  0.42242  0.00000  0.15517
      24     H     0.42025  0.42025  0.00000  0.15949
      25     H     0.41918  0.41918  0.00000  0.16165

   Total alpha = 36.00000, Total beta = 36.00000, Total charge = -0.00000
