  ==> Input File <==

--------------------------------------------------------------------------
set {
	reference rhf
	basis 6-31G*
}

set_num_threads( 4 )
memory 2 gb

molecule MOL {
0 1

O	 1.836840	 1.284734	 -0.170581
C	 1.705091	 0.115954	 0.001797
C	 0.395387	 -0.594197	 0.243099
O	 2.721346	 -0.737485	 -0.000216
C	 -0.809087	 0.342170	 0.253229
H	 0.294087	 -1.357777	 -0.523319
H	 0.485293	 -1.130285	 1.183974
C	 -2.121750	 -0.403320	 0.498632
H	 -0.857376	 0.872881	 -0.692393
H	 -0.666585	 1.099904	 1.017324
C	 -3.340669	 0.520769	 0.511102
H	 -2.257099	 -1.164110	 -0.268750
H	 -2.066156	 -0.935368	 1.447165
C	 -4.651804	 -0.224508	 0.757556
H	 -3.399097	 1.051115	 -0.436770
H	 -3.207357	 1.280777	 1.277752
H	 -4.830828	 -0.968975	 -0.013115
H	 -5.496639	 0.457176	 0.760950
H	 -4.637369	 -0.737902	 1.714911
C	 4.024888	 -0.184556	 -0.001949
H	 4.179030	 0.422472	 -0.882452
H	 4.701782	 -1.024608	 -0.003642
H	 4.181981	 0.421185	 0.878906

	symmetry c1
}
set optking {
	frozen_dihedral = ("
		1 2 4 20
	")
}

ee = optimize('scf')
oeprop('DIPOLE', 'QUADRUPOLE', 'MULLIKEN_CHARGES')
f=open( 'psi4out.xyz', 'w' )
f.write( "23  " )
f.write( str(ee) + "\n" )
f.write( MOL.save_string_xyz() )
f.close()
--------------------------------------------------------------------------

    Molecular point group: c1
  Charge       = 0
  Multiplicity = 1
  Basis Set: 6-31G*
  Basis Set:
  @DF-RHF Final Energy:  -422.97567088278635
    Total Energy =                       -422.9756708827857210
    Molecular point group: c1
  Basis Set: 6-31G*
  Basis Set:
  Basis Set: 6-31G*
  Basis Set:
  @DF-RHF Final Energy:  -422.97451473083447
    Total Energy =                       -422.9745147308342439
  Basis Set: 6-31G*
  Basis Set:
  Basis Set: 6-31G*
  Basis Set:
  @DF-RHF Final Energy:  -422.97573597999838
    Total Energy =                       -422.9757359799983760
  Basis Set: 6-31G*
  Basis Set:
  Basis Set: 6-31G*
  Basis Set:
  @DF-RHF Final Energy:  -422.97574284966004
    Total Energy =                       -422.9757428496602643
  Basis Set: 6-31G*
  Basis Set:
  Basis Set: 6-31G*
  Basis Set:
  @DF-RHF Final Energy:  -422.97574511179965
    Total Energy =                       -422.9757451117999381
  Basis Set: 6-31G*
  Basis Set:
  Basis Set: 6-31G*
  Basis Set:
  @DF-RHF Final Energy:  -422.97574636950816
    Total Energy =                       -422.9757463695079878
  Basis Set: 6-31G*
  Basis Set:
  Charge       = 0
  Multiplicity = 1
  Basis Set: 6-31G*
  Basis Set:

    Orbital Energies (a.u.)
    -----------------------

    Doubly Occupied:

       1A    -20.603145     2A    -20.545689     3A    -11.372336
       4A    -11.281117     5A    -11.235572     6A    -11.219300
       7A    -11.217908     8A    -11.216483     9A    -11.209659
      10A     -1.468977    11A     -1.362865    12A     -1.093221
      13A     -1.043604    14A     -0.986931    15A     -0.932257
      16A     -0.843695    17A     -0.795098    18A     -0.767225
      19A     -0.696770    20A     -0.683590    21A     -0.671521
      22A     -0.651716    23A     -0.609340    24A     -0.599577
      25A     -0.572907    26A     -0.560004    27A     -0.555541
      28A     -0.524511    29A     -0.520461    30A     -0.507748
      31A     -0.484427    32A     -0.469799    33A     -0.466283
      34A     -0.461589    35A     -0.455326    36A     -0.435291

  @DF-RHF Final Energy:  -422.97574655429133

   => Energetics <=

    Nuclear Repulsion Energy =            452.0897566653115405
    One-Electron Energy =               -1471.8880313689537616
    Two-Electron Energy =                 596.8225281493513421
    DFT Exchange-Correlation Energy =       0.0000000000000000
    Empirical Dispersion Energy =           0.0000000000000000
    PCM Polarization Energy =               0.0000000000000000
    EFP Energy =                            0.0000000000000000
    Total Energy =                       -422.9757465542908221
    Molecular point group: c1
  Basis Set: 6-31G*
  Basis Set:

  -Total Gradient:
     Atom            X                  Y                   Z
    ------   -----------------  -----------------  -----------------
       1       -0.000512672257    -0.000341753916    -0.003502922381
       2        0.000825883944     0.000466353887     0.006646421877
       3       -0.000015872292    -0.000009384266    -0.000077060298
       4       -0.000379835929    -0.000009145351    -0.005765985845
       5        0.000002659626    -0.000002072302    -0.000016191254
       6       -0.000005861095     0.000010492713    -0.000002859921
       7        0.000004831549    -0.000013635451     0.000001925126
       8        0.000002788217    -0.000004988771    -0.000006197180
       9        0.000001380052    -0.000001828241    -0.000003998789
      10       -0.000002665582     0.000005219879    -0.000001016106
      11        0.000004757417     0.000004838466     0.000012858489
      12       -0.000001229039     0.000002222048    -0.000005432284
      13       -0.000000022481    -0.000004583928    -0.000003687951
      14        0.000002338904    -0.000001611312     0.000003042863
      15        0.000000559171    -0.000004304229     0.000001302096
      16       -0.000000557540     0.000004975703     0.000000082933
      17        0.000001529037    -0.000000677090     0.000000719875
      18        0.000001174834     0.000000328145    -0.000001275862
      19       -0.000001681763     0.000000779950     0.000000848968
      20        0.000077129174    -0.000101139140     0.002716593469
      21       -0.000017638231    -0.000012591916    -0.000000671435
      22       -0.000011046388    -0.000000789820    -0.000003684194
      23        0.000024050663     0.000013294943     0.000007187803

  **** Optimization is complete! (in 7 steps) ****
    Final optimized geometry and variables:
    Molecular point group: c1

    Geometry (in Angstrom), charge = 0, multiplicity = 1:

    O            1.831382685936     1.281558098990    -0.319313902239
    C            1.695651794200     0.107742637303    -0.191191522797
    C            0.384502972338    -0.605083044290     0.033258517366
    O            2.704856872483    -0.752136140854    -0.261575933716
    C           -0.822360829898     0.328191398796     0.026455644685
    H            0.295386626598    -1.371947738001    -0.730962650778
    H            0.463864467937    -1.137275260026     0.977716188324
    C           -2.135514924644    -0.419299084948     0.262899729065
    H           -0.862782748987     0.853435398394    -0.922835511136
    H           -0.689104309307     1.090536592063     0.787444178639
    C           -3.356452416365     0.502160270227     0.261094101946
    H           -2.262410746933    -1.183332533845    -0.502656723777
    H           -2.087162825176    -0.947534915014     1.214023724402
    C           -4.668145591159    -0.245073846355     0.498578461087
    H           -3.407559533370     1.028805320352    -0.689229632172
    H           -3.231658796597     1.265304097374     1.026029642665
    H           -4.838323478678    -0.993296897480    -0.270503203158
    H           -5.514524381919     0.434620948919     0.491202287319
    H           -4.661489948990    -0.754322322830     1.458223146633
    C            4.012207611018    -0.208450357686    -0.282872580813
    H            4.163027482190     0.389300810844    -1.169979297830
    H            4.683390492259    -1.053122019185    -0.282808579673
    H            4.181652540484     0.403967177089     0.591480339051

  Mulliken Charges: (a.u.)
   Center  Symbol    Alpha    Beta     Spin     Total
       1     O     4.28533  4.28533  0.00000 -0.57066
       2     C     2.60481  2.60481  0.00000  0.79037
       3     C     3.20850  3.20850  0.00000 -0.41700
       4     O     4.30763  4.30763  0.00000 -0.61526
       5     C     3.15248  3.15248  0.00000 -0.30497
       6     H     0.40003  0.40003  0.00000  0.19994
       7     H     0.40132  0.40132  0.00000  0.19736
       8     C     3.15332  3.15332  0.00000 -0.30663
       9     H     0.41216  0.41216  0.00000  0.17569
      10     H     0.41125  0.41125  0.00000  0.17751
      11     C     3.15155  3.15155  0.00000 -0.30310
      12     H     0.42392  0.42392  0.00000  0.15216
      13     H     0.42412  0.42412  0.00000  0.15177
      14     C     3.23958  3.23958  0.00000 -0.47917
      15     H     0.42132  0.42132  0.00000  0.15736
      16     H     0.42132  0.42132  0.00000  0.15735
      17     H     0.42180  0.42180  0.00000  0.15641
      18     H     0.41847  0.41847  0.00000  0.16306
      19     H     0.42185  0.42185  0.00000  0.15631
      20     C     3.09252  3.09252  0.00000 -0.18504
      21     H     0.40764  0.40764  0.00000  0.18471
      22     H     0.40832  0.40832  0.00000  0.18335
      23     H     0.41076  0.41076  0.00000  0.17848

   Total alpha = 36.00000, Total beta = 36.00000, Total charge = -0.00000
