  ==> Input File <==

--------------------------------------------------------------------------
set {
	reference rhf
	basis 6-31G*
}

set_num_threads( 1 )
memory 2 gb

molecule MOL {
0 1

H	 -3.420663	 1.227371	 -1.044276
O	 -3.452007	 0.283848	 -0.965577
C	 -3.181085	 -0.079926	 0.364119
C	 -1.765924	 0.277073	 0.805136
H	 -3.327791	 -1.152017	 0.410903
H	 -3.905698	 0.375695	 1.036898
C	 -0.677594	 -0.417312	 -0.014550
H	 -1.637766	 1.358238	 0.744969
H	 -1.659588	 0.017670	 1.857098
C	 -0.198708	 0.416275	 -1.204920
H	 -1.050978	 -1.374931	 -0.364206
H	 0.168090	 -0.638276	 0.634592
C	 0.894795	 -0.282788	 -2.017106
H	 -1.049276	 0.641698	 -1.843777
H	 0.177537	 1.374288	 -0.848190
C	 1.470117	 0.549820	 -3.168594
H	 0.505767	 -1.219999	 -2.412059
H	 1.708066	 -0.551790	 -1.346251
C	 0.477593	 0.851414	 -4.293023
H	 2.319648	 0.016341	 -3.588102
H	 1.864325	 1.484458	 -2.774571
H	 0.057120	 -0.065156	 -4.698289
H	 0.965947	 1.377956	 -5.107333
H	 -0.345617	 1.471133	 -3.953263

	symmetry c1
}
set optking {
	frozen_dihedral = ("
		20 16 13 17,
		17 13 10 7,
		13 10 7 11,
		1 2 3 5,
		7 4 3 2
	")
}

ee = energy('scf')
oeprop('DIPOLE', 'QUADRUPOLE', 'MULLIKEN_CHARGES')
f=open( 'psi4out.xyz', 'w' )
f.write( "24  " )
f.write( str(ee) + "\n" )
f.write( MOL.save_string_xyz() )
f.close()
--------------------------------------------------------------------------

    Molecular point group: c1

    Geometry (in Angstrom), charge = 0, multiplicity = 1:

       Center              X                  Y                   Z               Mass
    ------------   -----------------  -----------------  -----------------  -----------------
           H         -2.562218767435     1.014733791544     0.275647988420     1.007825032070
           O         -2.593562767435     0.071210791544     0.354346988420    15.994914619560
           C         -2.322640767435    -0.292563208456     1.684042988420    12.000000000000
           C         -0.907479767435     0.064435791544     2.125059988420    12.000000000000
           H         -2.469346767435    -1.364654208456     1.730826988420     1.007825032070
           H         -3.047253767435     0.163057791544     2.356821988420     1.007825032070
           C          0.180850232565    -0.629949208456     1.305373988420    12.000000000000
           H         -0.779321767435     1.145600791544     2.064892988420     1.007825032070
           H         -0.801143767435    -0.194967208456     3.177021988420     1.007825032070
           C          0.659736232565     0.203637791544     0.115003988420    12.000000000000
           H         -0.192533767435    -1.587568208456     0.955717988420     1.007825032070
           H          1.026534232565    -0.850913208456     1.954515988420     1.007825032070
           C          1.753239232565    -0.495425208456    -0.697182011580    12.000000000000
           H         -0.190831767435     0.429060791544    -0.523853011580     1.007825032070
           H          1.035981232565     1.161650791544     0.471733988420     1.007825032070
           C          2.328561232565     0.337182791544    -1.848670011580    12.000000000000
           H          1.364211232565    -1.432636208456    -1.092135011580     1.007825032070
           H          2.566510232565    -0.764427208456    -0.026327011580     1.007825032070
           C          1.336037232565     0.638776791544    -2.973099011580    12.000000000000
           H          3.178092232565    -0.196296208456    -2.268178011580     1.007825032070
           H          2.722769232565     1.271820791544    -1.454647011580     1.007825032070
           H          0.915564232565    -0.277793208456    -3.378365011580     1.007825032070
           H          1.824391232565     1.165318791544    -3.787409011580     1.007825032070
           H          0.512827232565     1.258495791544    -2.633339011580     1.007825032070

  Charge       = 0
  Multiplicity = 1
  Basis Set: 6-31G*
  Basis Set:

    Orbital Energies (a.u.)
    -----------------------

    Doubly Occupied:

       1A    -20.555333     2A    -11.268320     3A    -11.216911
       4A    -11.211699     5A    -11.211659     6A    -11.208514
       7A    -11.207132     8A    -11.204382     9A     -1.362014
      10A     -1.086424    11A     -1.047123    12A     -0.983319
      13A     -0.913641    14A     -0.851143    15A     -0.799372
      16A     -0.774030    17A     -0.680637    18A     -0.649094
      19A     -0.632878    20A     -0.611639    21A     -0.600653
      22A     -0.576023    23A     -0.553180    24A     -0.534006
      25A     -0.527099    26A     -0.509404    27A     -0.488871
      28A     -0.484819    29A     -0.469000    30A     -0.457684
      31A     -0.453288    32A     -0.438512    33A     -0.417380

  @DF-RHF Final Energy:  -349.24404040103377

   => Energetics <=

    Nuclear Repulsion Energy =            394.9957098419861268
    One-Electron Energy =               -1256.5096570907344358
    Two-Electron Energy =                 512.2699068477152196
    DFT Exchange-Correlation Energy =       0.0000000000000000
    Empirical Dispersion Energy =           0.0000000000000000
    PCM Polarization Energy =               0.0000000000000000
    EFP Energy =                            0.0000000000000000
    Total Energy =                       -349.2440404010330894

  Mulliken Charges: (a.u.)
   Center  Symbol    Alpha    Beta     Spin     Total
       1     H     0.28292  0.28292  0.00000  0.43415
       2     O     4.36722  4.36722  0.00000 -0.73444
       3     C     2.99730  2.99730  0.00000  0.00539
       4     C     3.17192  3.17192  0.00000 -0.34385
       5     H     0.41588  0.41588  0.00000  0.16824
       6     H     0.42865  0.42865  0.00000  0.14270
       7     C     3.15059  3.15059  0.00000 -0.30118
       8     H     0.42622  0.42622  0.00000  0.14757
       9     H     0.41967  0.41967  0.00000  0.16067
      10     C     3.15830  3.15830  0.00000 -0.31661
      11     H     0.41794  0.41794  0.00000  0.16411
      12     H     0.42216  0.42216  0.00000  0.15568
      13     C     3.15280  3.15280  0.00000 -0.30561
      14     H     0.41136  0.41136  0.00000  0.17728
      15     H     0.42831  0.42831  0.00000  0.14337
      16     C     3.15226  3.15226  0.00000 -0.30453
      17     H     0.42297  0.42297  0.00000  0.15405
      18     H     0.42423  0.42423  0.00000  0.15154
      19     C     3.24019  3.24019  0.00000 -0.48039
      20     H     0.42178  0.42178  0.00000  0.15645
      21     H     0.42477  0.42477  0.00000  0.15046
      22     H     0.42097  0.42097  0.00000  0.15806
      23     H     0.42056  0.42056  0.00000  0.15887
      24     H     0.42100  0.42100  0.00000  0.15800

   Total alpha = 33.00000, Total beta = 33.00000, Total charge = -0.00000
