  ==> Input File <==

--------------------------------------------------------------------------
set {
	reference rhf
	basis 6-31G*
}

set_num_threads( 4 )
memory 2 gb

molecule MOL {
0 1

H	 3.829063	 3.629593	 -2.404055
C	 3.884154	 2.705847	 -1.836445
C	 2.610870	 2.481286	 -1.021893
H	 4.044338	 1.894338	 -2.540104
H	 4.758166	 2.764268	 -1.193414
C	 2.658186	 1.189202	 -0.203300
H	 1.757286	 2.454297	 -1.691421
H	 2.459004	 3.326165	 -0.351962
C	 1.404189	 0.946428	 0.636830
H	 2.807269	 0.344067	 -0.865995
H	 3.515848	 1.223106	 0.464763
C	 0.169600	 0.576866	 -0.172154
H	 1.578974	 0.123855	 1.328636
H	 1.179510	 1.810356	 1.258380
C	 -1.181045	 0.701995	 0.511084
O	 0.253022	 0.184567	 -1.297120
C	 -2.285934	 -0.139295	 -0.145128
H	 -1.449051	 1.751551	 0.493206
H	 -1.071135	 0.403303	 1.551943
C	 -3.651768	 0.085446	 0.506485
H	 -2.346596	 0.110469	 -1.202272
H	 -2.034737	 -1.195320	 -0.088721
C	 -4.759797	 -0.746382	 -0.137905
H	 -3.908762	 1.140117	 0.445781
H	 -3.588286	 -0.154158	 1.565709
H	 -4.868882	 -0.505166	 -1.191300
H	 -4.548009	 -1.809175	 -0.062213
H	 -5.715422	 -0.564821	 0.343442

	symmetry c1
}
set optking {
	frozen_dihedral = ("
		16 12 15 17
	")
}

ee = optimize('scf')
oeprop('DIPOLE', 'QUADRUPOLE', 'MULLIKEN_CHARGES')
f=open( 'psi4out.xyz', 'w' )
f.write( "28  " )
f.write( str(ee) + "\n" )
f.write( MOL.save_string_xyz() )
f.close()
--------------------------------------------------------------------------

    Molecular point group: c1
  Charge       = 0
  Multiplicity = 1
  Basis Set: 6-31G*
  Basis Set:
  @DF-RHF Final Energy:  -426.17091448475446
    Total Energy =                       -426.1709144847545758
    Molecular point group: c1
  Basis Set: 6-31G*
  Basis Set:
  Basis Set: 6-31G*
  Basis Set:
  @DF-RHF Final Energy:  -426.17079104557081
    Total Energy =                       -426.1707910455704678
  Basis Set: 6-31G*
  Basis Set:
  Basis Set: 6-31G*
  Basis Set:
  @DF-RHF Final Energy:  -426.17026637733943
    Total Energy =                       -426.1702663773395443
  Basis Set: 6-31G*
  Basis Set:
  Basis Set: 6-31G*
  Basis Set:
  @DF-RHF Final Energy:  -426.17142920420497
    Total Energy =                       -426.1714292042048555
  Basis Set: 6-31G*
  Basis Set:
  Basis Set: 6-31G*
  Basis Set:
  @DF-RHF Final Energy:  -426.17105072488459
    Total Energy =                       -426.1710507248841395
  Basis Set: 6-31G*
  Basis Set:
  Basis Set: 6-31G*
  Basis Set:
  @DF-RHF Final Energy:  -426.17143705329420
    Total Energy =                       -426.1714370532936300
  Basis Set: 6-31G*
  Basis Set:
  Basis Set: 6-31G*
  Basis Set:
  @DF-RHF Final Energy:  -426.17145696000841
    Total Energy =                       -426.1714569600079585
  Basis Set: 6-31G*
  Basis Set:
  Charge       = 0
  Multiplicity = 1
  Basis Set: 6-31G*
  Basis Set:

    Orbital Energies (a.u.)
    -----------------------

    Doubly Occupied:

       1A    -20.549581     2A    -11.324076     3A    -11.231102
       4A    -11.231024     5A    -11.219418     6A    -11.217610
       7A    -11.216978     8A    -11.212648     9A    -11.210134
      10A    -11.206025    11A     -1.395233    12A     -1.088673
      13A     -1.077498    14A     -1.022314    15A     -0.990738
      16A     -0.910651    17A     -0.865725    18A     -0.806362
      19A     -0.791618    20A     -0.723916    21A     -0.668747
      22A     -0.654250    23A     -0.625710    24A     -0.618696
      25A     -0.609154    26A     -0.584012    27A     -0.578944
      28A     -0.573161    29A     -0.536793    30A     -0.527643
      31A     -0.520919    32A     -0.508678    33A     -0.490577
      34A     -0.480254    35A     -0.474555    36A     -0.470608
      37A     -0.468647    38A     -0.466122    39A     -0.456554
      40A     -0.394226

  @DF-RHF Final Energy:  -426.17145607218265

   => Energetics <=

    Nuclear Repulsion Energy =            529.4046699507379117
    One-Electron Energy =               -1627.1531107864602745
    Two-Electron Energy =                 671.5769847635397127
    DFT Exchange-Correlation Energy =       0.0000000000000000
    Empirical Dispersion Energy =           0.0000000000000000
    PCM Polarization Energy =               0.0000000000000000
    EFP Energy =                            0.0000000000000000
    Total Energy =                       -426.1714560721825364
    Molecular point group: c1
  Basis Set: 6-31G*
  Basis Set:

  -Total Gradient:
     Atom            X                  Y                   Z
    ------   -----------------  -----------------  -----------------
       1        0.000000727065     0.000000331197    -0.000000768369
       2       -0.000004194639     0.000001527209    -0.000009987098
       3        0.000029903743     0.000013152277     0.000034747624
       4       -0.000000021998    -0.000000328428     0.000001464808
       5       -0.000006011564    -0.000000146352     0.000001450385
       6        0.000031819800    -0.000031281286    -0.000014966120
       7       -0.000003896905     0.000001040438    -0.000012526544
       8       -0.000002385177     0.000006120250    -0.000005503727
       9       -0.000012792648     0.000053364199     0.000018741677
      10        0.000001040501     0.000000252382     0.000014272429
      11        0.000006853532     0.000011073102    -0.000010496258
      12        0.000117642253    -0.001471364453     0.000572197152
      13       -0.000018976827    -0.000004961909    -0.000026433129
      14        0.000027711972    -0.000003143502     0.000016570257
      15       -0.000219802551     0.000945832285    -0.000595532476
      16       -0.000091803463     0.000856332903    -0.000306590424
      17        0.000171694653    -0.000494550067     0.000351742924
      18       -0.000038584721    -0.000027606951    -0.000002777978
      19        0.000021733809     0.000049683523     0.000044830162
      20       -0.000003143595     0.000075016506    -0.000037016382
      21       -0.000007796931     0.000000602888    -0.000024000263
      22        0.000010639202     0.000039028801    -0.000030503552
      23        0.000009597684    -0.000046010281     0.000033835786
      24       -0.000038937372     0.000005505515    -0.000018097923
      25        0.000019500657     0.000036556381    -0.000005563595
      26        0.000001136713     0.000010911871     0.000016758179
      27       -0.000000806263    -0.000007705890    -0.000019069813
      28       -0.000000846931    -0.000019232606     0.000013222270

  **** Optimization is complete! (in 8 steps) ****
    Final optimized geometry and variables:
    Molecular point group: c1

    Geometry (in Angstrom), charge = 0, multiplicity = 1:

    H            4.006572965173     2.784611268629    -2.058450270098
    C            4.032803339188     1.867666758725    -1.477915575023
    C            2.736394792547     1.674019853521    -0.692500188243
    H            4.197213066014     1.044579736340    -2.167013766355
    H            4.891543230614     1.920782948582    -0.814158352521
    C            2.742921675688     0.392634892814     0.144226209938
    H            1.899097300995     1.651069883904    -1.382270751857
    H            2.581701691900     2.530041986476    -0.037535580428
    C            1.463599233163     0.179742778870     0.952284448218
    H            2.897843997700    -0.463543694336    -0.503176726670
    H            3.582912404205     0.423370152240     0.834460028734
    C            0.245803169499    -0.201432586005     0.126853077985
    H            1.603889483581    -0.626065244815     1.672461231238
    H            1.225243111205     1.060601760562     1.545253268924
    C           -1.097238153863    -0.095693253914     0.828568087026
    O            0.335567088600    -0.561250571309    -1.007868238604
    C           -2.206703009208    -0.912955368046     0.171158357632
    H           -1.360006796792     0.962256236308     0.840049751890
    H           -0.975231081677    -0.377601686110     1.872205083298
    C           -3.553013690892    -0.754057870040     0.879435536893
    H           -2.297803525709    -0.617493598243    -0.868221364271
    H           -1.919878781941    -1.961306483199     0.163187646413
    C           -4.661164708868    -1.585691347861     0.234613218468
    H           -3.842275980722     0.295039277987     0.876594412687
    H           -3.451246065876    -1.038945343041     1.924790841920
    H           -4.812688457498    -1.298794322138    -0.801862634487
    H           -4.416703350001    -2.643902931747     0.251240672649
    H           -5.604342555074    -1.455481976733     0.756073906572

  Mulliken Charges: (a.u.)
   Center  Symbol    Alpha    Beta     Spin     Total
       1     H     0.41932  0.41932  0.00000  0.16137
       2     C     3.24013  3.24013  0.00000 -0.48025
       3     C     3.15651  3.15651  0.00000 -0.31302
       4     H     0.41835  0.41835  0.00000  0.16331
       5     H     0.42359  0.42359  0.00000  0.15282
       6     C     3.14954  3.14954  0.00000 -0.29908
       7     H     0.40987  0.40987  0.00000  0.18026
       8     H     0.42762  0.42762  0.00000  0.14476
       9     C     3.21020  3.21020  0.00000 -0.42040
      10     H     0.40727  0.40727  0.00000  0.18546
      11     H     0.42163  0.42163  0.00000  0.15674
      12     C     2.73045  2.73045  0.00000  0.53911
      13     H     0.40480  0.40480  0.00000  0.19040
      14     H     0.41147  0.41147  0.00000  0.17706
      15     C     3.20851  3.20851  0.00000 -0.41703
      16     O     4.26906  4.26906  0.00000 -0.53812
      17     C     3.14884  3.14884  0.00000 -0.29769
      18     H     0.40596  0.40596  0.00000  0.18808
      19     H     0.41246  0.41246  0.00000  0.17509
      20     C     3.15343  3.15343  0.00000 -0.30686
      21     H     0.40721  0.40721  0.00000  0.18558
      22     H     0.41752  0.41752  0.00000  0.16496
      23     C     3.23932  3.23932  0.00000 -0.47863
      24     H     0.42329  0.42329  0.00000  0.15341
      25     H     0.42428  0.42428  0.00000  0.15143
      26     H     0.41962  0.41962  0.00000  0.16077
      27     H     0.42061  0.42061  0.00000  0.15878
      28     H     0.41916  0.41916  0.00000  0.16168

   Total alpha = 40.00000, Total beta = 40.00000, Total charge = -0.00000
