  ==> Input File <==

--------------------------------------------------------------------------
set {
	reference rhf
	basis 6-31G*
}

set_num_threads( 4 )
memory 2 gb

molecule MOL {
0 1

H	 2.591676	 2.013956	 0.335017
O	 3.341076	 1.666752	 -0.126416
C	 3.569581	 0.339145	 0.272707
C	 2.539767	 -0.640285	 -0.279495
H	 4.553106	 0.084646	 -0.100901
H	 3.608576	 0.269204	 1.359154
C	 1.433318	 0.020048	 -1.105690
H	 3.057059	 -1.378830	 -0.886395
H	 2.095448	 -1.173745	 0.559176
C	 0.386301	 -0.982080	 -1.599969
H	 1.878207	 0.529112	 -1.956156
H	 0.940311	 0.784662	 -0.505148
C	 -0.790668	 -0.360928	 -2.361056
H	 0.871323	 -1.724531	 -2.231133
H	 -0.006116	 -1.524035	 -0.742068
C	 -0.425132	 0.276104	 -3.704579
H	 -1.532435	 -1.137450	 -2.536019
H	 -1.275112	 0.382145	 -1.729396
C	 -1.645302	 0.787320	 -4.473527
H	 0.103613	 -0.453803	 -4.315950
H	 0.264877	 1.102414	 -3.551606
C	 -1.282625	 1.429447	 -5.812109
H	 -2.334511	 -0.036937	 -4.644054
H	 -2.180333	 1.509562	 -3.860344
H	 -0.774577	 0.721998	 -6.461437
H	 -2.168094	 1.779656	 -6.333580
H	 -0.622710	 2.281197	 -5.672828

	symmetry c1
}
set optking {
	frozen_dihedral = ("
		8 4 3 2
	")
}

ee = optimize('scf')
oeprop('DIPOLE', 'QUADRUPOLE', 'MULLIKEN_CHARGES')
f=open( 'psi4out.xyz', 'w' )
f.write( "27  " )
f.write( str(ee) + "\n" )
f.write( MOL.save_string_xyz() )
f.close()
--------------------------------------------------------------------------

    Molecular point group: c1
  Charge       = 0
  Multiplicity = 1
  Basis Set: 6-31G*
  Basis Set:
  @DF-RHF Final Energy:  -388.27264126589790
    Total Energy =                       -388.2726412658975050
    Molecular point group: c1
  Basis Set: 6-31G*
  Basis Set:
  Basis Set: 6-31G*
  Basis Set:
  @DF-RHF Final Energy:  -388.27318479646789
    Total Energy =                       -388.2731847964678309
  Basis Set: 6-31G*
  Basis Set:
  Basis Set: 6-31G*
  Basis Set:
  @DF-RHF Final Energy:  -388.27395290381753
    Total Energy =                       -388.2739529038177579
  Basis Set: 6-31G*
  Basis Set:
  Basis Set: 6-31G*
  Basis Set:
  @DF-RHF Final Energy:  -388.27396984643212
    Total Energy =                       -388.2739698464323510
  Basis Set: 6-31G*
  Basis Set:
  Basis Set: 6-31G*
  Basis Set:
  @DF-RHF Final Energy:  -388.27397560012918
    Total Energy =                       -388.2739756001286651
  Basis Set: 6-31G*
  Basis Set:
  Basis Set: 6-31G*
  Basis Set:
  @DF-RHF Final Energy:  -388.27398026313148
    Total Energy =                       -388.2739802631310795
  Basis Set: 6-31G*
  Basis Set:
  Charge       = 0
  Multiplicity = 1
  Basis Set: 6-31G*
  Basis Set:

    Orbital Energies (a.u.)
    -----------------------

    Doubly Occupied:

       1A    -20.553003     2A    -11.267947     3A    -11.216132
       4A    -11.214670     5A    -11.213888     6A    -11.213414
       7A    -11.212841     8A    -11.210810     9A    -11.206812
      10A     -1.359326    11A     -1.091505    12A     -1.056987
      13A     -1.006955    14A     -0.945738    15A     -0.887098
      16A     -0.818818    17A     -0.798642    18A     -0.774347
      19A     -0.690045    20A     -0.645497    21A     -0.636880
      22A     -0.614185    23A     -0.601237    24A     -0.585370
      25A     -0.572302    26A     -0.556117    27A     -0.540764
      28A     -0.524220    29A     -0.499502    30A     -0.496955
      31A     -0.478901    32A     -0.470038    33A     -0.463406
      34A     -0.457896    35A     -0.445135    36A     -0.441840
      37A     -0.422073

  @DF-RHF Final Energy:  -388.27398065486693

   => Energetics <=

    Nuclear Repulsion Energy =            460.7696235615636624
    One-Electron Energy =               -1439.7046148141623689
    Two-Electron Energy =                 590.6610105977320018
    DFT Exchange-Correlation Energy =       0.0000000000000000
    Empirical Dispersion Energy =           0.0000000000000000
    PCM Polarization Energy =               0.0000000000000000
    EFP Energy =                            0.0000000000000000
    Total Energy =                       -388.2739806548667048
    Molecular point group: c1
  Basis Set: 6-31G*
  Basis Set:

  -Total Gradient:
     Atom            X                  Y                   Z
    ------   -----------------  -----------------  -----------------
       1        0.000006760454     0.000006582640    -0.000002401133
       2       -0.000033753896     0.000026222643     0.000016879474
       3        0.000016593664    -0.000040591583    -0.000045953472
       4        0.000001608909     0.000036710304    -0.000009614597
       5       -0.000000138164    -0.000018049628    -0.000002881344
       6       -0.000009484986    -0.000017589487     0.000001581687
       7       -0.000018516993    -0.000004046986     0.000008653347
       8        0.000021920250    -0.000007131238     0.000044739124
       9        0.000006389534     0.000000517012     0.000012718709
      10       -0.000002261114     0.000028476757     0.000011828602
      11        0.000004708851     0.000011266084    -0.000023768538
      12       -0.000016492595    -0.000005340306    -0.000013065297
      13        0.000005737139    -0.000009343544    -0.000001568063
      14       -0.000015252667     0.000005778884    -0.000013988482
      15        0.000008288057     0.000000150101     0.000008952490
      16        0.000007679451    -0.000009405346    -0.000002387615
      17        0.000012668734    -0.000013451886     0.000006344782
      18       -0.000003265765    -0.000004529751    -0.000003290798
      19       -0.000003854191     0.000011920257     0.000006755633
      20       -0.000008823366    -0.000005846419    -0.000001802376
      21        0.000017485896     0.000001079089    -0.000002195227
      22        0.000002050033     0.000006513645     0.000004589049
      23        0.000005897706     0.000000597632    -0.000003642183
      24       -0.000006146178    -0.000001483387     0.000002097724
      25       -0.000000386230    -0.000000828788     0.000001636674
      26        0.000000442696     0.000000333084     0.000001623166
      27        0.000000144764     0.000001490217    -0.000001841336

  **** Optimization is complete! (in 7 steps) ****
    Final optimized geometry and variables:
    Molecular point group: c1

    Geometry (in Angstrom), charge = 0, multiplicity = 1:

    H            1.868419427003     1.749796847426     2.398623355770
    O            2.616916760523     1.361564269597     1.969195793083
    C            2.758132569965     0.024830272659     2.378783406951
    C            1.661545249599    -0.939948020255     1.858930212857
    H            3.725147163339    -0.281171613098     2.004491981294
    H            2.810809918665    -0.023756566304     3.463741698264
    C            0.562697463045    -0.284739251226     1.016728250797
    H            2.131469124495    -1.718702176786     1.264124712189
    H            1.201133995988    -1.448966686543     2.702459313329
    C           -0.451145942957    -1.309287524594     0.499935692266
    H            1.017175497331     0.249821710338     0.191280317614
    H            0.033888803011     0.460215120610     1.609940395850
    C           -1.633858194376    -0.707862166405    -0.268244730112
    H            0.059063030075    -2.030998076582    -0.135948213638
    H           -0.841167023186    -1.873996018153     1.344544081089
    C           -1.265833278438    -0.042695475973    -1.597267913662
    H           -2.353988973236    -1.499869472384    -0.463723771500
    H           -2.144831787607     0.014277314891     0.366914103221
    C           -2.486938341992     0.458608115471    -2.371239306521
    H           -0.717963041233    -0.753636977367    -2.214293501419
    H           -0.592143047568     0.792483602287    -1.423385598800
    C           -2.121718630581     1.127358234299    -3.696037077998
    H           -3.160160158622    -0.374638772989    -2.561464043138
    H           -3.040688989572     1.162303356323    -1.753056062811
    H           -1.595348605133     0.438489413801    -4.350771662639
    H           -3.007668708712     1.470781802641    -4.221329620510
    H           -1.477467501309     1.987439793716    -3.536741609214

  Mulliken Charges: (a.u.)
   Center  Symbol    Alpha    Beta     Spin     Total
       1     H     0.28133  0.28133  0.00000  0.43733
       2     O     4.36888  4.36888  0.00000 -0.73776
       3     C     2.99435  2.99435  0.00000  0.01130
       4     C     3.18180  3.18180  0.00000 -0.36359
       5     H     0.41402  0.41402  0.00000  0.17195
       6     H     0.42875  0.42875  0.00000  0.14249
       7     C     3.15139  3.15139  0.00000 -0.30278
       8     H     0.41756  0.41756  0.00000  0.16487
       9     H     0.42146  0.42146  0.00000  0.15708
      10     C     3.15403  3.15403  0.00000 -0.30806
      11     H     0.40739  0.40739  0.00000  0.18522
      12     H     0.43364  0.43364  0.00000  0.13272
      13     C     3.15299  3.15299  0.00000 -0.30598
      14     H     0.42332  0.42332  0.00000  0.15336
      15     H     0.42326  0.42326  0.00000  0.15349
      16     C     3.15304  3.15304  0.00000 -0.30608
      17     H     0.42214  0.42214  0.00000  0.15572
      18     H     0.42502  0.42502  0.00000  0.14995
      19     C     3.15109  3.15109  0.00000 -0.30219
      20     H     0.42451  0.42451  0.00000  0.15098
      21     H     0.42056  0.42056  0.00000  0.15887
      22     C     3.23916  3.23916  0.00000 -0.47831
      23     H     0.42357  0.42357  0.00000  0.15285
      24     H     0.42361  0.42361  0.00000  0.15278
      25     H     0.42186  0.42186  0.00000  0.15628
      26     H     0.41982  0.41982  0.00000  0.16036
      27     H     0.42143  0.42143  0.00000  0.15715

   Total alpha = 37.00000, Total beta = 37.00000, Total charge =  0.00000
