  ==> Input File <==

--------------------------------------------------------------------------
set {
	reference rhf
	basis cc-pvtz
}

set_num_threads( 4 )
memory 2 gb

molecule MOL {
0 1

H	 -2.607882	 0.668574	 0.347673
O	 -2.313989	 -0.142475	 -0.025864
C	 -0.943808	 -0.065018	 -0.330000
H	 -0.812293	 -0.225641	 -1.398673
C	 -0.231030	 -1.182113	 0.407592
C	 -0.353797	 1.300461	 0.050970
H	 -0.312800	 -0.992012	 1.473041
H	 -0.738841	 -2.119564	 0.220514
C	 1.246176	 -1.268044	 -0.015480
H	 -0.539537	 2.008579	 -0.751815
H	 -0.889989	 1.662858	 0.920677
C	 1.153605	 1.231851	 0.356834
H	 1.823096	 -1.684665	 0.802361
H	 1.352335	 -1.958223	 -0.845114
C	 1.826409	 0.100723	 -0.416008
H	 1.622968	 2.181508	 0.128734
H	 1.301983	 1.066493	 1.419367
H	 2.897299	 0.112407	 -0.249665
H	 1.683458	 0.265621	 -1.480024

	symmetry c1
}
set optking {
	frozen_dihedral = ("
		1 2 3 4
	")
}

ee = optimize('scf')
oeprop('DIPOLE', 'QUADRUPOLE', 'MULLIKEN_CHARGES')
f=open( 'psi4out.xyz', 'w' )
f.write( "19  " )
f.write( str(ee) + "\n" )
f.write( MOL.save_string_xyz() )
f.close()
--------------------------------------------------------------------------

    Molecular point group: c1
  Charge       = 0
  Multiplicity = 1
  Basis Set: CC-PVTZ
  Basis Set:
  @DF-RHF Final Energy:  -309.16108798661440
    Total Energy =                       -309.1610879866142341
    Molecular point group: c1
  Basis Set: CC-PVTZ
  Basis Set:
  Basis Set: CC-PVTZ
  Basis Set:
  @DF-RHF Final Energy:  -309.16149766192586
    Total Energy =                       -309.1614976619259778
  Basis Set: CC-PVTZ
  Basis Set:
  Basis Set: CC-PVTZ
  Basis Set:
  @DF-RHF Final Energy:  -309.16160309070892
    Total Energy =                       -309.1616030907089225
  Basis Set: CC-PVTZ
  Basis Set:
  Charge       = 0
  Multiplicity = 1
  Basis Set: CC-PVTZ
  Basis Set:

    Orbital Energies (a.u.)
    -----------------------

    Doubly Occupied:

       1A    -20.540875     2A    -11.267207     3A    -11.220031
       4A    -11.218715     5A    -11.215318     6A    -11.213799
       7A    -11.206270     8A     -1.361404     9A     -1.111995
      10A     -1.005857    11A     -0.990274    12A     -0.847250
      13A     -0.841850    14A     -0.746233    15A     -0.677249
      16A     -0.669814    17A     -0.622019    18A     -0.605242
      19A     -0.582425    20A     -0.553936    21A     -0.529757
      22A     -0.521732    23A     -0.502852    24A     -0.487386
      25A     -0.470205    26A     -0.450610    27A     -0.428449
      28A     -0.412627

  @DF-RHF Final Energy:  -309.16160482389267

   => Energetics <=

    Nuclear Repulsion Energy =            331.9459108935255358
    One-Electron Energy =               -1077.6122626490587209
    Two-Electron Energy =                 436.5047469316405113
    DFT Exchange-Correlation Energy =       0.0000000000000000
    Empirical Dispersion Energy =           0.0000000000000000
    PCM Polarization Energy =               0.0000000000000000
    EFP Energy =                            0.0000000000000000
    Total Energy =                       -309.1616048238927306
    Molecular point group: c1
  Basis Set: CC-PVTZ
  Basis Set:

  -Total Gradient:
     Atom            X                  Y                   Z
    ------   -----------------  -----------------  -----------------
       1        0.000064474179    -0.000119323519     0.000240226377
       2       -0.000135808147     0.000050351111    -0.000297723330
       3       -0.000082895951     0.000260845296     0.000096526399
       4        0.000055685485    -0.000233083607     0.000099152292
       5       -0.000000806709    -0.000059564697    -0.000077780485
       6        0.000054820789     0.000005991348    -0.000045216127
       7       -0.000013622468     0.000019992803    -0.000041585490
       8       -0.000038403012    -0.000009006063     0.000017303904
       9       -0.000012831556     0.000027717587     0.000001348695
      10       -0.000000301203     0.000012363234     0.000005328422
      11        0.000002688841    -0.000004157928    -0.000011780246
      12       -0.000008783185     0.000035922841    -0.000017971946
      13        0.000022010408     0.000005180380    -0.000000445371
      14        0.000008787818     0.000007412146     0.000013714595
      15        0.000046700363    -0.000013540722     0.000011870325
      16        0.000020813362     0.000010439384     0.000022441927
      17        0.000010782903    -0.000002852822    -0.000004388881
      18       -0.000003690007    -0.000000102543    -0.000012147287
      19        0.000010378093     0.000005415770     0.000001126227

  **** Optimization is complete! (in 4 steps) ****
    Final optimized geometry and variables:
    Molecular point group: c1

    Geometry (in Angstrom), charge = 0, multiplicity = 1:

    H           -2.642836679424     0.669580789085     0.284736537890
    O           -2.328735070827    -0.134531855619    -0.082357822152
    C           -0.943075557236    -0.066291338577    -0.320666236475
    H           -0.801294293320    -0.220983200593    -1.386434358039
    C           -0.226367657769    -1.185002989943     0.415987252978
    C           -0.355031879645     1.296518207311     0.063265065222
    H           -0.300650598450    -0.997510081932     1.483277616681
    H           -0.737249610130    -2.121385034606     0.231252025385
    C            1.248085090398    -1.272294429523    -0.017462392751
    H           -0.559915504777     2.009857580836    -0.728111677987
    H           -0.867749692426     1.657461169451     0.951513221716
    C            1.156735328108     1.229017839032     0.349746470197
    H            1.833062889433    -1.685299669248     0.796542351337
    H            1.348656677247    -1.964436784414    -0.846011850941
    C            1.822512593698     0.096442358222    -0.427321335514
    H            1.620811783729     2.179002069071     0.112963134021
    H            1.318802231389     1.066772871453     1.410649346533
    H            2.894650543911     0.111559757234    -0.269953846148
    H            1.669961567577     0.258990044313    -1.490009053629

  Mulliken Charges: (a.u.)
   Center  Symbol    Alpha    Beta     Spin     Total
       1     H     0.39228  0.39228  0.00000  0.21544
       2     O     4.20881  4.20881  0.00000 -0.41763
       3     C     2.92411  2.92411  0.00000  0.15178
       4     H     0.45457  0.45457  0.00000  0.09085
       5     C     3.09490  3.09490  0.00000 -0.18980
       6     C     3.12339  3.12339  0.00000 -0.24679
       7     H     0.45926  0.45926  0.00000  0.08149
       8     H     0.44130  0.44130  0.00000  0.11740
       9     C     3.11398  3.11398  0.00000 -0.22796
      10     H     0.44341  0.44341  0.00000  0.11317
      11     H     0.45721  0.45721  0.00000  0.08557
      12     C     3.10008  3.10008  0.00000 -0.20016
      13     H     0.44725  0.44725  0.00000  0.10550
      14     H     0.44684  0.44684  0.00000  0.10632
      15     C     3.10261  3.10261  0.00000 -0.20521
      16     H     0.44170  0.44170  0.00000  0.11659
      17     H     0.45262  0.45262  0.00000  0.09476
      18     H     0.44264  0.44264  0.00000  0.11471
      19     H     0.45303  0.45303  0.00000  0.09395

   Total alpha = 28.00000, Total beta = 28.00000, Total charge = -0.00000
