  ==> Input File <==

--------------------------------------------------------------------------
set {
	reference rhf
	basis 6-31G*
}

set_num_threads( 4 )
memory 2 gb

molecule MOL {
0 1

H	 -2.824144	 -0.243268	 -0.736869
O	 -2.347518	 -0.290803	 0.079804
C	 -1.184022	 0.487508	 -0.006784
C	 0.062599	 -0.378592	 0.031606
H	 -1.176523	 1.099369	 -0.904519
H	 -1.187323	 1.153111	 0.844927
O	 1.171513	 0.459272	 -0.058250
H	 0.050699	 -1.089204	 -0.797170
H	 0.078739	 -0.954914	 0.954740
C	 2.397842	 -0.198080	 -0.002151
H	 2.508049	 -0.905315	 -0.822092
H	 3.173794	 0.550865	 -0.078850
H	 2.517602	 -0.735921	 0.936026

	symmetry c1
}
set optking {
	frozen_dihedral = ("
		1 2 3 5
	")
}

ee = optimize('scf')
oeprop('DIPOLE', 'QUADRUPOLE', 'MULLIKEN_CHARGES')
f=open( 'psi4out.xyz', 'w' )
f.write( "13  " )
f.write( str(ee) + "\n" )
f.write( MOL.save_string_xyz() )
f.close()
--------------------------------------------------------------------------

    Molecular point group: c1
  Charge       = 0
  Multiplicity = 1
  Basis Set: 6-31G*
  Basis Set:
  @DF-RHF Final Energy:  -267.94929081143891
    Total Energy =                       -267.9492908114390275
    Molecular point group: c1
  Basis Set: 6-31G*
  Basis Set:
  Basis Set: 6-31G*
  Basis Set:
  @DF-RHF Final Energy:  -267.94955551517938
    Total Energy =                       -267.9495555151795543
  Basis Set: 6-31G*
  Basis Set:
  Basis Set: 6-31G*
  Basis Set:
  @DF-RHF Final Energy:  -267.94966108545111
    Total Energy =                       -267.9496610854514529
  Basis Set: 6-31G*
  Basis Set:
  Basis Set: 6-31G*
  Basis Set:
  @DF-RHF Final Energy:  -267.94966376291586
    Total Energy =                       -267.9496637629160887
  Basis Set: 6-31G*
  Basis Set:
  Charge       = 0
  Multiplicity = 1
  Basis Set: 6-31G*
  Basis Set:

    Orbital Energies (a.u.)
    -----------------------

    Doubly Occupied:

       1A    -20.559423     2A    -20.558425     3A    -11.269274
       4A    -11.267980     5A    -11.266449     6A     -1.385689
       7A     -1.363213     8A     -1.017594     9A     -0.911758
      10A     -0.835169    11A     -0.712486    12A     -0.675716
      13A     -0.649605    14A     -0.639892    15A     -0.601793
      16A     -0.554499    17A     -0.546160    18A     -0.489109
      19A     -0.479971    20A     -0.437104    21A     -0.418986

  @DF-RHF Final Energy:  -267.94966415781880

   => Energetics <=

    Nuclear Repulsion Energy =            190.1795581945199842
    One-Electron Energy =                -742.9778591490135113
    Two-Electron Energy =                 284.8486367966750095
    DFT Exchange-Correlation Energy =       0.0000000000000000
    Empirical Dispersion Energy =           0.0000000000000000
    PCM Polarization Energy =               0.0000000000000000
    EFP Energy =                            0.0000000000000000
    Total Energy =                       -267.9496641578184608
    Molecular point group: c1
  Basis Set: 6-31G*
  Basis Set:

  -Total Gradient:
     Atom            X                  Y                   Z
    ------   -----------------  -----------------  -----------------
       1       -0.000379020613     0.000562699888     0.000223036768
       2        0.000581638946    -0.000789383465    -0.000357543155
       3       -0.000494809070     0.000686647257     0.000453095215
       4        0.000010975820    -0.000011924999    -0.000041214191
       5        0.000309871638    -0.000470577643    -0.000298531927
       6       -0.000013366145    -0.000001240683     0.000002895522
       7        0.000010057915     0.000016320690     0.000012320749
       8       -0.000011215969    -0.000012418039    -0.000004378172
       9       -0.000000584427     0.000021205040     0.000001161317
      10       -0.000007645234    -0.000003823244     0.000013028169
      11       -0.000006406678     0.000002528948    -0.000001461869
      12       -0.000004141357     0.000002414095    -0.000001296648
      13        0.000004645172    -0.000002447846    -0.000001111778

  **** Optimization is complete! (in 5 steps) ****
    Final optimized geometry and variables:
    Molecular point group: c1

    Geometry (in Angstrom), charge = 0, multiplicity = 1:

    H           -2.808166083715    -0.302084767264    -0.722031190696
    O           -2.328253481888    -0.310087163470     0.091519894623
    C           -1.180465493332     0.495403045050    -0.012335920869
    C            0.059061619944    -0.378128490935     0.017315940237
    H           -1.182957689905     1.082697106641    -0.924984353832
    H           -1.158508815312     1.183594224995     0.823444755614
    O            1.174020673932     0.456236190004    -0.050504246243
    H            0.042581185051    -1.073316705489    -0.821645978797
    H            0.066636594776    -0.967536361080     0.932178397934
    C            2.395457203798    -0.210309135123    -0.002227306816
    H            2.504221906450    -0.901945556333    -0.835523312625
    H            3.177201427739     0.534481006425    -0.060741621272
    H            2.507569004195    -0.767633238993     0.925579122796

  Mulliken Charges: (a.u.)
   Center  Symbol    Alpha    Beta     Spin     Total
       1     H     0.27780  0.27780  0.00000  0.44439
       2     O     4.37454  4.37454  0.00000 -0.74907
       3     C     3.00659  3.00659  0.00000 -0.01319
       4     C     2.99163  2.99163  0.00000  0.01673
       5     H     0.42323  0.42323  0.00000  0.15354
       6     H     0.41303  0.41303  0.00000  0.17394
       7     O     4.30905  4.30905  0.00000 -0.61810
       8     H     0.43219  0.43219  0.00000  0.13563
       9     H     0.42365  0.42365  0.00000  0.15271
      10     C     3.07944  3.07944  0.00000 -0.15887
      11     H     0.42931  0.42931  0.00000  0.14139
      12     H     0.41156  0.41156  0.00000  0.17687
      13     H     0.42798  0.42798  0.00000  0.14403

   Total alpha = 21.00000, Total beta = 21.00000, Total charge =  0.00000
