                              Psi4 1.0.54 Driver

  ==> Input File <==

--------------------------------------------------------------------------
set {
	reference rhf
	basis cc-pvtz
}

set_num_threads( 4 )
memory 2 gb

molecule MOL {
0 1

H	 -2.827386	 -0.120976	 2.046598
O	 -1.988097	 0.163569	 1.735688
C	 -2.021813	 0.336996	 0.342658
C	 -0.669613	 0.837286	 -0.127252
H	 -2.251497	 -0.605112	 -0.148667
H	 -2.796759	 1.049740	 0.067271
C	 0.490865	 -0.082543	 0.241244
H	 -0.708709	 0.967192	 -1.204587
H	 -0.507562	 1.822272	 0.303070
C	 1.839800	 0.429565	 -0.255472
H	 0.305636	 -1.070211	 -0.165276
H	 0.527397	 -0.195943	 1.322876
C	 3.001144	 -0.485193	 0.119072
H	 1.804373	 0.541073	 -1.335756
H	 2.020437	 1.423114	 0.146921
H	 2.866892	 -1.477297	 -0.298806
H	 3.943543	 -0.095749	 -0.249061
H	 3.085064	 -0.590459	 1.195790

	symmetry c1
}
set optking {
	frozen_dihedral = ("
		2 3 4 8
	")
}

ee,wfn = optimize('scf', return_wfn=True)
oeprop( wfn, 'DIPOLE', 'QUADRUPOLE', 'MULLIKEN_CHARGES')
f=open( 'psi4out.xyz', 'w' )
f.write( "18  " )
f.write( str(ee) + "\n" )
f.write( MOL.save_string_xyz() )
f.close()
--------------------------------------------------------------------------

    Molecular point group: c1
  Charge       = 0
  Multiplicity = 1
  Basis Set: CC-PVTZ
  Basis Set:
  @DF-RHF Final Energy:  -271.28663155604090
    Total Energy =                       -271.2866315560409589
    Molecular point group: c1
  Basis Set: CC-PVTZ
  Basis Set:
  Basis Set: CC-PVTZ
  Basis Set:
  @DF-RHF Final Energy:  -271.28673419947961
    Total Energy =                       -271.2867341994796107
  Basis Set: CC-PVTZ
  Basis Set:
  Basis Set: CC-PVTZ
  Basis Set:
  @DF-RHF Final Energy:  -271.28674816052626
    Total Energy =                       -271.2867481605259741
  Basis Set: CC-PVTZ
  Basis Set:
  Charge       = 0
  Multiplicity = 1
  Basis Set: CC-PVTZ
  Basis Set:

    Orbital Energies (a.u.)
    -----------------------

    Doubly Occupied:

       1A    -20.546307     2A    -11.266078     3A    -11.210652
       4A    -11.208796     5A    -11.204283     6A    -11.202458
       7A     -1.364332     8A     -1.076217     9A     -1.010033
      10A     -0.914370    11A     -0.818187    12A     -0.784163
      13A     -0.707634    14A     -0.646117    15A     -0.625156
      16A     -0.582739    17A     -0.572343    18A     -0.558465
      19A     -0.523737    20A     -0.502591    21A     -0.489411
      22A     -0.467598    23A     -0.458730    24A     -0.448301
      25A     -0.432093

  @DF-RHF Final Energy:  -271.28674896180974

   => Energetics <=

    Nuclear Repulsion Energy =            249.5415649628601784
    One-Electron Energy =                -862.4150449662500932
    Two-Electron Energy =                 341.5867310415800944
    DFT Exchange-Correlation Energy =       0.0000000000000000
    Empirical Dispersion Energy =           0.0000000000000000
    PCM Polarization Energy =               0.0000000000000000
    EFP Energy =                            0.0000000000000000
    Total Energy =                       -271.2867489618097920
    Molecular point group: c1
  Basis Set: CC-PVTZ
  Basis Set:

  -Total Gradient:
     Atom            X                  Y                   Z
    ------   -----------------  -----------------  -----------------
       1       -0.000019868360     0.000011041420    -0.000002732927
       2        0.000402367031    -0.001194124258    -0.000118132771
       3       -0.000422443941     0.001251955635     0.000086966243
       4       -0.000498020251     0.001499447571     0.000171755243
       5        0.000014873891    -0.000003797940     0.000007092027
       6        0.000017149055    -0.000021030918     0.000023816713
       7        0.000016526154     0.000065091523     0.000097437561
       8        0.000497985444    -0.001509390524    -0.000193222328
       9       -0.000011856966    -0.000049322010     0.000002076100
      10        0.000009314767    -0.000012031900    -0.000008583573
      11       -0.000017844093    -0.000049325716    -0.000029884004
      12        0.000014936919     0.000010378119    -0.000029994753
      13        0.000001013057     0.000004269159     0.000007276309
      14       -0.000008450468     0.000006085028    -0.000011615074
      15        0.000003515397    -0.000003567064     0.000004532513
      16        0.000001276333    -0.000002018958    -0.000005200098
      17        0.000002002314    -0.000000498493    -0.000001691874
      18       -0.000002476281    -0.000003160675     0.000000104692

  **** Optimization is complete! (in 4 steps) ****
    Final optimized geometry and variables:
    Molecular point group: c1

    Geometry (in Angstrom), charge = 0, multiplicity = 1:

    H           -2.898871278398    -0.315090948945     1.661647114126
    O           -2.064114494313    -0.007559043328     1.360867863239
    C           -2.079666525649     0.142362194703    -0.034934054790
    C           -0.726932887737     0.645960410818    -0.500902941362
    H           -2.299920946184    -0.810399556768    -0.512791773840
    H           -2.852462946531     0.846274152133    -0.332878628843
    C            0.433704509815    -0.274766094889    -0.132599250689
    H           -0.768248096976     0.752318833947    -1.582006754445
    H           -0.558298403828     1.634867422422    -0.086033922758
    C            1.781286476735     0.238078754334    -0.632349459498
    H            0.250559434524    -1.263847171192    -0.547924918215
    H            0.467491295815    -0.395831571626     0.943488350907
    C            2.942476532220    -0.681193901019    -0.268612312134
    H            1.744792990407     0.361268309384    -1.711774455272
    H            1.963385124888     1.226741129505    -0.219743234642
    H            2.808155442360    -1.669276733800    -0.696456220819
    H            3.884760375365    -0.288556641122    -0.633661979854
    H            3.026268135509    -0.797232973628     0.806729219052

  Mulliken Charges: (a.u.)
   Center  Symbol    Alpha    Beta     Spin     Total
       1     H     0.39579  0.39579  0.00000  0.20843
       2     O     4.19833  4.19833  0.00000 -0.39666
       3     C     2.97429  2.97429  0.00000  0.05143
       4     C     3.09115  3.09115  0.00000 -0.18229
       5     H     0.47341  0.47341  0.00000  0.05319
       6     H     0.46533  0.46533  0.00000  0.06933
       7     C     3.08591  3.08591  0.00000 -0.17181
       8     H     0.45515  0.45515  0.00000  0.08970
       9     H     0.45248  0.45248  0.00000  0.09503
      10     C     3.08364  3.08364  0.00000 -0.16727
      11     H     0.45978  0.45978  0.00000  0.08045
      12     H     0.44350  0.44350  0.00000  0.11300
      13     C     3.14974  3.14974  0.00000 -0.29948
      14     H     0.45693  0.45693  0.00000  0.08615
      15     H     0.45471  0.45471  0.00000  0.09058
      16     H     0.45599  0.45599  0.00000  0.08803
      17     H     0.44948  0.44948  0.00000  0.10103
      18     H     0.45441  0.45441  0.00000  0.09117

   Total alpha = 25.00000, Total beta = 25.00000, Total charge = -0.00000

*** Psi4 exiting successfully. Buy a developer a beer!
