  ==> Input File <==

--------------------------------------------------------------------------
set {
	reference rhf
	basis 6-31G*
}

set_num_threads( 1 )
memory 2 gb

molecule MOL {
0 1

H	 2.949166	 -2.855535	 2.583282
O	 3.696704	 -2.793547	 2.006727
C	 3.374538	 -3.340230	 0.753172
C	 2.435188	 -2.459456	 -0.063275
H	 4.315786	 -3.453366	 0.230747
H	 2.948058	 -4.335857	 0.869879
C	 1.052623	 -2.272863	 0.566460
H	 2.906253	 -1.490007	 -0.203396
H	 2.325690	 -2.904694	 -1.050767
C	 0.115918	 -1.429151	 -0.302766
H	 1.164113	 -1.804291	 1.540306
H	 0.598207	 -3.248773	 0.738057
C	 -1.309753	 -1.282496	 0.241564
H	 0.550862	 -0.441253	 -0.443222
H	 0.062163	 -1.879553	 -1.291679
C	 -2.037799	 -0.007733	 -0.193645
H	 -1.890610	 -2.142323	 -0.085726
H	 -1.285946	 -1.330893	 1.329189
C	 -3.489788	 0.042957	 0.286558
H	 -2.017067	 0.064384	 -1.280144
H	 -1.513726	 0.868678	 0.179924
C	 -4.216917	 1.317354	 -0.141063
H	 -4.025645	 -0.823308	 -0.095450
H	 -3.513059	 -0.038752	 1.371301
H	 -4.239342	 1.411634	 -1.223113
H	 -5.243387	 1.322503	 0.212445
H	 -3.726170	 2.201406	 0.256408

	symmetry c1
}
set optking {
	frozen_dihedral = ("
		14 10 7 4,
		10 7 4 8,
		8 4 3 2,
		10 13 16 20,
		20 16 19 22,
		4 3 2 1
	")
}

ee = energy('scf')
oeprop('DIPOLE', 'QUADRUPOLE', 'MULLIKEN_CHARGES')
f=open( 'psi4out.xyz', 'w' )
f.write( "27  " )
f.write( str(ee) + "\n" )
f.write( MOL.save_string_xyz() )
f.close()
--------------------------------------------------------------------------

    Molecular point group: c1

    Geometry (in Angstrom), charge = 0, multiplicity = 1:

       Center              X                  Y                   Z               Mass
    ------------   -----------------  -----------------  -----------------  -----------------
           H          2.945273608262    -1.480775738779     2.202694882059     1.007825032070
           O          3.692811608262    -1.418787738779     1.626139882059    15.994914619560
           C          3.370645608262    -1.965470738779     0.372584882059    12.000000000000
           C          2.431295608262    -1.084696738779    -0.443862117941    12.000000000000
           H          4.311893608262    -2.078606738779    -0.149840117941     1.007825032070
           H          2.944165608262    -2.961097738779     0.489291882059     1.007825032070
           C          1.048730608262    -0.898103738779     0.185872882059    12.000000000000
           H          2.902360608262    -0.115247738779    -0.583983117941     1.007825032070
           H          2.321797608262    -1.529934738779    -1.431354117941     1.007825032070
           C          0.112025608262    -0.054391738779    -0.683353117941    12.000000000000
           H          1.160220608262    -0.429531738779     1.159718882059     1.007825032070
           H          0.594314608262    -1.874013738779     0.357469882059     1.007825032070
           C         -1.313645391738     0.092263261221    -0.139023117941    12.000000000000
           H          0.546969608262     0.933506261221    -0.823809117941     1.007825032070
           H          0.058270608262    -0.504793738779    -1.672266117941     1.007825032070
           C         -2.041691391738     1.367026261221    -0.574232117941    12.000000000000
           H         -1.894502391738    -0.767563738779    -0.466313117941     1.007825032070
           H         -1.289838391738     0.043866261221     0.948601882059     1.007825032070
           C         -3.493680391738     1.417716261221    -0.094029117941    12.000000000000
           H         -2.020959391738     1.439143261221    -1.660731117941     1.007825032070
           H         -1.517618391738     2.243437261221    -0.200663117941     1.007825032070
           C         -4.220809391738     2.692113261221    -0.521650117941    12.000000000000
           H         -4.029537391738     0.551451261221    -0.476037117941     1.007825032070
           H         -3.516951391738     1.336007261221     0.990713882059     1.007825032070
           H         -4.243234391738     2.786393261221    -1.603700117941     1.007825032070
           H         -5.247279391738     2.697262261221    -0.168142117941     1.007825032070
           H         -3.730062391738     3.576165261221    -0.124179117941     1.007825032070

  Charge       = 0
  Multiplicity = 1
  Basis Set: 6-31G*
  Basis Set:

    Orbital Energies (a.u.)
    -----------------------

    Doubly Occupied:

       1A    -20.552368     2A    -11.267199     3A    -11.220971
       4A    -11.216646     5A    -11.215768     6A    -11.215348
       7A    -11.215161     8A    -11.214515     9A    -11.209078
      10A     -1.359135    11A     -1.093987    12A     -1.062833
      13A     -1.011491    14A     -0.950525    15A     -0.883580
      16A     -0.819803    17A     -0.791887    18A     -0.790073
      19A     -0.694344    20A     -0.655835    21A     -0.637195
      22A     -0.613163    23A     -0.598991    24A     -0.587320
      25A     -0.575852    26A     -0.553231    27A     -0.541323
      28A     -0.520190    29A     -0.512181    30A     -0.488311
      31A     -0.484639    32A     -0.474857    33A     -0.469154
      34A     -0.460239    35A     -0.458526    36A     -0.443512
      37A     -0.420826

  @DF-RHF Final Energy:  -388.28072417487488

   => Energetics <=

    Nuclear Repulsion Energy =            451.0603934015931600
    One-Electron Energy =               -1420.1221886436771911
    Two-Electron Energy =                 580.7810710672074492
    DFT Exchange-Correlation Energy =       0.0000000000000000
    Empirical Dispersion Energy =           0.0000000000000000
    PCM Polarization Energy =               0.0000000000000000
    EFP Energy =                            0.0000000000000000
    Total Energy =                       -388.2807241748765819

  Mulliken Charges: (a.u.)
   Center  Symbol    Alpha    Beta     Spin     Total
       1     H     0.27991  0.27991  0.00000  0.44018
       2     O     4.37097  4.37097  0.00000 -0.74193
       3     C     2.99738  2.99738  0.00000  0.00524
       4     C     3.16175  3.16175  0.00000 -0.32349
       5     H     0.41437  0.41437  0.00000  0.17127
       6     H     0.43197  0.43197  0.00000  0.13605
       7     C     3.16254  3.16254  0.00000 -0.32509
       8     H     0.41476  0.41476  0.00000  0.17048
       9     H     0.42411  0.42411  0.00000  0.15178
      10     C     3.15158  3.15158  0.00000 -0.30316
      11     H     0.42444  0.42444  0.00000  0.15113
      12     H     0.42480  0.42480  0.00000  0.15039
      13     C     3.15292  3.15292  0.00000 -0.30583
      14     H     0.42077  0.42077  0.00000  0.15846
      15     H     0.42226  0.42226  0.00000  0.15548
      16     C     3.15185  3.15185  0.00000 -0.30370
      17     H     0.42287  0.42287  0.00000  0.15427
      18     H     0.42393  0.42393  0.00000  0.15215
      19     C     3.15198  3.15198  0.00000 -0.30396
      20     H     0.42376  0.42376  0.00000  0.15248
      21     H     0.42293  0.42293  0.00000  0.15413
      22     C     3.23930  3.23930  0.00000 -0.47861
      23     H     0.42313  0.42313  0.00000  0.15374
      24     H     0.42306  0.42306  0.00000  0.15388
      25     H     0.42170  0.42170  0.00000  0.15661
      26     H     0.41928  0.41928  0.00000  0.16145
      27     H     0.42170  0.42170  0.00000  0.15660

   Total alpha = 37.00000, Total beta = 37.00000, Total charge =  0.00000
