  ==> Input File <==

--------------------------------------------------------------------------
set {
	reference rhf
	basis 6-31G*
}

set_num_threads( 4 )
memory 2 gb

molecule MOL {
0 1

H	 -1.140884	 0.468246	 0.678312
N	 -0.712432	 0.000013	 -0.096310
C	 0.734192	 -0.000004	 0.040609
H	 -0.989354	 0.492749	 -0.922980
H	 1.139899	 -0.873598	 -0.456463
H	 1.139939	 0.873831	 -0.456100
H	 1.096456	 -0.000300	 1.069655

	symmetry c1
}
set optking {
	frozen_dihedral = ("
		1 2 3 7
	")
}

ee = optimize('scf')
oeprop('DIPOLE', 'QUADRUPOLE', 'MULLIKEN_CHARGES')
f=open( 'psi4out.xyz', 'w' )
f.write( "7  " )
f.write( str(ee) + "\n" )
f.write( MOL.save_string_xyz() )
f.close()
--------------------------------------------------------------------------

    Molecular point group: c1
  Charge       = 0
  Multiplicity = 1
  Basis Set: 6-31G*
  Basis Set:
  @DF-RHF Final Energy:   -95.20604402187448
    Total Energy =                        -95.2060440218745327
    Molecular point group: c1
  Basis Set: 6-31G*
  Basis Set:
  Basis Set: 6-31G*
  Basis Set:
  @DF-RHF Final Energy:   -95.20760508678029
    Total Energy =                        -95.2076050867802195
  Basis Set: 6-31G*
  Basis Set:
  Basis Set: 6-31G*
  Basis Set:
  @DF-RHF Final Energy:   -95.20784913121966
    Total Energy =                        -95.2078491312196320
  Basis Set: 6-31G*
  Basis Set:
  Basis Set: 6-31G*
  Basis Set:
  @DF-RHF Final Energy:   -95.20785564599676
    Total Energy =                        -95.2078556459966308
  Basis Set: 6-31G*
  Basis Set:
  Charge       = 0
  Multiplicity = 1
  Basis Set: 6-31G*
  Basis Set:

    Orbital Energies (a.u.)
    -----------------------

    Doubly Occupied:

       1A    -15.532163     2A    -11.237317     3A     -1.167983
       4A     -0.896748     5A     -0.665886     6A     -0.600193
       7A     -0.559313     8A     -0.518364     9A     -0.378817

  @DF-RHF Final Energy:   -95.20785627280890

   => Energetics <=

    Nuclear Repulsion Energy =             42.3032142417947057
    One-Electron Energy =                -211.9085744588763021
    Two-Electron Energy =                  74.3975039442726143
    DFT Exchange-Correlation Energy =       0.0000000000000000
    Empirical Dispersion Energy =           0.0000000000000000
    PCM Polarization Energy =               0.0000000000000000
    EFP Energy =                            0.0000000000000000
    Total Energy =                        -95.2078562728089821
    Molecular point group: c1
  Basis Set: 6-31G*
  Basis Set:

  -Total Gradient:
     Atom            X                  Y                   Z
    ------   -----------------  -----------------  -----------------
       1       -0.000149322127    -0.002694182129     0.001505743658
       2        0.000057213600     0.004109026274    -0.001898483156
       3        0.000086881986    -0.004260723162     0.000356434756
       4        0.000010116277    -0.000007348789     0.000019039018
       5       -0.000007507054     0.000042884888    -0.000000168877
       6       -0.000013101510    -0.000012549618    -0.000006180466
       7        0.000015718827     0.002822892535     0.000023615067

  **** Optimization is complete! (in 5 steps) ****
    Final optimized geometry and variables:
    Molecular point group: c1

    Geometry (in Angstrom), charge = 0, multiplicity = 1:

    H           -1.136201665607     0.430963399730     0.733266419226
    N           -0.716662567049    -0.027651540815    -0.048884217633
    C            0.734865762019    -0.029864140481     0.047807324712
    H           -1.036661367175     0.419854229786    -0.883197856574
    H            1.144533306181    -0.914532384750    -0.426689306322
    H            1.207197876806     0.842122954731    -0.404355684175
    H            1.028771846705    -0.038620801455     1.090957245053

  Mulliken Charges: (a.u.)
   Center  Symbol    Alpha    Beta     Spin     Total
       1     H     0.33161  0.33161  0.00000  0.33679
       2     N     3.92358  3.92358  0.00000 -0.84716
       3     C     3.14478  3.14478  0.00000 -0.28957
       4     H     0.33159  0.33159  0.00000  0.33681
       5     H     0.41649  0.41649  0.00000  0.16701
       6     H     0.43138  0.43138  0.00000  0.13724
       7     H     0.42056  0.42056  0.00000  0.15887

   Total alpha =  9.00000, Total beta =  9.00000, Total charge = -0.00000
