  ==> Input File <==

--------------------------------------------------------------------------
set {
	reference rhf
	basis cc-pvtz
}

set_num_threads( 4 )
memory 2 gb

molecule MOL {
0 1

H	 -2.649782	 0.009658	 0.055762
C	 -1.664743	 -0.438296	 0.057785
C	 -0.600949	 0.658697	 -0.000002
H	 -1.586193	 -1.098027	 -0.795837
H	 -1.559566	 -1.031558	 0.956153
C	 0.763408	 0.112229	 -0.000006
H	 -0.715149	 1.258280	 -0.893529
H	 -0.688671	 1.324375	 0.848592
N	 1.806008	 -0.317179	 0.000007

	symmetry c1
}
set optking {
	frozen_dihedral = ("
		7 3 6 9
	")
}

ee = optimize('scf')
oeprop('DIPOLE', 'QUADRUPOLE', 'MULLIKEN_CHARGES')
f=open( 'psi4out.xyz', 'w' )
f.write( "9  " )
f.write( str(ee) + "\n" )
f.write( MOL.save_string_xyz() )
f.close()
--------------------------------------------------------------------------

    Molecular point group: c1
  Charge       = 0
  Multiplicity = 1
  Basis Set: CC-PVTZ
  Basis Set:
  @DF-RHF Final Energy:  -171.02346177814218
    Total Energy =                       -171.0234617781422060
    Molecular point group: c1
  Basis Set: CC-PVTZ
  Basis Set:
  Basis Set: CC-PVTZ
  Basis Set:
  @DF-RHF Final Energy:  -171.02290657158676
    Total Energy =                       -171.0229065715867591
  Basis Set: CC-PVTZ
  Basis Set:
  Basis Set: CC-PVTZ
  Basis Set:
  @DF-RHF Final Energy:  -171.02341382170874
    Total Energy =                       -171.0234138217086297
  Basis Set: CC-PVTZ
  Basis Set:
  Basis Set: CC-PVTZ
  Basis Set:
  @DF-RHF Final Energy:  -170.99861036305495
    Total Energy =                       -170.9986103630549508
  Basis Set: CC-PVTZ
  Basis Set:
  @DF-RHF Final Energy:  -171.01905936649842
    Total Energy =                       -171.0190593664984817
  @DF-RHF Final Energy:  -171.02304243156755
    Total Energy =                       -171.0230424315676032
  @DF-RHF Final Energy:  -171.02293948249655
    Total Energy =                       -171.0229394824966107
  @DF-RHF Final Energy:  -171.02337719297134
    Total Energy =                       -171.0233771929712248
  @DF-RHF Final Energy:  -171.00760132728709
    Total Energy =                       -171.0076013272870910
  @DF-RHF Final Energy:  -171.01901059339988
    Total Energy =                       -171.0190105933999405
  @DF-RHF Final Energy:  -171.02278971238968
    Total Energy =                       -171.0227897123897378
  @DF-RHF Final Energy:  -171.02332992357145
    Total Energy =                       -171.0233299235714810
  @DF-RHF Final Energy:  -170.90893038160249
    Total Energy =                       -170.9089303816025449
  @DF-RHF Final Energy:  -171.00943055494628
    Total Energy =                       -171.0094305549461922
  @DF-RHF Final Energy:  -171.01350747774677
    Total Energy =                       -171.0135074777467139
  @DF-RHF Final Energy:  -171.02280486839936
    Total Energy =                       -171.0228048683993620
  @DF-RHF Final Energy:  -171.02336181790872
    Total Energy =                       -171.0233618179088069
  @DF-RHF Final Energy:  -170.83618928334678
    Total Energy =                       -170.8361892833468687
  @DF-RHF Final Energy:  -170.91079728064113
    Total Energy =                       -170.9107972806410771
  @DF-RHF Final Energy:  -170.99846247080077
    Total Energy =                       -170.9984624708007459
  @DF-RHF Final Energy:  -171.02338838354964
    Total Energy =                       -171.0233883835496727
  @DF-RHF Final Energy:  -171.02343592774511
    Total Energy =                       -171.0234359277451972
  @DF-RHF Final Energy:  -171.02238405901534
    Total Energy =                       -171.0223840590153372
  @DF-RHF Final Energy:  -171.02330229320216
    Total Energy =                       -171.0233022932020219
  @DF-RHF Final Energy:  -171.02266089521220
    Total Energy =                       -171.0226608952121694
  @DF-RHF Final Energy:  -171.02289581600530
    Total Energy =                       -171.0228958160053594
  @DF-RHF Final Energy:  -171.02343580953317
    Total Energy =                       -171.0234358095330833
  @DF-RHF Final Energy:  -171.02224076842649
    Total Energy =                       -171.0222407684266273
  @DF-RHF Final Energy:  -171.02310137752661
    Total Energy =                       -171.0231013775264728
  @DF-RHF Final Energy:  -171.02328291309146
    Total Energy =                       -171.0232829130915206
  @DF-RHF Final Energy:  -171.02343226070735
    Total Energy =                       -171.0234322607072954
  @DF-RHF Final Energy:  -171.02059736868904
    Total Energy =                       -171.0205973686889820
  @DF-RHF Final Energy:  -171.02201302820012
    Total Energy =                       -171.0220130282002060
  @DF-RHF Final Energy:  -171.02273154376491
    Total Energy =                       -171.0227315437649622
  @DF-RHF Final Energy:  -171.02336634840654
    Total Energy =                       -171.0233663484064834
  @DF-RHF Final Energy:  -171.02325410111729
    Total Energy =                       -171.0232541011172600
  Basis Set: CC-PVTZ
  Basis Set:
  @DF-RHF Final Energy:  -170.77568880372462
    Total Energy =                       -170.7756888037245631
  Basis Set: CC-PVTZ
  Basis Set:
  Basis Set: CC-PVTZ
  Basis Set:
  @DF-RHF Final Energy:  -170.85832732921881
    Total Energy =                       -170.8583273292188096
  Basis Set: CC-PVTZ
  Basis Set:
  Basis Set: CC-PVTZ
  Basis Set:
  @DF-RHF Final Energy:  -170.90998426014380
    Total Energy =                       -170.9099842601438013
  Basis Set: CC-PVTZ
  Basis Set:
  Charge       = 0
  Multiplicity = 1
  Basis Set: CC-PVTZ
  Basis Set:

    Orbital Energies (a.u.)
    -----------------------

    Doubly Occupied:

       1A    -15.668407     2A    -11.354847     3A    -11.285845
       4A    -11.252210     5A     -1.096532     6A     -1.028005
       7A     -0.902735     8A     -0.726435     9A     -0.634254
      10A     -0.581053    11A     -0.541707    12A     -0.538677
      13A     -0.503674    14A     -0.427339    15A     -0.392319

  @DF-RHF Final Energy:  -170.78675365936783

   => Energetics <=

    Nuclear Repulsion Energy =             93.7419523043981400
    One-Electron Energy =                -415.1893342658797792
    Two-Electron Energy =                 150.6606283021138211
    DFT Exchange-Correlation Energy =       0.0000000000000000
    Empirical Dispersion Energy =           0.0000000000000000
    PCM Polarization Energy =               0.0000000000000000
    EFP Energy =                            0.0000000000000000
    Total Energy =                       -170.7867536593678324
    Molecular point group: c1
  Basis Set: CC-PVTZ
  Basis Set:

  -Total Gradient:
     Atom            X                  Y                   Z
    ------   -----------------  -----------------  -----------------
       1       -0.031282810487     0.002874995627    -0.001011992287
       2       -0.005904375051    -0.026145966161     0.009506377456
       3        0.012822551692     0.048632744912     0.017226893302
       4       -0.001729499521    -0.006548452560    -0.000735746566
       5       -0.004814137977     0.000580940511    -0.010143886254
       6       -0.187783708474    -0.065648876881     0.108776391891
       7       -0.004605627666     0.008710010118     0.004792985700
       8        0.002207056840    -0.008129936938    -0.025794790348
       9        0.221090550644     0.045674541371    -0.102616232894

    Molecular point group: c1

    Geometry (in Angstrom), charge = 0, multiplicity = 1:

    H           -2.859408658300     0.049466874454    -0.128892214631
    C           -1.820384709414    -0.488714902423     0.040323824456
    C           -0.442110837478     0.547277172442     0.107117768462
    H           -1.718907438651    -1.229142144622    -0.726998854160
    H           -1.974138348132    -1.030790717759     0.842089494032
    C            0.876346647780    -0.347595074841     0.314070700413
    H           -0.309439395368     1.099261801897    -0.707418355755
    H           -0.606247599822     1.207495195487     0.765572440381
    N            1.725361636141     0.240757791254    -0.398687251652

  Mulliken Charges: (a.u.)
   Center  Symbol    Alpha    Beta     Spin     Total
       1     H     0.45220  0.45220  0.00000  0.09561
       2     C     3.14048  3.14048  0.00000 -0.28097
       3     C     3.08194  3.08194  0.00000 -0.16389
       4     H     0.44536  0.44536  0.00000  0.10928
       5     H     0.43910  0.43910  0.00000  0.12179
       6     C     2.99314  2.99314  0.00000  0.01371
       7     H     0.43232  0.43232  0.00000  0.13537
       8     H     0.42835  0.42835  0.00000  0.14331
       9     N     3.58711  3.58711  0.00000 -0.17421

   Total alpha = 15.00000, Total beta = 15.00000, Total charge = -0.00000
