  ==> Input File <==

--------------------------------------------------------------------------
set {
	reference rhf
	basis 6-31G*
}

set_num_threads( 4 )
memory 2 gb

molecule MOL {
0 1

H	 3.463771	 0.168298	 -0.756243
C	 2.752674	 -0.045734	 0.033351
C	 1.322923	 0.120767	 -0.479465
H	 2.934561	 -1.059086	 0.377456
H	 2.958358	 0.631174	 0.856809
C	 0.306652	 -0.176050	 0.621399
H	 1.144658	 -0.551717	 -1.312180
H	 1.166477	 1.131798	 -0.836680
N	 -1.068537	 -0.011044	 0.085269
H	 0.372515	 -1.192590	 0.973735
H	 0.391664	 0.520566	 1.441230
O	 -1.768568	 0.802075	 0.605046
O	 -1.389260	 -0.729598	 -0.811860

	symmetry c1
}
set optking {
	frozen_dihedral = ("
		12 9 6 3
	")
}

ee = optimize('scf')
oeprop('DIPOLE', 'QUADRUPOLE', 'MULLIKEN_CHARGES')
f=open( 'psi4out.xyz', 'w' )
f.write( "13  " )
f.write( str(ee) + "\n" )
f.write( MOL.save_string_xyz() )
f.close()
--------------------------------------------------------------------------

    Molecular point group: c1
  Charge       = 0
  Multiplicity = 1
  Basis Set: 6-31G*
  Basis Set:
  @DF-RHF Final Energy:  -321.73526875972846
    Total Energy =                       -321.7352687597283420
    Molecular point group: c1
  Basis Set: 6-31G*
  Basis Set:
  Basis Set: 6-31G*
  Basis Set:
  @DF-RHF Final Energy:  -321.72946784460021
    Total Energy =                       -321.7294678446000376
  Basis Set: 6-31G*
  Basis Set:
  Basis Set: 6-31G*
  Basis Set:
  @DF-RHF Final Energy:  -321.73505167128712
    Total Energy =                       -321.7350516712870672
  Basis Set: 6-31G*
  Basis Set:
  Basis Set: 6-31G*
  Basis Set:
  @DF-RHF Final Energy:  -321.73549920338667
    Total Energy =                       -321.7354992033865528
  Basis Set: 6-31G*
  Basis Set:
  Basis Set: 6-31G*
  Basis Set:
  @DF-RHF Final Energy:  -321.73548629856816
    Total Energy =                       -321.7354862985683326
  Basis Set: 6-31G*
  Basis Set:
  Basis Set: 6-31G*
  Basis Set:
  @DF-RHF Final Energy:  -321.73551856236406
    Total Energy =                       -321.7355185623642910
  Basis Set: 6-31G*
  Basis Set:
  Charge       = 0
  Multiplicity = 1
  Basis Set: 6-31G*
  Basis Set:

    Orbital Energies (a.u.)
    -----------------------

    Doubly Occupied:

       1A    -20.603084     2A    -20.598996     3A    -15.847435
       4A    -11.299648     5A    -11.254946     6A    -11.239234
       7A     -1.631029     8A     -1.416399     9A     -1.134558
      10A     -1.028196    11A     -0.884334    12A     -0.831320
      13A     -0.759407    14A     -0.737377    15A     -0.723892
      16A     -0.668962    17A     -0.604948    18A     -0.586183
      19A     -0.550727    20A     -0.522399    21A     -0.512594
      22A     -0.484262    23A     -0.473443    24A     -0.448530

  @DF-RHF Final Energy:  -321.73551858161238

   => Energetics <=

    Nuclear Repulsion Energy =            247.2501746442378590
    One-Electron Energy =                -928.2875773970845330
    Two-Electron Energy =                 359.3018841712342351
    DFT Exchange-Correlation Energy =       0.0000000000000000
    Empirical Dispersion Energy =           0.0000000000000000
    PCM Polarization Energy =               0.0000000000000000
    EFP Energy =                            0.0000000000000000
    Total Energy =                       -321.7355185816124390
    Molecular point group: c1
  Basis Set: 6-31G*
  Basis Set:

  -Total Gradient:
     Atom            X                  Y                   Z
    ------   -----------------  -----------------  -----------------
       1        0.000003696928     0.000003172582     0.000002816267
       2        0.000005110414     0.000001041934    -0.000004070669
       3       -0.000006248128    -0.000138998305    -0.000026738575
       4       -0.000006039404     0.000002881854    -0.000002220656
       5        0.000003963637     0.000003095349     0.000001751291
       6       -0.000007940314     0.000122801142     0.000088661593
       7        0.000002782120    -0.000016207179     0.000011332804
       8       -0.000005218381    -0.000000548970    -0.000002210693
       9        0.000100386419     0.000140031690    -0.000216124109
      10       -0.000001773500     0.000000247870    -0.000000472321
      11        0.000003281265     0.000005778252    -0.000005876058
      12       -0.000085582844    -0.000139963736     0.000144929700
      13       -0.000006418214     0.000016667514     0.000008221425

  **** Optimization is complete! (in 7 steps) ****
    Final optimized geometry and variables:
    Molecular point group: c1

    Geometry (in Angstrom), charge = 0, multiplicity = 1:

    H            3.477771969338     0.167419000085    -0.760799825062
    C            2.761570878365    -0.037357373599     0.026627825313
    C            1.334873939609     0.113361515599    -0.500285182921
    H            2.945206964866    -1.045088091081     0.386756481492
    H            2.959728476741     0.651613714296     0.841838711146
    C            0.315694741366    -0.172070857148     0.597997417644
    H            1.162917400183    -0.565411261779    -1.325414039160
    H            1.182234724104     1.121945461780    -0.871911153075
    N           -1.070746775070    -0.006630352439     0.086198702454
    H            0.375759280578    -1.197387047786     0.935646909744
    H            0.405472118333     0.500726675023     1.434769230843
    O           -1.762095472503     0.807888509271     0.613900728144
    O           -1.398840647183    -0.706938121732    -0.823031497610

  Mulliken Charges: (a.u.)
   Center  Symbol    Alpha    Beta     Spin     Total
       1     H     0.40740  0.40740  0.00000  0.18521
       2     C     3.24865  3.24865  0.00000 -0.49730
       3     C     3.17216  3.17216  0.00000 -0.34432
       4     H     0.41517  0.41517  0.00000  0.16967
       5     H     0.41512  0.41512  0.00000  0.16976
       6     C     3.08580  3.08580  0.00000 -0.17159
       7     H     0.39405  0.39405  0.00000  0.21189
       8     H     0.40460  0.40460  0.00000  0.19079
       9     N     3.22250  3.22250  0.00000  0.55501
      10     H     0.38850  0.38850  0.00000  0.22300
      11     H     0.38630  0.38630  0.00000  0.22740
      12     O     4.22839  4.22839  0.00000 -0.45679
      13     O     4.23136  4.23136  0.00000 -0.46272

   Total alpha = 24.00000, Total beta = 24.00000, Total charge = -0.00000
