  ==> Input File <==

--------------------------------------------------------------------------
set {
	reference rhf
	basis 6-31G*
}

set_num_threads( 1 )
memory 2 gb

molecule MOL {
0 1

O	 0.606207	 -0.181888	 0.343649
C	 1.705091	 0.115954	 0.001797
C	 2.136937	 1.481293	 -0.474885
O	 2.721346	 -0.737485	 -0.000216
C	 1.005003	 2.504099	 -0.490263
H	 2.952316	 1.805954	 0.165790
H	 2.569668	 1.357986	 -1.463955
C	 1.470384	 3.877587	 -0.976074
H	 0.585522	 2.588220	 0.507308
H	 0.202982	 2.140417	 -1.124932
C	 0.347595	 4.916223	 -0.996992
H	 2.277048	 4.235208	 -0.337797
H	 1.892148	 3.786161	 -1.975893
C	 0.812922	 6.288044	 -1.483644
H	 -0.073089	 5.010612	 0.001635
H	 -0.458586	 4.560818	 -1.634877
H	 1.596186	 6.686122	 -0.844703
H	 -0.004944	 7.001859	 -1.487415
H	 1.208079	 6.232646	 -2.494135
C	 4.024888	 -0.184556	 -0.001949
H	 4.179030	 0.422472	 -0.882452
H	 4.701782	 -1.024608	 -0.003642
H	 4.181981	 0.421185	 0.878906

	symmetry c1
}
set optking {
	frozen_dihedral = ("
		15 11 8 12,
		9 5 8 12,
		1 2 3 6,
		9 5 3 6
	")
}

ee = energy('scf')
oeprop('DIPOLE', 'QUADRUPOLE', 'MULLIKEN_CHARGES')
f=open( 'psi4out.xyz', 'w' )
f.write( "23  " )
f.write( str(ee) + "\n" )
f.write( MOL.save_string_xyz() )
f.close()
--------------------------------------------------------------------------

    Molecular point group: c1

    Geometry (in Angstrom), charge = 0, multiplicity = 1:

       Center              X                  Y                   Z               Mass
    ------------   -----------------  -----------------  -----------------  -----------------
           O         -1.063822900897    -2.171577539368     0.792158427470    15.994914619560
           C          0.035061099103    -1.873735539368     0.450306427470    12.000000000000
           C          0.466907099103    -0.508396539368    -0.026375572530    12.000000000000
           O          1.051316099103    -2.727174539368     0.448293427470    15.994914619560
           C         -0.665026900897     0.514409460632    -0.041753572530    12.000000000000
           H          1.282286099103    -0.183735539368     0.614299427470     1.007825032070
           H          0.899638099103    -0.631703539368    -1.015445572530     1.007825032070
           C         -0.199645900897     1.887897460632    -0.527564572530    12.000000000000
           H         -1.084507900897     0.598530460632     0.955817427470     1.007825032070
           H         -1.467047900897     0.150727460632    -0.676422572530     1.007825032070
           C         -1.322434900897     2.926533460632    -0.548482572530    12.000000000000
           H          0.607018099103     2.245518460632     0.110712427470     1.007825032070
           H          0.222118099103     1.796471460632    -1.527383572530     1.007825032070
           C         -0.857107900897     4.298354460632    -1.035134572530    12.000000000000
           H         -1.743118900897     3.020922460632     0.450144427470     1.007825032070
           H         -2.128615900897     2.571128460632    -1.186367572530     1.007825032070
           H         -0.073843900897     4.696432460632    -0.396193572530     1.007825032070
           H         -1.674973900897     5.012169460632    -1.038905572530     1.007825032070
           H         -0.461950900897     4.242956460632    -2.045625572530     1.007825032070
           C          2.354858099103    -2.174245539368     0.446560427470    12.000000000000
           H          2.509000099103    -1.567217539368    -0.433942572530     1.007825032070
           H          3.031752099103    -3.014297539368     0.444867427470     1.007825032070
           H          2.511951099103    -1.568504539368     1.327415427470     1.007825032070

  Charge       = 0
  Multiplicity = 1
  Basis Set: 6-31G*
  Basis Set:

    Orbital Energies (a.u.)
    -----------------------

    Doubly Occupied:

       1A    -20.605988     2A    -20.544676     3A    -11.374668
       4A    -11.297424     5A    -11.242166     6A    -11.223135
       7A    -11.222052     8A    -11.219576     9A    -11.212496
      10A     -1.468014    11A     -1.369113    12A     -1.097236
      13A     -1.043587    14A     -0.988764    15A     -0.957800
      16A     -0.858787    17A     -0.800290    18A     -0.763355
      19A     -0.703538    20A     -0.697823    21A     -0.676902
      22A     -0.654520    23A     -0.612590    24A     -0.604517
      25A     -0.583137    26A     -0.564605    27A     -0.561634
      28A     -0.544527    29A     -0.526709    30A     -0.508961
      31A     -0.490625    32A     -0.473091    33A     -0.469435
      34A     -0.465439    35A     -0.450915    36A     -0.427887

  @DF-RHF Final Energy:  -422.94994278312839

   => Energetics <=

    Nuclear Repulsion Energy =            458.6936601262746649
    One-Electron Energy =               -1484.6750115204708891
    Two-Electron Energy =                 603.0314086110655580
    DFT Exchange-Correlation Energy =       0.0000000000000000
    Empirical Dispersion Energy =           0.0000000000000000
    PCM Polarization Energy =               0.0000000000000000
    EFP Energy =                            0.0000000000000000
    Total Energy =                       -422.9499427831307230

  Mulliken Charges: (a.u.)
   Center  Symbol    Alpha    Beta     Spin     Total
       1     O     4.27182  4.27182  0.00000 -0.54363
       2     C     2.58904  2.58904  0.00000  0.82192
       3     C     3.24745  3.24745  0.00000 -0.49490
       4     O     4.30097  4.30097  0.00000 -0.60194
       5     C     3.14736  3.14736  0.00000 -0.29473
       6     H     0.40298  0.40298  0.00000  0.19404
       7     H     0.39923  0.39923  0.00000  0.20153
       8     C     3.15323  3.15323  0.00000 -0.30646
       9     H     0.41037  0.41037  0.00000  0.17925
      10     H     0.40952  0.40952  0.00000  0.18097
      11     C     3.15187  3.15187  0.00000 -0.30375
      12     H     0.42559  0.42559  0.00000  0.14883
      13     H     0.42492  0.42492  0.00000  0.15017
      14     C     3.23967  3.23967  0.00000 -0.47935
      15     H     0.42073  0.42073  0.00000  0.15854
      16     H     0.42042  0.42042  0.00000  0.15917
      17     H     0.42210  0.42210  0.00000  0.15580
      18     H     0.41773  0.41773  0.00000  0.16454
      19     H     0.42187  0.42187  0.00000  0.15625
      20     C     3.10332  3.10332  0.00000 -0.20664
      21     H     0.41301  0.41301  0.00000  0.17398
      22     H     0.39568  0.39568  0.00000  0.20864
      23     H     0.41112  0.41112  0.00000  0.17775

   Total alpha = 36.00000, Total beta = 36.00000, Total charge =  0.00000
