  ==> Input File <==

--------------------------------------------------------------------------
set {
	reference rhf
	basis 6-31G*
}

set_num_threads( 4 )
memory 2 gb

molecule MOL {
0 1

H	 -3.420663	 1.227371	 -1.044276
O	 -3.452007	 0.283848	 -0.965577
C	 -3.181085	 -0.079926	 0.364119
C	 -1.765924	 0.277073	 0.805136
H	 -3.327791	 -1.152017	 0.410903
H	 -3.905698	 0.375695	 1.036898
C	 -0.685430	 -0.575434	 0.138592
H	 -1.584101	 1.331370	 0.594515
H	 -1.707308	 0.169961	 1.886946
C	 0.731889	 -0.194035	 0.570934
H	 -0.776078	 -0.486801	 -0.939664
H	 -0.864959	 -1.623015	 0.374681
C	 1.807601	 -1.055595	 -0.095883
H	 0.901273	 0.855280	 0.341445
H	 0.818050	 -0.287699	 1.652788
C	 3.239259	 -0.770691	 0.372455
H	 1.751849	 -0.928331	 -1.175879
H	 1.583637	 -2.102687	 0.097135
C	 3.765212	 0.617270	 0.001856
H	 3.898345	 -1.519518	 -0.060158
H	 3.297798	 -0.902903	 1.451017
H	 3.707085	 0.782746	 -1.070701
H	 4.804537	 0.726904	 0.296171
H	 3.204675	 1.407961	 0.489472

	symmetry c1
}
set optking {
	frozen_dihedral = ("
		7 4 3 2
	")
}

ee = optimize('scf')
oeprop('DIPOLE', 'QUADRUPOLE', 'MULLIKEN_CHARGES')
f=open( 'psi4out.xyz', 'w' )
f.write( "24  " )
f.write( str(ee) + "\n" )
f.write( MOL.save_string_xyz() )
f.close()
--------------------------------------------------------------------------

    Molecular point group: c1
  Charge       = 0
  Multiplicity = 1
  Basis Set: 6-31G*
  Basis Set:
  @DF-RHF Final Energy:  -349.24719345714362
    Total Energy =                       -349.2471934571437941
    Molecular point group: c1
  Basis Set: 6-31G*
  Basis Set:
  Basis Set: 6-31G*
  Basis Set:
  @DF-RHF Final Energy:  -349.24720845334593
    Total Energy =                       -349.2472084533461611
  Basis Set: 6-31G*
  Basis Set:
  Basis Set: 6-31G*
  Basis Set:
  @DF-RHF Final Energy:  -349.24722591227925
    Total Energy =                       -349.2472259122789637
  Basis Set: 6-31G*
  Basis Set:
  Basis Set: 6-31G*
  Basis Set:
  @DF-RHF Final Energy:  -349.24722765660613
    Total Energy =                       -349.2472276566061282
  Basis Set: 6-31G*
  Basis Set:
  Charge       = 0
  Multiplicity = 1
  Basis Set: 6-31G*
  Basis Set:

    Orbital Energies (a.u.)
    -----------------------

    Doubly Occupied:

       1A    -20.552919     2A    -11.267584     3A    -11.217561
       4A    -11.214226     5A    -11.212764     6A    -11.211955
       7A    -11.211726     8A    -11.207427     9A     -1.359625
      10A     -1.088928    11A     -1.048608    12A     -0.985581
      13A     -0.914662    14A     -0.850438    15A     -0.802043
      16A     -0.776374    17A     -0.679472    18A     -0.652839
      19A     -0.624807    20A     -0.620428    21A     -0.596388
      22A     -0.584147    23A     -0.559342    24A     -0.539188
      25A     -0.515611    26A     -0.511237    27A     -0.497512
      28A     -0.474942    29A     -0.467008    30A     -0.459450
      31A     -0.456009    32A     -0.451336    33A     -0.418129

  @DF-RHF Final Energy:  -349.24722807810292

   => Energetics <=

    Nuclear Repulsion Energy =            384.0018802776206712
    One-Electron Energy =               -1234.4376811895522223
    Two-Electron Energy =                 501.1885728338284025
    DFT Exchange-Correlation Energy =       0.0000000000000000
    Empirical Dispersion Energy =           0.0000000000000000
    PCM Polarization Energy =               0.0000000000000000
    EFP Energy =                            0.0000000000000000
    Total Energy =                       -349.2472280781031486
    Molecular point group: c1
  Basis Set: 6-31G*
  Basis Set:

  -Total Gradient:
     Atom            X                  Y                   Z
    ------   -----------------  -----------------  -----------------
       1       -0.000003487490     0.000004510343    -0.000002429932
       2       -0.000646892437     0.001738133624     0.000579994726
       3        0.000815455642    -0.002784887460    -0.000306526542
       4       -0.000031165231     0.002276976005    -0.001594727186
       5        0.000033787120     0.000016638207    -0.000038746774
       6       -0.000002058521    -0.000037117298     0.000065188130
       7       -0.000139096145    -0.001229561570     0.001278796227
       8        0.000004082713    -0.000025797814    -0.000023976370
       9       -0.000034585266     0.000033137948     0.000034290809
      10        0.000012575163     0.000033445888    -0.000027025375
      11        0.000032541828    -0.000042655477     0.000010305393
      12       -0.000028601075     0.000017697809     0.000002651751
      13       -0.000024962076    -0.000019841242     0.000022445974
      14        0.000029550249     0.000035421079     0.000007952401
      15        0.000010799454    -0.000008268224    -0.000015123903
      16        0.000011824661    -0.000013069071    -0.000013936101
      17        0.000005400080    -0.000017003833     0.000001826610
      18       -0.000025725323     0.000007072866     0.000011887271
      19       -0.000017229937     0.000005597758     0.000013400469
      20        0.000003910339     0.000014982956    -0.000014361091
      21        0.000015887220    -0.000020025868    -0.000004723916
      22        0.000008099198    -0.000008729287     0.000006299385
      23       -0.000003333896     0.000009174400     0.000010364923
      24       -0.000026776269     0.000014168261    -0.000003826880

  **** Optimization is complete! (in 5 steps) ****
    Final optimized geometry and variables:
    Molecular point group: c1

    Geometry (in Angstrom), charge = 0, multiplicity = 1:

    H           -3.388593898685     1.416281654778    -1.165143259444
    O           -3.429320845510     0.472074735057    -1.104301176807
    C           -3.184013746981     0.084154505936     0.223990142408
    C           -1.772863881972     0.426930649931     0.690553799951
    H           -3.342992494104    -0.986348390515     0.255804774172
    H           -3.916022543484     0.539904955722     0.888723549153
    C           -0.690074370403    -0.422759164758     0.023885225569
    H           -1.586740967060     1.484484635708     0.504574156935
    H           -1.724257264655     0.295453313802     1.770334811991
    C            0.727863709301    -0.033882605993     0.446839852271
    H           -0.786015987867    -0.339153819117    -1.055109722241
    H           -0.865086554005    -1.469244214150     0.267315216141
    C            1.803359543407    -0.898968107563    -0.215663345941
    H            0.893350678179     1.013523828754     0.206662079961
    H            0.818006416912    -0.117110937028     1.529297507755
    C            3.235996623045    -0.605077468511     0.244020063209
    H            1.742841969973    -0.782619153643    -1.296571233573
    H            1.583320787122    -1.944801028596    -0.011290243701
    C            3.753649985978     0.783261641194    -0.136653837722
    H            3.896299209834    -1.353216619281    -0.187815429714
    H            3.300412397475    -0.731189095658     1.322987554060
    H            3.691008481017     0.942033523748    -1.209936977733
    H            4.793420299174     0.899816621594     0.153404737129
    H            3.190783563237     1.574018873366     0.348137882493

  Mulliken Charges: (a.u.)
   Center  Symbol    Alpha    Beta     Spin     Total
       1     H     0.28331  0.28331  0.00000  0.43338
       2     O     4.36887  4.36887  0.00000 -0.73774
       3     C     2.99709  2.99709  0.00000  0.00581
       4     C     3.16616  3.16616  0.00000 -0.33233
       5     H     0.41598  0.41598  0.00000  0.16804
       6     H     0.42846  0.42846  0.00000  0.14307
       7     C     3.15369  3.15369  0.00000 -0.30737
       8     H     0.42792  0.42792  0.00000  0.14416
       9     H     0.42297  0.42297  0.00000  0.15405
      10     C     3.15366  3.15366  0.00000 -0.30732
      11     H     0.41174  0.41174  0.00000  0.17653
      12     H     0.42376  0.42376  0.00000  0.15248
      13     C     3.15234  3.15234  0.00000 -0.30468
      14     H     0.42248  0.42248  0.00000  0.15504
      15     H     0.42546  0.42546  0.00000  0.14907
      16     C     3.15229  3.15229  0.00000 -0.30459
      17     H     0.42338  0.42338  0.00000  0.15324
      18     H     0.42226  0.42226  0.00000  0.15547
      19     C     3.24108  3.24108  0.00000 -0.48216
      20     H     0.42104  0.42104  0.00000  0.15793
      21     H     0.42381  0.42381  0.00000  0.15239
      22     H     0.42215  0.42215  0.00000  0.15570
      23     H     0.41953  0.41953  0.00000  0.16095
      24     H     0.42056  0.42056  0.00000  0.15888

   Total alpha = 33.00000, Total beta = 33.00000, Total charge =  0.00000
