                              Psi4 1.0.54 Driver

  ==> Input File <==

--------------------------------------------------------------------------
set {
	reference rhf
	basis cc-pvtz
}

set_num_threads( 4 )
memory 2 gb

molecule MOL {
0 1

O	 -2.440701	 -0.934798	 -0.415053
C	 -1.922978	 0.063265	 -0.045005
C	 -2.632749	 1.372204	 0.158357
O	 -0.637375	 0.157174	 0.243149
H	 -2.187724	 2.129143	 -0.474664
H	 -3.677681	 1.257276	 -0.079438
H	 -2.516788	 1.693160	 1.185542
C	 0.162530	 -1.009518	 0.097799
C	 1.587210	 -0.664190	 0.477086
H	 0.096803	 -1.356267	 -0.924704
H	 -0.233803	 -1.785900	 0.736810
C	 1.750620	 -0.166935	 1.910891
H	 1.929189	 0.101145	 -0.214325
H	 2.215282	 -1.534661	 0.313859
C	 3.192970	 0.197501	 2.246198
H	 1.114475	 0.701235	 2.061552
H	 1.400215	 -0.928655	 2.597799
H	 3.279751	 0.550726	 3.267025
H	 3.563065	 0.980767	 1.592810
H	 3.848473	 -0.660005	 2.136584

	symmetry c1
}
set optking {
	frozen_dihedral = ("
		12 9 8 10
	")
}

ee,wfn = optimize('scf', return_wfn=True)
oeprop( wfn, 'DIPOLE', 'QUADRUPOLE', 'MULLIKEN_CHARGES')
f=open( 'psi4out.xyz', 'w' )
f.write( "20  " )
f.write( str(ee) + "\n" )
f.write( MOL.save_string_xyz() )
f.close()
--------------------------------------------------------------------------

    Molecular point group: c1
  Charge       = 0
  Multiplicity = 1
  Basis Set: CC-PVTZ
  Basis Set:
  @DF-RHF Final Energy:  -384.08724501329215
    Total Energy =                       -384.0872450132924314
    Molecular point group: c1
  Basis Set: CC-PVTZ
  Basis Set:
  Basis Set: CC-PVTZ
  Basis Set:
  @DF-RHF Final Energy:  -384.08740239996621
    Total Energy =                       -384.0874023999658675
  Basis Set: CC-PVTZ
  Basis Set:
  Basis Set: CC-PVTZ
  Basis Set:
  @DF-RHF Final Energy:  -384.08709945501784
    Total Energy =                       -384.0870994550180058
  Basis Set: CC-PVTZ
  Basis Set:
  Basis Set: CC-PVTZ
  Basis Set:
  @DF-RHF Final Energy:  -384.08746436441618
    Total Energy =                       -384.0874643644161779
  Basis Set: CC-PVTZ
  Basis Set:
  Basis Set: CC-PVTZ
  Basis Set:
  @DF-RHF Final Energy:  -384.08746757487518
    Total Energy =                       -384.0874675748751770
  Basis Set: CC-PVTZ
  Basis Set:
  Basis Set: CC-PVTZ
  Basis Set:
  @DF-RHF Final Energy:  -384.08746868335527
    Total Energy =                       -384.0874686833548139
  Basis Set: CC-PVTZ
  Basis Set:
  Charge       = 0
  Multiplicity = 1
  Basis Set: CC-PVTZ
  Basis Set:

    Orbital Energies (a.u.)
    -----------------------

    Doubly Occupied:

       1A    -20.594200     2A    -20.532598     3A    -11.366626
       4A    -11.280341     5A    -11.231673     6A    -11.223691
       7A    -11.218577     8A    -11.211506     9A     -1.470999
      10A     -1.365124    11A     -1.087085    12A     -1.029209
      13A     -0.982305    14A     -0.881221    15A     -0.813096
      16A     -0.775307    17A     -0.692523    18A     -0.687406
      19A     -0.670100    20A     -0.633037    21A     -0.601346
      22A     -0.594190    23A     -0.573171    24A     -0.551284
      25A     -0.546061    26A     -0.533510    27A     -0.512805
      28A     -0.484474    29A     -0.475065    30A     -0.473477
      31A     -0.452111    32A     -0.442126

  @DF-RHF Final Energy:  -384.08746887506811

   => Energetics <=

    Nuclear Repulsion Energy =            385.9855885700036424
    One-Electron Energy =               -1288.1736315622952134
    Two-Electron Energy =                 518.1005741172233456
    DFT Exchange-Correlation Energy =       0.0000000000000000
    Empirical Dispersion Energy =           0.0000000000000000
    PCM Polarization Energy =               0.0000000000000000
    EFP Energy =                            0.0000000000000000
    Total Energy =                       -384.0874688750682253
    Molecular point group: c1
  Basis Set: CC-PVTZ
  Basis Set:

  -Total Gradient:
     Atom            X                  Y                   Z
    ------   -----------------  -----------------  -----------------
       1        0.000061108092     0.000059028753     0.000027683536
       2       -0.000036078755    -0.000021097725    -0.000043572557
       3       -0.000017575011    -0.000005167269     0.000035787280
       4       -0.000027389380    -0.000022350671     0.000004462060
       5       -0.000009092126    -0.000016569618     0.000002784413
       6        0.000024664074     0.000004872364     0.000003117865
       7        0.000003601476     0.000004395298    -0.000029641554
       8        0.000211144108    -0.001171736983     0.000361197488
       9        0.000166821616    -0.000962913389     0.000306014445
      10       -0.000222200470     0.001239026455    -0.000385554311
      11        0.000009185905     0.000003331933     0.000000617521
      12       -0.000154833780     0.000880674384    -0.000278078786
      13       -0.000008224115    -0.000005441090     0.000003050770
      14        0.000003855750    -0.000000182678     0.000000666893
      15        0.000002700258     0.000002049348    -0.000002838414
      16       -0.000003404127     0.000004178897    -0.000000076691
      17        0.000000146755     0.000004741649    -0.000004898264
      18       -0.000000770151     0.000000936208    -0.000002341824
      19        0.000001287783    -0.000001286965     0.000001087139
      20       -0.000004947902     0.000003511098     0.000000532988

  **** Optimization is complete! (in 7 steps) ****
    Final optimized geometry and variables:
    Molecular point group: c1

    Geometry (in Angstrom), charge = 0, multiplicity = 1:

    O           -2.303310853632    -0.844653518890    -0.995593722185
    C           -1.803626530223     0.164165962099    -0.630107791152
    C           -2.536729930125     1.460832451962    -0.432944684064
    O           -0.519575170970     0.282524404294    -0.344698179658
    H           -2.100922277739     2.224093303712    -1.064592919374
    H           -3.578284914214     1.327686325897    -0.675879497365
    H           -2.431995109365     1.784972877770     0.594416221031
    C            0.301315609778    -0.870213723528    -0.490059133995
    C            1.719974590315    -0.500729720837    -0.109941876841
    H            0.248805820595    -1.200359915587    -1.517779892810
    H           -0.087035053032    -1.660209206383     0.138210666167
    C            1.882048296039    -0.022384023027     1.330375718816
    H            2.077971043201     0.265372906375    -0.791196866126
    H            2.337534650896    -1.379014352559    -0.276575912464
    C            3.330482384767     0.300706757801     1.681267546142
    H            1.266297375399     0.854752610147     1.488595912572
    H            1.509092256993    -0.787734123681     2.006055863239
    H            3.417936086576     0.638560841423     2.707219142459
    H            3.722347253491     1.084122601354     1.041131351556
    H            3.967517437668    -0.569777014924     1.564373577202

  Mulliken Charges: (a.u.)
   Center  Symbol    Alpha    Beta     Spin     Total
       1     O     4.19739  4.19739  0.00000 -0.39479
       2     C     2.80850  2.80850  0.00000  0.38299
       3     C     3.13861  3.13861  0.00000 -0.27721
       4     O     4.15338  4.15338  0.00000 -0.30677
       5     H     0.44574  0.44574  0.00000  0.10851
       6     H     0.43768  0.43768  0.00000  0.12464
       7     H     0.44605  0.44605  0.00000  0.10789
       8     C     2.99454  2.99454  0.00000  0.01091
       9     C     3.08457  3.08457  0.00000 -0.16915
      10     H     0.44455  0.44455  0.00000  0.11091
      11     H     0.45013  0.45013  0.00000  0.09974
      12     C     3.08598  3.08598  0.00000 -0.17197
      13     H     0.45215  0.45215  0.00000  0.09570
      14     H     0.45162  0.45162  0.00000  0.09677
      15     C     3.15022  3.15022  0.00000 -0.30044
      16     H     0.44636  0.44636  0.00000  0.10729
      17     H     0.45531  0.45531  0.00000  0.08939
      18     H     0.44736  0.44736  0.00000  0.10528
      19     H     0.45444  0.45444  0.00000  0.09113
      20     H     0.45541  0.45541  0.00000  0.08917

   Total alpha = 32.00000, Total beta = 32.00000, Total charge = -0.00000

*** Psi4 exiting successfully. Buy a developer a beer!
