  ==> Input File <==

--------------------------------------------------------------------------
set {
	reference rhf
	basis cc-pvtz
}

set_num_threads( 4 )
memory 2 gb

molecule MOL {
0 1

H	 2.190573	 -0.629143	 -0.208718
O	 1.355408	 -0.529451	 0.208662
C	 0.700177	 0.619554	 -0.266242
C	 -0.713111	 0.588314	 0.266177
H	 0.678680	 0.627133	 -1.351786
H	 1.199747	 1.521489	 0.077736
O	 -1.421673	 -0.521378	 -0.196983
H	 -1.244794	 1.469161	 -0.069059
H	 -0.685100	 0.604721	 1.352683
H	 -2.342359	 -0.347645	 -0.106545

	symmetry c1
}
set optking {
	frozen_dihedral = ("
		10 7 4 3
	")
}

ee = optimize('scf')
oeprop('DIPOLE', 'QUADRUPOLE', 'MULLIKEN_CHARGES')
f=open( 'psi4out.xyz', 'w' )
f.write( "10  " )
f.write( str(ee) + "\n" )
f.write( MOL.save_string_xyz() )
f.close()
--------------------------------------------------------------------------

    Molecular point group: c1
  Charge       = 0
  Multiplicity = 1
  Basis Set: CC-PVTZ
  Basis Set:
  @DF-RHF Final Energy:  -229.02172302157120
    Total Energy =                       -229.0217230215712618
    Molecular point group: c1
  Basis Set: CC-PVTZ
  Basis Set:
  Basis Set: CC-PVTZ
  Basis Set:
  @DF-RHF Final Energy:  -229.02315415635215
    Total Energy =                       -229.0231541563521205
  Basis Set: CC-PVTZ
  Basis Set:
  Basis Set: CC-PVTZ
  Basis Set:
  @DF-RHF Final Energy:  -229.02335767910006
    Total Energy =                       -229.0233576791000019
  Basis Set: CC-PVTZ
  Basis Set:
  Basis Set: CC-PVTZ
  Basis Set:
  @DF-RHF Final Energy:  -229.02338230130707
    Total Energy =                       -229.0233823013070378
  Basis Set: CC-PVTZ
  Basis Set:
  Basis Set: CC-PVTZ
  Basis Set:
  @DF-RHF Final Energy:  -229.02338560963278
    Total Energy =                       -229.0233856096327258
  Basis Set: CC-PVTZ
  Basis Set:
  Charge       = 0
  Multiplicity = 1
  Basis Set: CC-PVTZ
  Basis Set:

    Orbital Energies (a.u.)
    -----------------------

    Doubly Occupied:

       1A    -20.545984     2A    -20.545529     3A    -11.268690
       4A    -11.267955     5A     -1.374844     6A     -1.355172
       7A     -1.003872     8A     -0.832019     9A     -0.720867
      10A     -0.704919    11A     -0.624199    12A     -0.602077
      13A     -0.586286    14A     -0.525156    15A     -0.481365
      16A     -0.447245    17A     -0.437746

  @DF-RHF Final Energy:  -229.02338659658224

   => Energetics <=

    Nuclear Repulsion Energy =            133.4438654539563061
    One-Electron Energy =                -578.2866519748831706
    Two-Electron Energy =                 215.8193999243447365
    DFT Exchange-Correlation Energy =       0.0000000000000000
    Empirical Dispersion Energy =           0.0000000000000000
    PCM Polarization Energy =               0.0000000000000000
    EFP Energy =                            0.0000000000000000
    Total Energy =                       -229.0233865965821565
    Molecular point group: c1
  Basis Set: CC-PVTZ
  Basis Set:

  -Total Gradient:
     Atom            X                  Y                   Z
    ------   -----------------  -----------------  -----------------
       1        0.000017176837     0.000012923639     0.000013252640
       2       -0.000037988271     0.000009964759    -0.000022438507
       3       -0.000213658326     0.000605984736    -0.000722557752
       4        0.000371265585    -0.000583539096     0.000736345413
       5        0.000009055276    -0.000013555632    -0.000027738320
       6        0.000007571784    -0.000036173546    -0.000028406054
       7       -0.000126925432    -0.000693940556     0.001436035998
       8       -0.000005425931    -0.000008645336     0.000015097555
       9        0.000008527669     0.000010792141     0.000024697753
      10       -0.000029599191     0.000696188892    -0.001424288724

  **** Optimization is complete! (in 6 steps) ****
    Final optimized geometry and variables:
    Molecular point group: c1

    Geometry (in Angstrom), charge = 0, multiplicity = 1:

    H            2.227248475423    -0.629746623398    -0.194213981572
    O            1.421014994133    -0.508827614200     0.271542480083
    C            0.703067130607     0.560906116324    -0.273784686509
    C           -0.698867767710     0.556217624988     0.283190173637
    H            0.649326231805     0.487039982941    -1.355687381874
    H            1.173607002477     1.508069065439    -0.017889550307
    O           -1.417328525879    -0.517576740889    -0.256728550002
    H           -1.167574660051     1.502663840087     0.024524822829
    H           -0.651652353492     0.485554534753     1.365968311941
    H           -2.339462717151    -0.365199847561    -0.169799565520

  Mulliken Charges: (a.u.)
   Center  Symbol    Alpha    Beta     Spin     Total
       1     H     0.39496  0.39496  0.00000  0.21008
       2     O     4.19493  4.19493  0.00000 -0.38987
       3     C     2.96020  2.96020  0.00000  0.07960
       4     C     2.96124  2.96124  0.00000  0.07751
       5     H     0.47186  0.47186  0.00000  0.05629
       6     H     0.47802  0.47802  0.00000  0.04397
       7     O     4.19474  4.19474  0.00000 -0.38947
       8     H     0.47816  0.47816  0.00000  0.04367
       9     H     0.47064  0.47064  0.00000  0.05872
      10     H     0.39525  0.39525  0.00000  0.20950

   Total alpha = 17.00000, Total beta = 17.00000, Total charge =  0.00000
