                              Psi4 1.0.54 Driver

  ==> Input File <==

--------------------------------------------------------------------------
set {
	reference rhf
	basis cc-pvtz
}

set_num_threads( 4 )
memory 2 gb

molecule MOL {
0 1

H	 2.742735	 -1.435596	 1.030305
O	 2.824271	 -1.154299	 0.131461
C	 2.076458	 -0.067370	 -0.038225
C	 0.626018	 -0.337582	 0.258241
O	 2.538288	 0.965419	 -0.381593
C	 -0.267326	 0.883135	 0.076490
H	 0.325620	 -1.161483	 -0.378003
H	 0.574537	 -0.713685	 1.275261
C	 -1.726822	 0.642622	 0.463839
H	 -0.210803	 1.217591	 -0.953497
H	 0.129920	 1.693110	 0.675679
C	 -2.480891	 -0.340606	 -0.429852
H	 -2.243098	 1.597649	 0.438609
H	 -1.776542	 0.301208	 1.495542
C	 -3.955933	 -0.460128	 -0.060472
H	 -2.393755	 -0.020485	 -1.464726
H	 -2.024244	 -1.323637	 -0.374360
H	 -4.467673	 -1.160944	 -0.709827
H	 -4.458917	 0.497287	 -0.144505
H	 -4.076458	 -0.806900	 0.960497

	symmetry c1
}
set optking {
	frozen_dihedral = ("
		1 2 3 5
	")
}

ee,wfn = optimize('scf', return_wfn=True)
oeprop( wfn, 'DIPOLE', 'QUADRUPOLE', 'MULLIKEN_CHARGES')
f=open( 'psi4out.xyz', 'w' )
f.write( "20  " )
f.write( str(ee) + "\n" )
f.write( MOL.save_string_xyz() )
f.close()
--------------------------------------------------------------------------

    Molecular point group: c1
  Charge       = 0
  Multiplicity = 1
  Basis Set: CC-PVTZ
  Basis Set:
  @DF-RHF Final Energy:  -384.07560541461703
    Total Energy =                       -384.0756054146177121
    Molecular point group: c1
  Basis Set: CC-PVTZ
  Basis Set:
  Basis Set: CC-PVTZ
  Basis Set:
  @DF-RHF Final Energy:  -384.07697143679604
    Total Energy =                       -384.0769714367958727
  Basis Set: CC-PVTZ
  Basis Set:
  Basis Set: CC-PVTZ
  Basis Set:
  @DF-RHF Final Energy:  -384.07708171606748
    Total Energy =                       -384.0770817160680508
  Basis Set: CC-PVTZ
  Basis Set:
  Basis Set: CC-PVTZ
  Basis Set:
  @DF-RHF Final Energy:  -384.07691578445025
    Total Energy =                       -384.0769157844496249
  Basis Set: CC-PVTZ
  Basis Set:
  Basis Set: CC-PVTZ
  Basis Set:
  @DF-RHF Final Energy:  -384.07713099246882
    Total Energy =                       -384.0771309924684829
  Basis Set: CC-PVTZ
  Basis Set:
  Basis Set: CC-PVTZ
  Basis Set:
  @DF-RHF Final Energy:  -384.07713224196345
    Total Energy =                       -384.0771322419631701
  Basis Set: CC-PVTZ
  Basis Set:
  Charge       = 0
  Multiplicity = 1
  Basis Set: CC-PVTZ
  Basis Set:

    Orbital Energies (a.u.)
    -----------------------

    Doubly Occupied:

       1A    -20.590372     2A    -20.546901     3A    -11.373495
       4A    -11.244614     5A    -11.224430     6A    -11.221949
       7A    -11.221121     8A    -11.212947     9A     -1.464511
      10A     -1.371989    11A     -1.100166    12A     -1.043117
      13A     -0.960459    14A     -0.866505    15A     -0.823040
      16A     -0.789173    17A     -0.718278    18A     -0.674628
      19A     -0.663153    20A     -0.638323    21A     -0.619431
      22A     -0.592956    23A     -0.563464    24A     -0.551827
      25A     -0.545587    26A     -0.511822    27A     -0.503174
      28A     -0.491938    29A     -0.473207    30A     -0.470064
      31A     -0.461761    32A     -0.445156

  @DF-RHF Final Energy:  -384.07713228183769

   => Energetics <=

    Nuclear Repulsion Energy =            375.9888307908864249
    One-Electron Energy =               -1268.1728068541729044
    Two-Electron Energy =                 508.1068437814488448
    DFT Exchange-Correlation Energy =       0.0000000000000000
    Empirical Dispersion Energy =           0.0000000000000000
    PCM Polarization Energy =               0.0000000000000000
    EFP Energy =                            0.0000000000000000
    Total Energy =                       -384.0771322818376916
    Molecular point group: c1
  Basis Set: CC-PVTZ
  Basis Set:

  -Total Gradient:
     Atom            X                  Y                   Z
    ------   -----------------  -----------------  -----------------
       1        0.004249344631     0.003486467676     0.001277282776
       2       -0.005065225563    -0.003786559429     0.000437895811
       3        0.000058410628    -0.001079274076    -0.006316516054
       4        0.000047165775    -0.000056647887    -0.000010762880
       5        0.000726948436     0.001424194838     0.004615600675
       6       -0.000026777591    -0.000005006044    -0.000028590350
       7        0.000015695795     0.000021224309     0.000015021799
       8        0.000007038440     0.000003773398     0.000003662939
       9        0.000012789017    -0.000017195747     0.000015100609
      10        0.000000518497    -0.000008415288    -0.000005625941
      11       -0.000004193491     0.000005632914     0.000000094097
      12       -0.000007350064     0.000004464389    -0.000002172160
      13        0.000002952154     0.000004321003     0.000006825680
      14        0.000006979881    -0.000008557324     0.000004929206
      15        0.000000457628     0.000004694977    -0.000004725758
      16        0.000002232000    -0.000003329663    -0.000010754327
      17       -0.000024492267     0.000008731419     0.000004438197
      18       -0.000001751703    -0.000000238352    -0.000001535492
      19       -0.000002916990     0.000001318838     0.000000213641
      20        0.000002174786     0.000000400050    -0.000000382468

  **** Optimization is complete! (in 7 steps) ****
    Final optimized geometry and variables:
    Molecular point group: c1

    Geometry (in Angstrom), charge = 0, multiplicity = 1:

    H            2.875812960205    -1.403776784621     1.080112196772
    O            2.896989429611    -1.114102224072     0.183712328894
    C            2.084557759872    -0.050621169850    -0.022369966362
    C            0.628537115295    -0.324346870306     0.264470948624
    O            2.517604574818     0.969142631731    -0.409642852124
    C           -0.275103979788     0.886301154086     0.067009942237
    H            0.341459518473    -1.154709848245    -0.370192808860
    H            0.556197716262    -0.695022699184     1.284926438903
    C           -1.737591440440     0.635567953144     0.436602498929
    H           -0.206560459446     1.214782370754    -0.963752797852
    H            0.107687427317     1.703301448578     0.666533078164
    C           -2.474017127996    -0.352412445056    -0.466679543950
    H           -2.259717876991     1.587110388778     0.404956258333
    H           -1.798615462131     0.294235970684     1.467980486417
    C           -3.951599645237    -0.485905987451    -0.112306565901
    H           -2.379130864838    -0.029333487736    -1.499829781393
    H           -2.009278968938    -1.331639769318    -0.409097733993
    H           -4.449722969088    -1.191982651770    -0.766432543052
    H           -4.462850362645     0.466515759798    -0.202375234905
    H           -4.079634996705    -0.833107337252     0.907660239215

  Mulliken Charges: (a.u.)
   Center  Symbol    Alpha    Beta     Spin     Total
       1     H     0.38964  0.38964  0.00000  0.22072
       2     O     4.16471  4.16471  0.00000 -0.32942
       3     C     2.79977  2.79977  0.00000  0.40047
       4     C     3.12390  3.12390  0.00000 -0.24779
       5     O     4.16239  4.16239  0.00000 -0.32478
       6     C     3.09529  3.09529  0.00000 -0.19057
       7     H     0.43408  0.43408  0.00000  0.13184
       8     H     0.45081  0.45081  0.00000  0.09838
       9     C     3.09952  3.09952  0.00000 -0.19903
      10     H     0.44254  0.44254  0.00000  0.11492
      11     H     0.43943  0.43943  0.00000  0.12115
      12     C     3.08676  3.08676  0.00000 -0.17351
      13     H     0.44492  0.44492  0.00000  0.11017
      14     H     0.45477  0.45477  0.00000  0.09046
      15     C     3.14943  3.14943  0.00000 -0.29885
      16     H     0.45142  0.45142  0.00000  0.09715
      17     H     0.45494  0.45494  0.00000  0.09011
      18     H     0.44727  0.44727  0.00000  0.10546
      19     H     0.45320  0.45320  0.00000  0.09359
      20     H     0.45523  0.45523  0.00000  0.08954

   Total alpha = 32.00000, Total beta = 32.00000, Total charge =  0.00000

*** Psi4 exiting successfully. Buy a developer a beer!
