                              Psi4 1.0.54 Driver

  ==> Input File <==

--------------------------------------------------------------------------
set {
	reference rhf
	basis cc-pvtz
}

set_num_threads( 4 )
memory 2 gb

molecule MOL {
0 1

H	 -2.256510	 1.828155	 -0.272302
O	 -1.417614	 1.392534	 -0.286645
C	 -1.605397	 0.107680	 0.001145
C	 -0.310616	 -0.658853	 0.000791
O	 -2.677773	 -0.336074	 0.227115
C	 0.926581	 0.227233	 0.000178
H	 -0.327628	 -1.313681	 -0.864448
H	 -0.327041	 -1.313334	 0.866298
C	 2.220156	 -0.582071	 -0.000088
H	 0.899945	 0.878221	 -0.866390
H	 0.900542	 0.878581	 0.866486
C	 3.466689	 0.296012	 -0.000457
H	 2.239073	 -1.234095	 -0.869382
H	 2.239505	 -1.233985	 0.869270
H	 3.493549	 0.935857	 -0.875887
H	 4.368821	 -0.304526	 -0.001199
H	 3.494559	 0.935166	 0.875458

	symmetry c1
}
set optking {
	frozen_dihedral = ("
		2 3 4 7
	")
}

ee,wfn = optimize('scf', return_wfn=True)
oeprop( wfn, 'DIPOLE', 'QUADRUPOLE', 'MULLIKEN_CHARGES')
f=open( 'psi4out.xyz', 'w' )
f.write( "17  " )
f.write( str(ee) + "\n" )
f.write( MOL.save_string_xyz() )
f.close()
--------------------------------------------------------------------------

    Molecular point group: c1
  Charge       = 0
  Multiplicity = 1
  Basis Set: CC-PVTZ
  Basis Set:
  @DF-RHF Final Energy:  -345.04503981434203
    Total Energy =                       -345.0450398143418624
    Molecular point group: c1
  Basis Set: CC-PVTZ
  Basis Set:
  Basis Set: CC-PVTZ
  Basis Set:
  @DF-RHF Final Energy:  -345.04584358966531
    Total Energy =                       -345.0458435896655374
  Basis Set: CC-PVTZ
  Basis Set:
  Basis Set: CC-PVTZ
  Basis Set:
  @DF-RHF Final Energy:  -345.04546672698154
    Total Energy =                       -345.0454667269813172
  Basis Set: CC-PVTZ
  Basis Set:
  Basis Set: CC-PVTZ
  Basis Set:
  @DF-RHF Final Energy:  -345.04624425493415
    Total Energy =                       -345.0462442549340949
  Basis Set: CC-PVTZ
  Basis Set:
  Basis Set: CC-PVTZ
  Basis Set:
  @DF-RHF Final Energy:  -345.04626384588784
    Total Energy =                       -345.0462638458880065
  Basis Set: CC-PVTZ
  Basis Set:
  Basis Set: CC-PVTZ
  Basis Set:
  @DF-RHF Final Energy:  -345.04626639366717
    Total Energy =                       -345.0462663936666559
  Basis Set: CC-PVTZ
  Basis Set:
  Charge       = 0
  Multiplicity = 1
  Basis Set: CC-PVTZ
  Basis Set:

    Orbital Energies (a.u.)
    -----------------------

    Doubly Occupied:

       1A    -20.606887     2A    -20.536299     3A    -11.374150
       4A    -11.239550     5A    -11.225577     6A    -11.223272
       7A    -11.213342     8A     -1.478909     9A     -1.367753
      10A     -1.095167    11A     -1.020031    12A     -0.910164
      13A     -0.828180    14A     -0.809246    15A     -0.703034
      16A     -0.679423    17A     -0.670939    18A     -0.632797
      19A     -0.593482    20A     -0.582044    21A     -0.576946
      22A     -0.535945    23A     -0.518151    24A     -0.500798
      25A     -0.484577    26A     -0.481981    27A     -0.468968
      28A     -0.436510

  @DF-RHF Final Energy:  -345.04626654468228

   => Energetics <=

    Nuclear Repulsion Energy =            305.3485440718314408
    One-Electron Energy =               -1075.2013763932770871
    Two-Electron Energy =                 424.8065657767637049
    DFT Exchange-Correlation Energy =       0.0000000000000000
    Empirical Dispersion Energy =           0.0000000000000000
    PCM Polarization Energy =               0.0000000000000000
    EFP Energy =                            0.0000000000000000
    Total Energy =                       -345.0462665446819983
    Molecular point group: c1
  Basis Set: CC-PVTZ
  Basis Set:

  -Total Gradient:
     Atom            X                  Y                   Z
    ------   -----------------  -----------------  -----------------
       1       -0.000002435537     0.000005983649     0.000000050402
       2        0.000059241311     0.000099997691     0.000457008531
       3       -0.000112037067    -0.000218557114    -0.000560687672
       4        0.000239745576     0.000540931045    -0.000191458585
       5        0.000002174814     0.000000003453    -0.000004786867
       6        0.000004614596    -0.000003520382     0.000005748825
       7       -0.000190070452    -0.000427943644     0.000292385425
       8        0.000005297538     0.000003420570    -0.000003099999
       9        0.000000086092    -0.000002881343     0.000005076269
      10       -0.000002127177    -0.000001364378     0.000000704131
      11       -0.000001810093     0.000002487676     0.000004315723
      12       -0.000001138708     0.000002180864    -0.000005532582
      13       -0.000000314115    -0.000001402841     0.000000537032
      14        0.000001004900     0.000001525322     0.000001644074
      15        0.000000689519     0.000002316205    -0.000000460615
      16       -0.000001979821    -0.000001019872    -0.000001871501
      17       -0.000000941380    -0.000002156900     0.000000427407

  **** Optimization is complete! (in 7 steps) ****
    Final optimized geometry and variables:
    Molecular point group: c1

    Geometry (in Angstrom), charge = 0, multiplicity = 1:

    H           -2.547610468518     1.562544272015    -0.163004824773
    O           -1.657327636039     1.246271999525    -0.203166222171
    C           -1.670543004356    -0.057865766648     0.043777658274
    C           -0.312170275669    -0.712811124338    -0.009019117851
    O           -2.674219201621    -0.642177837019     0.270611340604
    C            0.900746303359     0.210805162947    -0.010400742656
    H           -0.321301621160    -1.335560837898    -0.898428822258
    H           -0.281281182481    -1.397966167517     0.828995548589
    C            2.212834081605    -0.568218200956    -0.037721216153
    H            0.853749126483     0.874418439109    -0.865833576441
    H            0.874974143584     0.845606140769     0.869354879593
    C            3.439196837653     0.337747143623    -0.039240544390
    H            2.234826433732    -1.205866589308    -0.917361046978
    H            2.256636300461    -1.232636251149     0.820829594111
    H            3.441758015338     0.991050316927    -0.905164611612
    H            4.354218630652    -0.242431214005    -0.059642548118
    H            3.463853823689     0.963905298573     0.846198807505

  Mulliken Charges: (a.u.)
   Center  Symbol    Alpha    Beta     Spin     Total
       1     H     0.38488  0.38488  0.00000  0.23024
       2     O     4.15006  4.15006  0.00000 -0.30011
       3     C     2.81273  2.81273  0.00000  0.37454
       4     C     3.10004  3.10004  0.00000 -0.20007
       5     O     4.19712  4.19712  0.00000 -0.39423
       6     C     3.08796  3.08796  0.00000 -0.17593
       7     H     0.43900  0.43900  0.00000  0.12199
       8     H     0.43490  0.43490  0.00000  0.13020
       9     C     3.08800  3.08800  0.00000 -0.17600
      10     H     0.44551  0.44551  0.00000  0.10898
      11     H     0.44801  0.44801  0.00000  0.10397
      12     C     3.14950  3.14950  0.00000 -0.29899
      13     H     0.45378  0.45378  0.00000  0.09244
      14     H     0.45325  0.45325  0.00000  0.09351
      15     H     0.45409  0.45409  0.00000  0.09183
      16     H     0.44712  0.44712  0.00000  0.10577
      17     H     0.45406  0.45406  0.00000  0.09188

   Total alpha = 28.00000, Total beta = 28.00000, Total charge = -0.00000

*** Psi4 exiting successfully. Buy a developer a beer!
