                              Psi4 1.0.54 Driver

  ==> Input File <==

--------------------------------------------------------------------------
set {
	reference rhf
	basis cc-pvtz
}

set_num_threads( 4 )
memory 2 gb

molecule MOL {
0 1

H	 2.542722	 0.687448	 0.138414
O	 2.063695	 -0.083403	 -0.105237
C	 0.742924	 0.005675	 0.350750
H	 0.731380	 0.039219	 1.440080
C	 -0.064076	 -1.193495	 -0.124425
C	 -0.047832	 1.190568	 -0.194462
H	 0.194729	 -1.376165	 -1.161308
H	 0.163013	 -2.094508	 0.429933
C	 -1.533112	 -0.752002	 0.006102
H	 0.148003	 1.266545	 -1.259275
H	 0.226235	 2.136493	 0.259722
C	 -1.506634	 0.799189	 0.067162
H	 -2.124360	 -1.110499	 -0.826089
H	 -1.983103	 -1.158030	 0.903403
H	 -2.183808	 1.252169	 -0.644677
H	 -1.813926	 1.138698	 1.049457

	symmetry c1
}
set optking {
	frozen_dihedral = ("
		1 2 3 6
	")
}

ee,wfn = optimize('scf', return_wfn=True)
oeprop( wfn, 'DIPOLE', 'QUADRUPOLE', 'MULLIKEN_CHARGES')
f=open( 'psi4out.xyz', 'w' )
f.write( "16  " )
f.write( str(ee) + "\n" )
f.write( MOL.save_string_xyz() )
f.close()
--------------------------------------------------------------------------

    Molecular point group: c1
  Charge       = 0
  Multiplicity = 1
  Basis Set: CC-PVTZ
  Basis Set:
  @DF-RHF Final Energy:  -270.11686151674019
    Total Energy =                       -270.1168615167402436
    Molecular point group: c1
  Basis Set: CC-PVTZ
  Basis Set:
  Basis Set: CC-PVTZ
  Basis Set:
  @DF-RHF Final Energy:  -270.11686387605346
    Total Energy =                       -270.1168638760534577
  Basis Set: CC-PVTZ
  Basis Set:
  Charge       = 0
  Multiplicity = 1
  Basis Set: CC-PVTZ
  Basis Set:

    Orbital Energies (a.u.)
    -----------------------

    Doubly Occupied:

       1A    -20.545759     2A    -11.267166     3A    -11.215394
       4A    -11.213474     5A    -11.211132     6A    -11.207080
       7A     -1.365807     8A     -1.115215     9A     -0.967139
      10A     -0.949336    11A     -0.791072    12A     -0.777339
      13A     -0.704648    14A     -0.659247    15A     -0.618383
      16A     -0.591962    17A     -0.569213    18A     -0.526532
      19A     -0.506078    20A     -0.482207    21A     -0.471331
      22A     -0.456996    23A     -0.448810    24A     -0.423233

  @DF-RHF Final Energy:  -270.11686416398271

   => Energetics <=

    Nuclear Repulsion Energy =            255.6289963154050042
    One-Electron Energy =                -873.3226128428600532
    Two-Electron Energy =                 347.5767523634724512
    DFT Exchange-Correlation Energy =       0.0000000000000000
    Empirical Dispersion Energy =           0.0000000000000000
    PCM Polarization Energy =               0.0000000000000000
    EFP Energy =                            0.0000000000000000
    Total Energy =                       -270.1168641639826546
    Molecular point group: c1
  Basis Set: CC-PVTZ
  Basis Set:

  -Total Gradient:
     Atom            X                  Y                   Z
    ------   -----------------  -----------------  -----------------
       1       -0.000162412494     0.000264005396    -0.000486338066
       2        0.000271444260    -0.000240280022     0.000722578899
       3       -0.000231789486    -0.000218420976    -0.000477581505
       4        0.000011948536     0.000001018885    -0.000005318449
       5       -0.000010388210     0.000007261142    -0.000037260848
       6        0.000090709876     0.000177504437     0.000272004062
       7        0.000001046814     0.000001465507     0.000001679571
       8       -0.000001897697     0.000005230392     0.000004208127
       9        0.000017132204    -0.000000371892     0.000014303296
      10       -0.000001427986    -0.000003072781    -0.000021659389
      11       -0.000001528261    -0.000006868239     0.000009225743
      12        0.000017633352     0.000008430468     0.000009346794
      13        0.000002670321     0.000001258222    -0.000004070970
      14       -0.000002371512     0.000005891650    -0.000002327437
      15        0.000001281926    -0.000000322410    -0.000002029096
      16       -0.000002051640    -0.000002729778     0.000003239268

  **** Optimization is complete! (in 3 steps) ****
    Final optimized geometry and variables:
    Molecular point group: c1

    Geometry (in Angstrom), charge = 0, multiplicity = 1:

    H            2.543091693970     0.686003443045     0.144949043363
    O            2.064932876613    -0.084458244784    -0.102129354442
    C            0.742793220427     0.004628469663     0.349408125814
    H            0.729342547012     0.039183194229     1.438850819213
    C           -0.064329817909    -1.194331796424    -0.125320595882
    C           -0.047440085123     1.190041695567    -0.194794159494
    H            0.192215775467    -1.376513086963    -1.162787569825
    H            0.163172207225    -2.095634642958     0.428380791578
    C           -1.532985125401    -0.752149094826     0.008665681723
    H            0.145734199960     1.267009663710    -1.260227219820
    H            0.227534123934     2.135401929875     0.260218231686
    C           -1.505944842736     0.799020994586     0.069243453265
    H           -2.126024321694    -1.110536164697    -0.822295537265
    H           -1.981283833149    -1.157726863139     0.906961516197
    H           -2.184074345840     1.252114902306    -0.641599005334
    H           -1.811159306891     1.138986679227     1.051974032086

  Mulliken Charges: (a.u.)
   Center  Symbol    Alpha    Beta     Spin     Total
       1     H     0.39514  0.39514  0.00000  0.20971
       2     O     4.20052  4.20052  0.00000 -0.40103
       3     C     2.92230  2.92230  0.00000  0.15541
       4     H     0.46639  0.46639  0.00000  0.06722
       5     C     3.10198  3.10198  0.00000 -0.20395
       6     C     3.10470  3.10470  0.00000 -0.20940
       7     H     0.45136  0.45136  0.00000  0.09729
       8     H     0.44330  0.44330  0.00000  0.11340
       9     C     3.10978  3.10978  0.00000 -0.21955
      10     H     0.45317  0.45317  0.00000  0.09366
      11     H     0.44937  0.44937  0.00000  0.10125
      12     C     3.11444  3.11444  0.00000 -0.22887
      13     H     0.44543  0.44543  0.00000  0.10914
      14     H     0.44854  0.44854  0.00000  0.10292
      15     H     0.44329  0.44329  0.00000  0.11342
      16     H     0.45030  0.45030  0.00000  0.09940

   Total alpha = 24.00000, Total beta = 24.00000, Total charge = -0.00000

*** Psi4 exiting successfully. Buy a developer a beer!
