                              Psi4 1.0.54 Driver

  ==> Input File <==

--------------------------------------------------------------------------
set {
	reference rhf
	basis cc-pvtz
}

set_num_threads( 4 )
memory 2 gb

molecule MOL {
0 1

H	 1.074655	 2.266928	 0.934139
O	 1.317683	 1.360617	 0.997303
C	 0.706474	 0.636793	 -0.025501
C	 -0.793473	 0.591216	 0.050087
H	 1.097466	 -0.371949	 0.036682
H	 0.997629	 1.022242	 -1.000876
C	 -1.534243	 -0.493009	 -0.013340
H	 -1.266611	 1.552628	 0.164437
H	 -1.101195	 -1.466332	 -0.144046
H	 -2.604242	 -0.437780	 0.050785

	symmetry c1
}
set optking {
	frozen_dihedral = ("
		5 3 4 7
	")
}

ee,wfn = optimize('scf', return_wfn=True)
oeprop( wfn, 'DIPOLE', 'QUADRUPOLE', 'MULLIKEN_CHARGES')
f=open( 'psi4out.xyz', 'w' )
f.write( "10  " )
f.write( str(ee) + "\n" )
f.write( MOL.save_string_xyz() )
f.close()
--------------------------------------------------------------------------

    Molecular point group: c1
  Charge       = 0
  Multiplicity = 1
  Basis Set: CC-PVTZ
  Basis Set:
  @DF-RHF Final Energy:  -191.99627052350499
    Total Energy =                       -191.9962705235050180
    Molecular point group: c1
  Basis Set: CC-PVTZ
  Basis Set:
  Basis Set: CC-PVTZ
  Basis Set:
  @DF-RHF Final Energy:  -191.99667623644297
    Total Energy =                       -191.9966762364430224
  Basis Set: CC-PVTZ
  Basis Set:
  Basis Set: CC-PVTZ
  Basis Set:
  @DF-RHF Final Energy:  -191.99674057810827
    Total Energy =                       -191.9967405781083016
  Basis Set: CC-PVTZ
  Basis Set:
  Basis Set: CC-PVTZ
  Basis Set:
  @DF-RHF Final Energy:  -191.99674607880004
    Total Energy =                       -191.9967460787999869
  Basis Set: CC-PVTZ
  Basis Set:
  Basis Set: CC-PVTZ
  Basis Set:
  @DF-RHF Final Energy:  -191.99674728275471
    Total Energy =                       -191.9967472827548818
  Basis Set: CC-PVTZ
  Basis Set:
  Charge       = 0
  Multiplicity = 1
  Basis Set: CC-PVTZ
  Basis Set:

    Orbital Energies (a.u.)
    -----------------------

    Doubly Occupied:

       1A    -20.552030     2A    -11.276467     3A    -11.230687
       4A    -11.221621     5A     -1.370221     6A     -1.066892
       7A     -0.923580     8A     -0.781946     9A     -0.693197
      10A     -0.657586    11A     -0.623296    12A     -0.572113
      13A     -0.541084    14A     -0.498182    15A     -0.446644
      16A     -0.374763

  @DF-RHF Final Energy:  -191.99674769362872

   => Energetics <=

    Nuclear Repulsion Energy =            117.4413725834281621
    One-Electron Energy =                -493.2156206282770654
    Two-Electron Energy =                 183.7775003512201124
    DFT Exchange-Correlation Energy =       0.0000000000000000
    Empirical Dispersion Energy =           0.0000000000000000
    PCM Polarization Energy =               0.0000000000000000
    EFP Energy =                            0.0000000000000000
    Total Energy =                       -191.9967476936287767
    Molecular point group: c1
  Basis Set: CC-PVTZ
  Basis Set:

  -Total Gradient:
     Atom            X                  Y                   Z
    ------   -----------------  -----------------  -----------------
       1       -0.000024869110     0.000020692091    -0.000015988907
       2        0.000080658127    -0.000005666019     0.000108346728
       3       -0.000113536128    -0.000002237599    -0.001112320547
       4        0.000020372028    -0.000080196770     0.000946866671
       5        0.000021864975     0.000033671308     0.000591411103
       6        0.000010137338    -0.000016164095     0.000011212688
       7        0.000005123355     0.000056579080    -0.000542532348
       8        0.000012110220    -0.000012698277     0.000004008645
       9       -0.000009521329     0.000009456681     0.000010008578
      10       -0.000002339477    -0.000003436399    -0.000001012609

  **** Optimization is complete! (in 6 steps) ****
    Final optimized geometry and variables:
    Molecular point group: c1

    Geometry (in Angstrom), charge = 0, multiplicity = 1:

    H            1.093569935055     1.677679561222     0.710760108371
    O            1.287299918375     0.760521159066     0.778848425198
    C            0.720026860017     0.063472956344    -0.298436479241
    C           -0.780973284696     0.038041706022    -0.249763816728
    H            1.108397306718    -0.943428969139    -0.247653207169
    H            1.047628598087     0.496581501226    -1.240771899585
    C           -1.514479653178    -1.048009919325    -0.346894757609
    H           -1.265018703268     0.996655871204    -0.149756225428
    H           -1.069492663547    -2.022177013480    -0.442108990888
    H           -2.587139935333    -1.005576767482    -0.333616031001

  Mulliken Charges: (a.u.)
   Center  Symbol    Alpha    Beta     Spin     Total
       1     H     0.39346  0.39346  0.00000  0.21307
       2     O     4.19977  4.19977  0.00000 -0.39954
       3     C     2.95600  2.95600  0.00000  0.08799
       4     C     3.06494  3.06494  0.00000 -0.12989
       5     H     0.45450  0.45450  0.00000  0.09100
       6     H     0.47022  0.47022  0.00000  0.05957
       7     C     3.16920  3.16920  0.00000 -0.33841
       8     H     0.43236  0.43236  0.00000  0.13527
       9     H     0.43072  0.43072  0.00000  0.13855
      10     H     0.42881  0.42881  0.00000  0.14237

   Total alpha = 16.00000, Total beta = 16.00000, Total charge = -0.00000

*** Psi4 exiting successfully. Buy a developer a beer!
