  ==> Input File <==

--------------------------------------------------------------------------
set {
	reference rhf
	basis 6-31G*
}

set_num_threads( 4 )
memory 2 gb

molecule MOL {
0 1

H	 2.777484	 0.708869	 0.437004
N	 2.332695	 -0.069570	 0.000000
C	 0.936681	 -0.007078	 0.000000
H	 2.734687	 -0.247167	 -0.895342
C	 0.227108	 -0.002120	 -1.198267
C	 0.227108	 -0.002120	 1.198267
H	 0.761569	 -0.014657	 -2.132680
C	 -1.156334	 0.010459	 -1.192360
H	 0.761569	 -0.014657	 2.132680
C	 -1.156334	 0.010459	 1.192360
H	 -1.684791	 0.014915	 -2.129421
C	 -1.862085	 0.017996	 0.000000
H	 -1.684791	 0.014915	 2.129421
H	 -2.936703	 0.028387	 0.000000

	symmetry c1
}
set optking {
	frozen_dihedral = ("
		1 2 3 5
	")
}

ee = optimize('scf')
oeprop('DIPOLE', 'QUADRUPOLE', 'MULLIKEN_CHARGES')
f=open( 'psi4out.xyz', 'w' )
f.write( "14  " )
f.write( str(ee) + "\n" )
f.write( MOL.save_string_xyz() )
f.close()
--------------------------------------------------------------------------

    Molecular point group: c1
  Charge       = 0
  Multiplicity = 1
  Basis Set: 6-31G*
  Basis Set:
  @DF-RHF Final Energy:  -285.72780321715362
    Total Energy =                       -285.7278032171538484
    Molecular point group: c1
  Basis Set: 6-31G*
  Basis Set:
  Basis Set: 6-31G*
  Basis Set:
  @DF-RHF Final Energy:  -285.72848952022611
    Total Energy =                       -285.7284895202258213
  Basis Set: 6-31G*
  Basis Set:
  Basis Set: 6-31G*
  Basis Set:
  @DF-RHF Final Energy:  -285.72860541593599
    Total Energy =                       -285.7286054159359878
  Basis Set: 6-31G*
  Basis Set:
  Basis Set: 6-31G*
  Basis Set:
  @DF-RHF Final Energy:  -285.72861288509478
    Total Energy =                       -285.7286128850948899
  Basis Set: 6-31G*
  Basis Set:
  Charge       = 0
  Multiplicity = 1
  Basis Set: 6-31G*
  Basis Set:

    Orbital Energies (a.u.)
    -----------------------

    Doubly Occupied:

       1A    -15.556919     2A    -11.267225     3A    -11.229378
       4A    -11.228633     5A    -11.221212     6A    -11.218362
       7A    -11.217965     8A     -1.217109     9A     -1.126291
      10A     -1.010438    11A     -0.984810    12A     -0.828321
      13A     -0.808160    14A     -0.702153    15A     -0.675530
      16A     -0.649644    17A     -0.603910    18A     -0.590552
      19A     -0.580476    20A     -0.517512    21A     -0.502087
      22A     -0.486815    23A     -0.436604    24A     -0.331320
      25A     -0.299374

  @DF-RHF Final Energy:  -285.72861367115257

   => Energetics <=

    Nuclear Repulsion Energy =            272.8316252880542265
    One-Electron Energy =                -926.5388703993351101
    Two-Electron Energy =                 367.9786314401281970
    DFT Exchange-Correlation Energy =       0.0000000000000000
    Empirical Dispersion Energy =           0.0000000000000000
    PCM Polarization Energy =               0.0000000000000000
    EFP Energy =                            0.0000000000000000
    Total Energy =                       -285.7286136711526296
    Molecular point group: c1
  Basis Set: 6-31G*
  Basis Set:

  -Total Gradient:
     Atom            X                  Y                   Z
    ------   -----------------  -----------------  -----------------
       1        0.000131386827     0.001468114802    -0.002434281243
       2       -0.000104568284    -0.000692874008     0.003126550284
       3       -0.000184434511    -0.002988570138    -0.000462485511
       4        0.000028796840    -0.000002328494    -0.000057759202
       5       -0.000040432743     0.002249847320    -0.000098320566
       6        0.000144827825    -0.000018327909    -0.000081942420
       7        0.000003331761    -0.000009189953     0.000001857393
       8        0.000146841033    -0.000048880994    -0.000064560998
       9        0.000001483791     0.000015032848     0.000022863952
      10       -0.000130189951    -0.000018788263    -0.000087349685
      11       -0.000008940682     0.000013259790     0.000008160985
      12       -0.000004474923     0.000035761588     0.000151642338
      13        0.000019096090    -0.000006556405    -0.000002758522
      14       -0.000002723068     0.000003499814    -0.000021616808

  **** Optimization is complete! (in 5 steps) ****
    Final optimized geometry and variables:
    Molecular point group: c1

    Geometry (in Angstrom), charge = 0, multiplicity = 1:

    H            2.743344738519     0.709676608876     0.486865132841
    N            2.342725787596    -0.080723557154     0.022680782060
    C            0.932645161959    -0.030356184777    -0.005252868211
    H            2.735920158026    -0.136335455153    -0.894517834089
    C            0.221464879812    -0.013322364555    -1.198499807439
    C            0.230213939867    -0.005229399758     1.196499296446
    H            0.751293299892    -0.022263909228    -2.135910701459
    C           -1.164685287365     0.008047618899    -1.189641630813
    H            0.775891074339    -0.033007964349     2.123088084453
    C           -1.151289362723     0.038969137888     1.198192559194
    H           -1.698081310107     0.012327220052    -2.123850279594
    C           -1.860540647878     0.040939926407     0.005630705640
    H           -1.677700219252     0.060099789246     2.136120217437
    H           -2.935176761316     0.066158501262     0.010577106920

  Mulliken Charges: (a.u.)
   Center  Symbol    Alpha    Beta     Spin     Total
       1     H     0.32146  0.32146  0.00000  0.35709
       2     N     3.94035  3.94035  0.00000 -0.88071
       3     C     2.87026  2.87026  0.00000  0.25948
       4     H     0.32385  0.32385  0.00000  0.35230
       5     C     3.12544  3.12544  0.00000 -0.25088
       6     C     3.11537  3.11537  0.00000 -0.23074
       7     H     0.40481  0.40481  0.00000  0.19037
       8     C     3.09260  3.09260  0.00000 -0.18519
       9     H     0.39857  0.39857  0.00000  0.20286
      10     C     3.09330  3.09330  0.00000 -0.18661
      11     H     0.40048  0.40048  0.00000  0.19903
      12     C     3.11134  3.11134  0.00000 -0.22268
      13     H     0.40028  0.40028  0.00000  0.19943
      14     H     0.40188  0.40188  0.00000  0.19624

   Total alpha = 25.00000, Total beta = 25.00000, Total charge = -0.00000
