  ==> Input File <==

--------------------------------------------------------------------------
set {
	reference rhf
	basis 6-31G*
}

set_num_threads( 1 )
memory 2 gb

molecule MOL {
0 1

O	 -2.821601	 1.309235	 -0.001213
C	 -2.668563	 0.129746	 -0.000350
C	 -3.801572	 -0.864014	 -0.000442
O	 -1.481751	 -0.454642	 0.000584
H	 -4.417280	 -0.689587	 -0.874708
H	 -3.443784	 -1.883046	 -0.000565
H	 -4.417179	 -0.689832	 0.873954
C	 -0.334255	 0.388708	 0.000906
C	 0.891947	 -0.504646	 0.000751
H	 -0.365390	 1.025305	 -0.873475
H	 -0.365484	 1.024911	 0.875569
C	 2.191998	 0.301789	 0.000897
H	 0.855148	 -1.151283	 -0.871571
H	 0.855132	 -1.151660	 0.872805
C	 2.610516	 0.757851	 -1.398094
H	 2.079069	 1.173869	 0.642620
H	 2.990865	 -0.296017	 0.436239
C	 3.908303	 1.564458	 -1.397730
H	 1.813481	 1.355675	 -1.834463
H	 2.726063	 -0.112532	 -2.040085
H	 3.813254	 2.460194	 -0.790575
H	 4.178564	 1.873391	 -2.402595
H	 4.732744	 0.980865	 -0.998074

	symmetry c1
}
set optking {
	frozen_dihedral = ("
		13 9 8 10,
		2 4 8 10,
		19 15 12 16,
		1 2 4 8
	")
}

ee = energy('scf')
oeprop('DIPOLE', 'QUADRUPOLE', 'MULLIKEN_CHARGES')
f=open( 'psi4out.xyz', 'w' )
f.write( "23  " )
f.write( str(ee) + "\n" )
f.write( MOL.save_string_xyz() )
f.close()
--------------------------------------------------------------------------

    Molecular point group: c1

    Geometry (in Angstrom), charge = 0, multiplicity = 1:

       Center              X                  Y                   Z               Mass
    ------------   -----------------  -----------------  -----------------  -----------------
           O         -2.636129662178     1.010180728810     0.310689994103    15.994914619560
           C         -2.483091662178    -0.169308271190     0.311552994103    12.000000000000
           C         -3.616100662178    -1.163068271190     0.311460994103    12.000000000000
           O         -1.296279662178    -0.753696271190     0.312486994103    15.994914619560
           H         -4.231808662178    -0.988641271190    -0.562805005897     1.007825032070
           H         -3.258312662178    -2.182100271190     0.311337994103     1.007825032070
           H         -4.231707662178    -0.988886271190     1.185856994103     1.007825032070
           C         -0.148783662178     0.089653728810     0.312808994103    12.000000000000
           C          1.077418337822    -0.803700271190     0.312653994103    12.000000000000
           H         -0.179918662178     0.726250728810    -0.561572005897     1.007825032070
           H         -0.180012662178     0.725856728810     1.187471994103     1.007825032070
           C          2.377469337822     0.002734728810     0.312799994103    12.000000000000
           H          1.040619337822    -1.450337271190    -0.559668005897     1.007825032070
           H          1.040603337822    -1.450714271190     1.184707994103     1.007825032070
           C          2.795987337822     0.458796728810    -1.086191005897    12.000000000000
           H          2.264540337822     0.874814728810     0.954522994103     1.007825032070
           H          3.176336337822    -0.595071271190     0.748141994103     1.007825032070
           C          4.093774337822     1.265403728810    -1.085827005897    12.000000000000
           H          1.998952337822     1.056620728810    -1.522560005897     1.007825032070
           H          2.911534337822    -0.411586271190    -1.728182005897     1.007825032070
           H          3.998725337822     2.161139728810    -0.478672005897     1.007825032070
           H          4.364035337822     1.574336728810    -2.090692005897     1.007825032070
           H          4.918215337822     0.681810728810    -0.686171005897     1.007825032070

  Charge       = 0
  Multiplicity = 1
  Basis Set: 6-31G*
  Basis Set:

    Orbital Energies (a.u.)
    -----------------------

    Doubly Occupied:

       1A    -20.603012     2A    -20.540649     3A    -11.374159
       4A    -11.281429     5A    -11.232412     6A    -11.223801
       7A    -11.223197     8A    -11.221322     9A    -11.212671
      10A     -1.468019    11A     -1.360818    12A     -1.095562
      13A     -1.040633    14A     -1.002831    15A     -0.930935
      16A     -0.846902    17A     -0.795398    18A     -0.779613
      19A     -0.688260    20A     -0.684744    21A     -0.672993
      22A     -0.633694    23A     -0.616289    24A     -0.586553
      25A     -0.578104    26A     -0.573336    27A     -0.561554
      28A     -0.530257    29A     -0.527102    30A     -0.506687
      31A     -0.495539    32A     -0.478009    33A     -0.470006
      34A     -0.461537    35A     -0.448615    36A     -0.435776

  @DF-RHF Final Energy:  -422.97698326373956

   => Energetics <=

    Nuclear Repulsion Energy =            455.4237458055325192
    One-Electron Energy =               -1478.4366248204296426
    Two-Electron Energy =                 600.0358957511588187
    DFT Exchange-Correlation Energy =       0.0000000000000000
    Empirical Dispersion Energy =           0.0000000000000000
    PCM Polarization Energy =               0.0000000000000000
    EFP Energy =                            0.0000000000000000
    Total Energy =                       -422.9769832637383615

  Mulliken Charges: (a.u.)
   Center  Symbol    Alpha    Beta     Spin     Total
       1     O     4.28399  4.28399  0.00000 -0.56798
       2     C     2.61543  2.61543  0.00000  0.76913
       3     C     3.28779  3.28779  0.00000 -0.57559
       4     O     4.31244  4.31244  0.00000 -0.62487
       5     H     0.39751  0.39751  0.00000  0.20498
       6     H     0.39983  0.39983  0.00000  0.20034
       7     H     0.39750  0.39750  0.00000  0.20500
       8     C     2.99748  2.99748  0.00000  0.00505
       9     C     3.16642  3.16642  0.00000 -0.33285
      10     H     0.40993  0.40993  0.00000  0.18015
      11     H     0.41037  0.41037  0.00000  0.17926
      12     C     3.16330  3.16330  0.00000 -0.32661
      13     H     0.41366  0.41366  0.00000  0.17268
      14     H     0.41195  0.41195  0.00000  0.17609
      15     C     3.15372  3.15372  0.00000 -0.30745
      16     H     0.42064  0.42064  0.00000  0.15871
      17     H     0.41656  0.41656  0.00000  0.16688
      18     C     3.23958  3.23958  0.00000 -0.47917
      19     H     0.42149  0.42149  0.00000  0.15702
      20     H     0.42087  0.42087  0.00000  0.15826
      21     H     0.42056  0.42056  0.00000  0.15887
      22     H     0.41785  0.41785  0.00000  0.16430
      23     H     0.42111  0.42111  0.00000  0.15778

   Total alpha = 36.00000, Total beta = 36.00000, Total charge =  0.00000
