  ==> Input File <==

--------------------------------------------------------------------------
set {
	reference rhf
	basis 6-31G*
}

set_num_threads( 1 )
memory 2 gb

molecule MOL {
0 1

O	 -3.478473	 -0.023412	 0.857090
C	 -2.668563	 0.129746	 -0.000350
C	 -2.878365	 1.008965	 -1.206262
O	 -1.481751	 -0.454642	 0.000584
H	 -3.084050	 2.018028	 -0.869591
H	 -2.018772	 1.007984	 -1.860126
H	 -3.751041	 0.658816	 -1.744511
C	 -0.334255	 0.388708	 0.000906
C	 0.891947	 -0.504646	 0.000751
H	 -0.365390	 1.025305	 -0.873475
H	 -0.365484	 1.024911	 0.875569
C	 2.191998	 0.301789	 0.000897
H	 0.855148	 -1.151283	 -0.871571
H	 0.855132	 -1.151660	 0.872805
C	 3.441114	 -0.581407	 0.000108
H	 2.215074	 0.954890	 -0.869742
H	 2.215465	 0.953923	 0.872248
C	 4.739576	 0.224112	 -0.001102
H	 3.419457	 -1.233487	 -0.870178
H	 3.420834	 -1.233096	 0.870717
H	 4.804918	 0.861552	 -0.878265
H	 5.606527	 -0.429058	 -0.001824
H	 4.806469	 0.861674	 0.875853

	symmetry c1
}
set optking {
	frozen_dihedral = ("
		13 9 8 10,
		2 4 8 10,
		16 12 9 13,
		19 15 12 16
	")
}

ee = energy('scf')
oeprop('DIPOLE', 'QUADRUPOLE', 'MULLIKEN_CHARGES')
f=open( 'psi4out.xyz', 'w' )
f.write( "23  " )
f.write( str(ee) + "\n" )
f.write( MOL.save_string_xyz() )
f.close()
--------------------------------------------------------------------------

    Molecular point group: c1

    Geometry (in Angstrom), charge = 0, multiplicity = 1:

       Center              X                  Y                   Z               Mass
    ------------   -----------------  -----------------  -----------------  -----------------
           O         -3.509395584170    -0.086147800466     0.897438285032    15.994914619560
           C         -2.699485584170     0.067010199534     0.039998285032    12.000000000000
           C         -2.909287584170     0.946229199534    -1.165913714968    12.000000000000
           O         -1.512673584170    -0.517377800466     0.040932285032    15.994914619560
           H         -3.114972584170     1.955292199534    -0.829242714968     1.007825032070
           H         -2.049694584170     0.945248199534    -1.819777714968     1.007825032070
           H         -3.781963584170     0.596080199534    -1.704162714968     1.007825032070
           C         -0.365177584170     0.325972199534     0.041254285032    12.000000000000
           C          0.861024415830    -0.567381800466     0.041099285032    12.000000000000
           H         -0.396312584170     0.962569199534    -0.833126714968     1.007825032070
           H         -0.396406584170     0.962175199534     0.915917285032     1.007825032070
           C          2.161075415830     0.239053199534     0.041245285032    12.000000000000
           H          0.824225415830    -1.214018800466    -0.831222714968     1.007825032070
           H          0.824209415830    -1.214395800466     0.913153285032     1.007825032070
           C          3.410191415830    -0.644142800466     0.040456285032    12.000000000000
           H          2.184151415830     0.892154199534    -0.829393714968     1.007825032070
           H          2.184542415830     0.891187199534     0.912596285032     1.007825032070
           C          4.708653415830     0.161376199534     0.039246285032    12.000000000000
           H          3.388534415830    -1.296222800466    -0.829829714968     1.007825032070
           H          3.389911415830    -1.295831800466     0.911065285032     1.007825032070
           H          4.773995415830     0.798816199534    -0.837916714968     1.007825032070
           H          5.575604415830    -0.491793800466     0.038524285032     1.007825032070
           H          4.775546415830     0.798938199534     0.916201285032     1.007825032070

  Charge       = 0
  Multiplicity = 1
  Basis Set: 6-31G*
  Basis Set:

    Orbital Energies (a.u.)
    -----------------------

    Doubly Occupied:

       1A    -20.590448     2A    -20.547739     3A    -11.375460
       4A    -11.297772     5A    -11.234498     6A    -11.230964
       7A    -11.229707     8A    -11.225754     9A    -11.216460
      10A     -1.462760    11A     -1.366459    12A     -1.098682
      13A     -1.038006    14A     -1.011954    15A     -0.942587
      16A     -0.848544    17A     -0.808878    18A     -0.778981
      19A     -0.701629    20A     -0.690370    21A     -0.658680
      22A     -0.651496    23A     -0.621659    24A     -0.594398
      25A     -0.581334    26A     -0.579415    27A     -0.563155
      28A     -0.545770    29A     -0.521512    30A     -0.503960
      31A     -0.487379    32A     -0.481461    33A     -0.476018
      34A     -0.474711    35A     -0.455168    36A     -0.432061

  @DF-RHF Final Energy:  -422.95608166163163

   => Energetics <=

    Nuclear Repulsion Energy =            451.1092368986801375
    One-Electron Energy =               -1469.4789646073993481
    Two-Electron Energy =                 595.4136460470875818
    DFT Exchange-Correlation Energy =       0.0000000000000000
    Empirical Dispersion Energy =           0.0000000000000000
    PCM Polarization Energy =               0.0000000000000000
    EFP Energy =                            0.0000000000000000
    Total Energy =                       -422.9560816616316288

  Mulliken Charges: (a.u.)
   Center  Symbol    Alpha    Beta     Spin     Total
       1     O     4.25821  4.25821  0.00000 -0.51643
       2     C     2.62092  2.62092  0.00000  0.75815
       3     C     3.30109  3.30109  0.00000 -0.60217
       4     O     4.31199  4.31199  0.00000 -0.62399
       5     H     0.39785  0.39785  0.00000  0.20430
       6     H     0.40740  0.40740  0.00000  0.18521
       7     H     0.39256  0.39256  0.00000  0.21487
       8     C     2.99923  2.99923  0.00000  0.00153
       9     C     3.16252  3.16252  0.00000 -0.32504
      10     H     0.42129  0.42129  0.00000  0.15743
      11     H     0.41263  0.41263  0.00000  0.17475
      12     C     3.16149  3.16149  0.00000 -0.32299
      13     H     0.41175  0.41175  0.00000  0.17651
      14     H     0.40695  0.40695  0.00000  0.18610
      15     C     3.15194  3.15194  0.00000 -0.30388
      16     H     0.42247  0.42247  0.00000  0.15505
      17     H     0.42059  0.42059  0.00000  0.15882
      18     C     3.24006  3.24006  0.00000 -0.48012
      19     H     0.42069  0.42069  0.00000  0.15861
      20     H     0.41955  0.41955  0.00000  0.16089
      21     H     0.42129  0.42129  0.00000  0.15741
      22     H     0.41691  0.41691  0.00000  0.16618
      23     H     0.42060  0.42060  0.00000  0.15880

   Total alpha = 36.00000, Total beta = 36.00000, Total charge =  0.00000
