                              Psi4 1.0.54 Driver

  ==> Input File <==

--------------------------------------------------------------------------
set {
	reference rhf
	basis cc-pvtz
}

set_num_threads( 4 )
memory 2 gb

molecule MOL {
0 1

O	 1.571981	 1.772616	 -0.495604
C	 0.904992	 1.505737	 -1.436316
C	 -0.398467	 0.749911	 -1.399405
O	 1.227885	 1.846512	 -2.673260
C	 -0.824290	 0.329213	 -0.000115
H	 -1.148332	 1.380744	 -1.865455
H	 -0.289263	 -0.109939	 -2.052225
C	 -2.146151	 -0.432825	 -0.000068
H	 -0.906367	 1.208971	 0.628028
H	 -0.046165	 -0.283243	 0.441144
C	 -3.366283	 0.483552	 0.000557
H	 -2.189286	 -1.084450	 -0.869996
H	 -2.188867	 -1.085083	 0.869399
C	 -4.687436	 -0.278003	 0.000108
H	 -3.325150	 1.134819	 -0.867957
H	 -3.325087	 1.133730	 0.869885
H	 -4.773783	 -0.912098	 -0.876078
H	 -5.531922	 0.401392	 0.000363
H	 -4.773901	 -0.912898	 0.875703
C	 2.432078	 2.563472	 -2.855500
H	 2.402743	 3.500574	 -2.319597
H	 2.514015	 2.743146	 -3.915146
H	 3.276032	 1.985665	 -2.508952

	symmetry c1
}
set optking {
	frozen_dihedral = ("
		9 5 8 12
	")
}

ee,wfn = optimize('scf', return_wfn=True)
oeprop( wfn, 'DIPOLE', 'QUADRUPOLE', 'MULLIKEN_CHARGES')
f=open( 'psi4out.xyz', 'w' )
f.write( "23  " )
f.write( str(ee) + "\n" )
f.write( MOL.save_string_xyz() )
f.close()
--------------------------------------------------------------------------

    Molecular point group: c1
  Charge       = 0
  Multiplicity = 1
  Basis Set: CC-PVTZ
  Basis Set:
  @DF-RHF Final Energy:  -423.12826972523675
    Total Energy =                       -423.1282697252363505
    Molecular point group: c1
  Basis Set: CC-PVTZ
  Basis Set:
  Basis Set: CC-PVTZ
  Basis Set:
  @DF-RHF Final Energy:  -423.12842922695381
    Total Energy =                       -423.1284292269541538
  Basis Set: CC-PVTZ
  Basis Set:
  Basis Set: CC-PVTZ
  Basis Set:
  @DF-RHF Final Energy:  -423.12813765394714
    Total Energy =                       -423.1281376539465100
  Basis Set: CC-PVTZ
  Basis Set:
  Basis Set: CC-PVTZ
  Basis Set:
  @DF-RHF Final Energy:  -423.12846722559340
    Total Energy =                       -423.1284672255924306
  Basis Set: CC-PVTZ
  Basis Set:
  Basis Set: CC-PVTZ
  Basis Set:
  @DF-RHF Final Energy:  -423.12847107100544
    Total Energy =                       -423.1284710710056061
  Basis Set: CC-PVTZ
  Basis Set:
  Charge       = 0
  Multiplicity = 1
  Basis Set: CC-PVTZ
  Basis Set:

    Orbital Energies (a.u.)
    -----------------------

    Doubly Occupied:

       1A    -20.596212     2A    -20.534072     3A    -11.364423
       4A    -11.278420     5A    -11.233522     6A    -11.217368
       7A    -11.216407     8A    -11.215712     9A    -11.208791
      10A     -1.472100    11A     -1.365677    12A     -1.094514
      13A     -1.043535    14A     -0.987842    15A     -0.932992
      16A     -0.848745    17A     -0.793938    18A     -0.767730
      19A     -0.703454    20A     -0.685507    21A     -0.676362
      22A     -0.632407    23A     -0.628241    24A     -0.600337
      25A     -0.576029    26A     -0.559314    27A     -0.556313
      28A     -0.529474    29A     -0.521984    30A     -0.504515
      31A     -0.493633    32A     -0.470046    33A     -0.466419
      34A     -0.461673    35A     -0.453543    36A     -0.439854

  @DF-RHF Final Energy:  -423.12847113003130

   => Energetics <=

    Nuclear Repulsion Energy =            457.3939437828947234
    One-Electron Energy =               -1482.7826272920731299
    Two-Electron Energy =                 602.2602123791477879
    DFT Exchange-Correlation Energy =       0.0000000000000000
    Empirical Dispersion Energy =           0.0000000000000000
    PCM Polarization Energy =               0.0000000000000000
    EFP Energy =                            0.0000000000000000
    Total Energy =                       -423.1284711300306753
    Molecular point group: c1
  Basis Set: CC-PVTZ
  Basis Set:

  -Total Gradient:
     Atom            X                  Y                   Z
    ------   -----------------  -----------------  -----------------
       1        0.000013493677     0.000012268748    -0.000015789588
       2       -0.000016485348    -0.000006624016    -0.000006352667
       3       -0.000006017222    -0.000005682202     0.000008385605
       4        0.000009325486     0.000002801168     0.000024484963
       5        0.000717940980    -0.001227716683     0.002125439700
       6        0.000000547964    -0.000001304104    -0.000003421106
       7       -0.000004736694    -0.000001067099    -0.000001560694
       8        0.001095518687    -0.001966104519     0.001157460029
       9       -0.000780097464     0.001338362711    -0.001954283328
      10       -0.000002464834     0.000000557583    -0.000006713665
      11        0.000006276443    -0.000010768613    -0.000036778630
      12       -0.001032522580     0.001848701770    -0.001301482228
      13       -0.000000253673     0.000001972879    -0.000004011914
      14       -0.000002095609     0.000004177749     0.000021286787
      15       -0.000000305842     0.000007031274    -0.000004164112
      16        0.000001565034     0.000003855138    -0.000002086527
      17        0.000003233098     0.000006546380    -0.000000403857
      18       -0.000005124777     0.000000172454     0.000006714610
      19       -0.000005247499    -0.000010514085    -0.000000689477
      20        0.000004975579    -0.000000450912    -0.000006548791
      21       -0.000001616968    -0.000000042647     0.000001044386
      22        0.000004262150     0.000003230628    -0.000000647614
      23       -0.000000170579     0.000000596397     0.000000118124

  **** Optimization is complete! (in 6 steps) ****
    Final optimized geometry and variables:
    Molecular point group: c1

    Geometry (in Angstrom), charge = 0, multiplicity = 1:

    O            2.131412107193     0.806559886553     0.493223709957
    C            1.462965661388     0.534556821074    -0.445026186258
    C            0.165058693360    -0.230741768843    -0.404010122525
    O            1.779855238638     0.876846864078    -1.683282088806
    C           -0.247288230091    -0.660597239203     0.999483129363
    H           -0.587348353659     0.396113577544    -0.869403580565
    H            0.279742508938    -1.089520487158    -1.057130258303
    C           -1.588915662849    -1.401303276548     1.023565182406
    H           -0.303158630713     0.221500069463     1.626598850016
    H            0.532570014593    -1.286293601182     1.414300077530
    C           -2.806606869509    -0.476999537301     1.036640484837
    H           -1.661010429123    -2.054579471747     0.157171408227
    H           -1.629336565915    -2.040538376817     1.899439999676
    C           -4.129451158898    -1.235761316491     1.029892229329
    H           -2.774913967986     0.189665072839     0.179636056204
    H           -2.759779222533     0.157670919025     1.916896357438
    H           -4.224500013973    -1.850054044215     0.140616618307
    H           -4.972839942001    -0.555320759499     1.052974601776
    H           -4.208851099757    -1.890150040222     1.891628417209
    C            2.978973916343     1.601067220390    -1.869608758187
    H            2.945598360330     2.538307670754    -1.334152695994
    H            3.056648146803     1.780722473920    -2.929606764740
    H            3.827608785909     1.028729630011    -1.525378610063

  Mulliken Charges: (a.u.)
   Center  Symbol    Alpha    Beta     Spin     Total
       1     O     4.19703  4.19703  0.00000 -0.39405
       2     C     2.80558  2.80558  0.00000  0.38884
       3     C     3.09891  3.09891  0.00000 -0.19782
       4     O     4.14728  4.14728  0.00000 -0.29455
       5     C     3.09215  3.09215  0.00000 -0.18431
       6     H     0.44046  0.44046  0.00000  0.11907
       7     H     0.43999  0.43999  0.00000  0.12002
       8     C     3.09957  3.09957  0.00000 -0.19914
       9     H     0.44684  0.44684  0.00000  0.10632
      10     H     0.44011  0.44011  0.00000  0.11977
      11     C     3.08258  3.08258  0.00000 -0.16516
      12     H     0.45701  0.45701  0.00000  0.08598
      13     H     0.44459  0.44459  0.00000  0.11082
      14     C     3.15028  3.15028  0.00000 -0.30057
      15     H     0.45611  0.45611  0.00000  0.08778
      16     H     0.45260  0.45260  0.00000  0.09479
      17     H     0.45508  0.45508  0.00000  0.08984
      18     H     0.44790  0.44790  0.00000  0.10420
      19     H     0.45415  0.45415  0.00000  0.09170
      20     C     3.03790  3.03790  0.00000 -0.07581
      21     H     0.45429  0.45429  0.00000  0.09142
      22     H     0.44529  0.44529  0.00000  0.10942
      23     H     0.45429  0.45429  0.00000  0.09143

   Total alpha = 36.00000, Total beta = 36.00000, Total charge = -0.00000

*** Psi4 exiting successfully. Buy a developer a beer!
