                              Psi4 1.0.54 Driver

  ==> Input File <==

--------------------------------------------------------------------------
set {
	reference rhf
	basis cc-pvtz
}

set_num_threads( 4 )
memory 2 gb

molecule MOL {
0 1

O	 1.216069	 1.304886	 0.000821
C	 1.121787	 0.124983	 0.000110
C	 -0.170912	 -0.649867	 -0.000147
O	 2.167739	 -0.685178	 -0.000678
C	 -1.413045	 0.229353	 0.001137
H	 -0.152877	 -1.303435	 -0.866175
H	 -0.152278	 -1.305116	 0.864586
C	 -2.541565	 -0.357721	 -0.841535
H	 -1.154154	 1.215522	 -0.367627
H	 -1.751447	 0.369747	 1.021587
C	 -3.790692	 0.516645	 -0.849063
H	 -2.195470	 -0.499198	 -1.862046
H	 -2.796461	 -1.345802	 -0.467420
H	 -3.575842	 1.501195	 -1.250419
H	 -4.574211	 0.075823	 -1.454414
H	 -4.181277	 0.648355	 0.154270
C	 3.449556	 -0.089977	 -0.000570
H	 3.585694	 0.522473	 -0.879546
H	 4.155805	 -0.904274	 -0.001389
H	 3.586173	 0.521118	 0.879272

	symmetry c1
}
set optking {
	frozen_dihedral = ("
		9 5 3 6
	")
}

ee,wfn = optimize('scf', return_wfn=True)
oeprop( wfn, 'DIPOLE', 'QUADRUPOLE', 'MULLIKEN_CHARGES')
f=open( 'psi4out.xyz', 'w' )
f.write( "20  " )
f.write( str(ee) + "\n" )
f.write( MOL.save_string_xyz() )
f.close()
--------------------------------------------------------------------------

    Molecular point group: c1
  Charge       = 0
  Multiplicity = 1
  Basis Set: CC-PVTZ
  Basis Set:
  @DF-RHF Final Energy:  -384.07992487006089
    Total Energy =                       -384.0799248700608359
    Molecular point group: c1
  Basis Set: CC-PVTZ
  Basis Set:
  Basis Set: CC-PVTZ
  Basis Set:
  @DF-RHF Final Energy:  -384.08017578393532
    Total Energy =                       -384.0801757839356014
  Basis Set: CC-PVTZ
  Basis Set:
  Basis Set: CC-PVTZ
  Basis Set:
  @DF-RHF Final Energy:  -384.08019284351536
    Total Energy =                       -384.0801928435147374
  Basis Set: CC-PVTZ
  Basis Set:
  Basis Set: CC-PVTZ
  Basis Set:
  @DF-RHF Final Energy:  -384.08018541844194
    Total Energy =                       -384.0801854184417152
  Basis Set: CC-PVTZ
  Basis Set:
  Basis Set: CC-PVTZ
  Basis Set:
  @DF-RHF Final Energy:  -384.08026500204710
    Total Energy =                       -384.0802650020473266
  Basis Set: CC-PVTZ
  Basis Set:
  Charge       = 0
  Multiplicity = 1
  Basis Set: CC-PVTZ
  Basis Set:

    Orbital Energies (a.u.)
    -----------------------

    Doubly Occupied:

       1A    -20.596660     2A    -20.534931     3A    -11.365608
       4A    -11.278756     5A    -11.233774     6A    -11.218355
       7A    -11.216167     8A    -11.208388     9A     -1.472874
      10A     -1.366421    11A     -1.088288    12A     -1.025591
      13A     -0.969522    14A     -0.886810    15A     -0.805423
      16A     -0.769691    17A     -0.702279    18A     -0.685144
      19A     -0.676547    20A     -0.641448    21A     -0.600757
      22A     -0.592964    23A     -0.580417    24A     -0.545561
      25A     -0.532519    26A     -0.523283    27A     -0.503147
      28A     -0.479146    29A     -0.472840    30A     -0.467042
      31A     -0.460252    32A     -0.442123

  @DF-RHF Final Energy:  -384.08026508335809

   => Energetics <=

    Nuclear Repulsion Energy =            381.8278158903473241
    One-Electron Energy =               -1279.9306879318994561
    Two-Electron Energy =                 514.0226069581935917
    DFT Exchange-Correlation Energy =       0.0000000000000000
    Empirical Dispersion Energy =           0.0000000000000000
    PCM Polarization Energy =               0.0000000000000000
    EFP Energy =                            0.0000000000000000
    Total Energy =                       -384.0802650833585403
    Molecular point group: c1
  Basis Set: CC-PVTZ
  Basis Set:

  -Total Gradient:
     Atom            X                  Y                   Z
    ------   -----------------  -----------------  -----------------
       1       -0.000025239001     0.000003107290    -0.000005155312
       2        0.000018807328     0.000023816674     0.000004901792
       3        0.002296086578     0.003288253330    -0.001568581881
       4        0.000006644208    -0.000036449487    -0.000007109896
       5       -0.001318025042    -0.001938463747    -0.003468676931
       6       -0.001682256951    -0.002424183950     0.001845372547
       7        0.000004481727    -0.000000591310     0.000006832983
       8        0.000000497916    -0.000004912917    -0.000002129114
       9        0.000728927190     0.001079799151     0.003190926762
      10       -0.000005010814    -0.000003848488    -0.000008142293
      11       -0.000003019921     0.000000435600     0.000004445299
      12        0.000004597835     0.000008640209     0.000002815670
      13        0.000000558365    -0.000008270930    -0.000001511342
      14        0.000000489978     0.000001869739    -0.000003846896
      15       -0.000003766092    -0.000000340657     0.000001047555
      16       -0.000001878117     0.000001378650     0.000004259842
      17       -0.000005914603     0.000017879443     0.000011240753
      18       -0.000003755885     0.000001018002    -0.000006733130
      19       -0.000012686695    -0.000008647270    -0.000001301338
      20        0.000000462001    -0.000000489330     0.000001344931

  **** Optimization is complete! (in 6 steps) ****
    Final optimized geometry and variables:
    Molecular point group: c1

    Geometry (in Angstrom), charge = 0, multiplicity = 1:

    O            1.211625985929     1.261846796330     0.188084903246
    C            1.098685397937     0.083678222328     0.192581894286
    C           -0.201420063358    -0.678987775456     0.170438919972
    O            2.132399675195    -0.741467426478     0.220191883220
    C           -1.459033569003     0.191771705906     0.166082108090
    H           -0.177145710420    -1.346334427831    -0.684532236763
    H           -0.187084007892    -1.340509727024     1.030009321944
    C           -2.610477098818    -0.426888280732    -0.620168546874
    H           -1.215584082214     1.173909952153    -0.217076040933
    H           -1.776408338065     0.356855156503     1.191229357100
    C           -3.880512518023     0.414807561389    -0.571256353961
    H           -2.305559813131    -0.560205652214    -1.654601927293
    H           -2.821991003639    -1.420990560916    -0.234438807200
    H           -3.707232097227     1.405596243939    -0.977194716808
    H           -4.677389085515    -0.044173073698    -1.144852077312
    H           -4.232204861434     0.533406400173     0.448093009498
    C            3.422573554573    -0.165165995573     0.243626895182
    H            3.586793792164     0.438419765374    -0.636683655263
    H            4.116318243362    -0.989893172113     0.263940200638
    H            3.549355533291     0.450423149589     1.121789319649

  Mulliken Charges: (a.u.)
   Center  Symbol    Alpha    Beta     Spin     Total
       1     O     4.19588  4.19588  0.00000 -0.39177
       2     C     2.80158  2.80158  0.00000  0.39684
       3     C     3.10639  3.10639  0.00000 -0.21278
       4     O     4.14715  4.14715  0.00000 -0.29431
       5     C     3.08935  3.08935  0.00000 -0.17870
       6     H     0.43967  0.43967  0.00000  0.12067
       7     H     0.43736  0.43736  0.00000  0.12528
       8     C     3.08648  3.08648  0.00000 -0.17297
       9     H     0.43684  0.43684  0.00000  0.12631
      10     H     0.45364  0.45364  0.00000  0.09273
      11     C     3.14951  3.14951  0.00000 -0.29901
      12     H     0.45433  0.45433  0.00000  0.09133
      13     H     0.45468  0.45468  0.00000  0.09065
      14     H     0.45289  0.45289  0.00000  0.09423
      15     H     0.44845  0.44845  0.00000  0.10311
      16     H     0.45470  0.45470  0.00000  0.09060
      17     C     3.03689  3.03689  0.00000 -0.07378
      18     H     0.45439  0.45439  0.00000  0.09121
      19     H     0.44546  0.44546  0.00000  0.10909
      20     H     0.45436  0.45436  0.00000  0.09128

   Total alpha = 32.00000, Total beta = 32.00000, Total charge =  0.00000

*** Psi4 exiting successfully. Buy a developer a beer!
