  ==> Input File <==

--------------------------------------------------------------------------
set {
	reference rhf
	basis cc-pvtz
}

set_num_threads( 4 )
memory 2 gb

molecule MOL {
0 1

H	 -3.941973	 0.934228	 -0.390224
C	 -3.240162	 0.342701	 0.161016
C	 -2.105997	 -0.000418	 -0.398703
H	 -3.485368	 0.047206	 1.162193
O	 -1.189946	 -0.765863	 0.237511
H	 -1.846458	 0.297311	 -1.398265
C	 0.026572	 -0.995256	 -0.379403
C	 1.057223	 0.049888	 -0.004615
H	 -0.054361	 -1.010670	 -1.459674
H	 0.397526	 -1.952058	 -0.044198
F	 1.027762	 0.247914	 1.298074
F	 2.276967	 -0.326697	 -0.323858
F	 0.829316	 1.199601	 -0.591705

	symmetry c1
}
set optking {
	frozen_dihedral = ("
		11 8 7 9
	")
}

ee = optimize('scf')
oeprop('DIPOLE', 'QUADRUPOLE', 'MULLIKEN_CHARGES')
f=open( 'psi4out.xyz', 'w' )
f.write( "13  " )
f.write( str(ee) + "\n" )
f.write( MOL.save_string_xyz() )
f.close()
--------------------------------------------------------------------------

    Molecular point group: c1
  Charge       = 0
  Multiplicity = 1
  Basis Set: CC-PVTZ
  Basis Set:
  @DF-RHF Final Energy:  -527.74070199176867
    Total Energy =                       -527.7407019917690150
    Molecular point group: c1
  Basis Set: CC-PVTZ
  Basis Set:
  Basis Set: CC-PVTZ
  Basis Set:
  @DF-RHF Final Energy:  -527.74127103332467
    Total Energy =                       -527.7412710333247787
  Basis Set: CC-PVTZ
  Basis Set:
  Basis Set: CC-PVTZ
  Basis Set:
  @DF-RHF Final Energy:  -527.74138143477114
    Total Energy =                       -527.7413814347714833
  Basis Set: CC-PVTZ
  Basis Set:
  Basis Set: CC-PVTZ
  Basis Set:
  @DF-RHF Final Energy:  -527.74139728136527
    Total Energy =                       -527.7413972813653800
  Basis Set: CC-PVTZ
  Basis Set:
  Basis Set: CC-PVTZ
  Basis Set:
  @DF-RHF Final Energy:  -527.74140035756500
    Total Energy =                       -527.7414003575646575
  Basis Set: CC-PVTZ
  Basis Set:
  Basis Set: CC-PVTZ
  Basis Set:
  @DF-RHF Final Energy:  -527.74140262585377
    Total Energy =                       -527.7414026258534250
  Basis Set: CC-PVTZ
  Basis Set:
  Basis Set: CC-PVTZ
  Basis Set:
  @DF-RHF Final Energy:  -527.74140403614717
    Total Energy =                       -527.7414040361472871
  Basis Set: CC-PVTZ
  Basis Set:
  Charge       = 0
  Multiplicity = 1
  Basis Set: CC-PVTZ
  Basis Set:

    Orbital Energies (a.u.)
    -----------------------

    Doubly Occupied:

       1A    -26.342550     2A    -26.339268     3A    -26.338103
       4A    -20.603465     5A    -11.497934     6A    -11.320209
       7A    -11.298297     8A    -11.213959     9A     -1.750410
      10A     -1.647585    11A     -1.644437    12A     -1.444096
      13A     -1.087399    14A     -1.020458    15A     -0.932137
      16A     -0.843374    17A     -0.839522    18A     -0.827103
      19A     -0.798858    20A     -0.727678    21A     -0.718803
      22A     -0.703601    23A     -0.681453    24A     -0.668768
      25A     -0.661370    26A     -0.650687    27A     -0.640736
      28A     -0.587995    29A     -0.566412    30A     -0.528063
      31A     -0.518102    32A     -0.356789

  @DF-RHF Final Energy:  -527.74140460760032

   => Energetics <=

    Nuclear Repulsion Energy =            414.0196672738711072
    One-Electron Energy =               -1551.9229044868236542
    Two-Electron Energy =                 610.1618326053519468
    DFT Exchange-Correlation Energy =       0.0000000000000000
    Empirical Dispersion Energy =           0.0000000000000000
    PCM Polarization Energy =               0.0000000000000000
    EFP Energy =                            0.0000000000000000
    Total Energy =                       -527.7414046076005434
    Molecular point group: c1
  Basis Set: CC-PVTZ
  Basis Set:

  -Total Gradient:
     Atom            X                  Y                   Z
    ------   -----------------  -----------------  -----------------
       1        0.000010931868     0.000022328453     0.000008491353
       2       -0.000000241448    -0.000012911597     0.000006096336
       3       -0.000008669958    -0.000046355866    -0.000071598887
       4       -0.000001278764     0.000000436941    -0.000002306367
       5        0.000038700124     0.000016085631     0.000029593184
       6        0.000010275497     0.000023712492     0.000019436548
       7        0.002088415598    -0.001845683312    -0.000283727670
       8        0.001928112052    -0.001946098802     0.000333500105
       9       -0.002205080464     0.001999660154     0.000171724241
      10       -0.000015952173    -0.000016457621     0.000003348026
      11       -0.001756770651     0.001772269928    -0.000251825584
      12       -0.000047819636     0.000012273389     0.000043553783
      13       -0.000040622041     0.000020740208    -0.000006285068

  **** Optimization is complete! (in 8 steps) ****
    Final optimized geometry and variables:
    Molecular point group: c1

    Geometry (in Angstrom), charge = 0, multiplicity = 1:

    H           -3.895173701078     0.965294500899    -0.396874634739
    C           -3.204728679980     0.355160112302     0.148471293089
    C           -2.083625719181    -0.015955752176    -0.419782485286
    H           -3.450948149635     0.062901805633     1.150350440826
    O           -1.185587411479    -0.810700444176     0.205925288312
    H           -1.822764292321     0.279089240558    -1.420000215594
    C            0.047403848797    -1.013177033556    -0.389710069839
    C            1.050526102838     0.054126591387     0.006914726339
    H           -0.028133956071    -1.007766176733    -1.470491853044
    H            0.425992348716    -1.966986222763    -0.056899876120
    F            1.059371742775     0.271141639606     1.298174553333
    F            2.260482714970    -0.313504012060    -0.359655645796
    F            0.790392240047     1.204868081211    -0.582351889349

  Mulliken Charges: (a.u.)
   Center  Symbol    Alpha    Beta     Spin     Total
       1     H     0.42515  0.42515  0.00000  0.14970
       2     C     3.19667  3.19667  0.00000 -0.39335
       3     C     2.96040  2.96040  0.00000  0.07920
       4     H     0.42456  0.42456  0.00000  0.15087
       5     O     4.14377  4.14377  0.00000 -0.28754
       6     H     0.43426  0.43426  0.00000  0.13148
       7     C     3.01919  3.01919  0.00000 -0.03838
       8     C     2.67650  2.67650  0.00000  0.64699
       9     H     0.45531  0.45531  0.00000  0.08939
      10     H     0.43460  0.43460  0.00000  0.13080
      11     F     4.60543  4.60543  0.00000 -0.21086
      12     F     4.61137  4.61137  0.00000 -0.22274
      13     F     4.61278  4.61278  0.00000 -0.22557

   Total alpha = 32.00000, Total beta = 32.00000, Total charge = -0.00000
