  ==> Input File <==

--------------------------------------------------------------------------
set {
	reference rhf
	basis cc-pvtz
}

set_num_threads( 4 )
memory 2 gb

molecule MOL {
0 1

H	 -2.644180	 -0.653737	 1.272255
C	 -2.092774	 -0.380414	 0.391915
O	 -0.808934	 -0.154049	 0.752536
F	 -2.163230	 -1.351640	 -0.507133
F	 -2.627232	 0.691260	 -0.169301
C	 0.085006	 0.250800	 -0.215074
C	 1.370439	 -0.548013	 -0.012993
Cl	 0.421658	 1.987697	 -0.091007
H	 -0.272219	 0.063284	 -1.212508
F	 2.200052	 -0.339334	 -1.003557
F	 1.079469	 -1.827160	 0.007856
F	 1.969827	 -0.246378	 1.105936

	symmetry c1
}
set optking {
	frozen_dihedral = ("
		10 7 6 9
	")
}

ee = optimize('scf')
oeprop('DIPOLE', 'QUADRUPOLE', 'MULLIKEN_CHARGES')
f=open( 'psi4out.xyz', 'w' )
f.write( "12  " )
f.write( str(ee) + "\n" )
f.write( MOL.save_string_xyz() )
f.close()
--------------------------------------------------------------------------

    Molecular point group: c1
  Charge       = 0
  Multiplicity = 1
  Basis Set: CC-PVTZ
  Basis Set:
  @DF-RHF Final Energy: -1146.62001752982678
    Total Energy =                      -1146.6200175298270096
    Molecular point group: c1
  Basis Set: CC-PVTZ
  Basis Set:
  Basis Set: CC-PVTZ
  Basis Set:
  @DF-RHF Final Energy: -1146.62008022941791
    Total Energy =                      -1146.6200802294183632
  Basis Set: CC-PVTZ
  Basis Set:
  Basis Set: CC-PVTZ
  Basis Set:
  @DF-RHF Final Energy: -1146.62012154575632
    Total Energy =                      -1146.6201215457556373
  Basis Set: CC-PVTZ
  Basis Set:
  Basis Set: CC-PVTZ
  Basis Set:
  @DF-RHF Final Energy: -1146.62012318491725
    Total Energy =                      -1146.6201231849172473
  Basis Set: CC-PVTZ
  Basis Set:
  Charge       = 0
  Multiplicity = 1
  Basis Set: CC-PVTZ
  Basis Set:

    Orbital Energies (a.u.)
    -----------------------

    Doubly Occupied:

       1A   -104.855850     2A    -26.355011     3A    -26.354075
       4A    -26.353068     5A    -26.343674     6A    -26.343651
       7A    -20.641859     8A    -11.520353     9A    -11.484534
      10A    -11.401280    11A    -10.581381    12A     -8.048172
      13A     -8.046196    14A     -8.046113    15A     -1.767988
      16A     -1.725320    17A     -1.663552    18A     -1.660689
      19A     -1.645299    20A     -1.488354    21A     -1.177804
      22A     -1.052687    23A     -0.991546    24A     -0.924897
      25A     -0.865135    26A     -0.859133    27A     -0.851924
      28A     -0.830154    29A     -0.818921    30A     -0.794128
      31A     -0.733958    32A     -0.733825    33A     -0.712948
      34A     -0.708456    35A     -0.684863    36A     -0.681694
      37A     -0.665557    38A     -0.664094    39A     -0.650094
      40A     -0.638505    41A     -0.599273    42A     -0.581990
      43A     -0.524951    44A     -0.478089    45A     -0.469305

  @DF-RHF Final Energy: -1146.62012359805340

   => Energetics <=

    Nuclear Repulsion Energy =            738.0990258475698056
    One-Electron Energy =               -3059.3975975523835587
    Two-Electron Energy =                1174.6784481067604702
    DFT Exchange-Correlation Energy =       0.0000000000000000
    Empirical Dispersion Energy =           0.0000000000000000
    PCM Polarization Energy =               0.0000000000000000
    EFP Energy =                            0.0000000000000000
    Total Energy =                      -1146.6201235980531692
    Molecular point group: c1
  Basis Set: CC-PVTZ
  Basis Set:

  -Total Gradient:
     Atom            X                  Y                   Z
    ------   -----------------  -----------------  -----------------
       1       -0.000008162858    -0.000004442260    -0.000004591852
       2        0.000007687901     0.000021474809     0.000060146233
       3       -0.000003425253    -0.000013674151    -0.000034888758
       4        0.000005000123    -0.000017351888    -0.000016243428
       5        0.000028148514     0.000024956887    -0.000013522568
       6       -0.001858777156    -0.002883134433     0.000672494065
       7        0.001334639378     0.002479876010     0.001245189881
       8       -0.000019220035    -0.000009974316     0.000019227518
       9        0.001335955114     0.001937779913    -0.000811475690
      10       -0.000809615244    -0.001609886635    -0.001089235319
      11       -0.000013991608     0.000047005697    -0.000032966115
      12        0.000001761157     0.000027370442     0.000005866031

  **** Optimization is complete! (in 5 steps) ****
    Final optimized geometry and variables:
    Molecular point group: c1

    Geometry (in Angstrom), charge = 0, multiplicity = 1:

    H           -2.651834639689    -0.637439140713     1.277597990292
    C           -2.096445188427    -0.376156168290     0.396090546348
    O           -0.814320114266    -0.143580089715     0.759159184216
    F           -2.161714845847    -1.359723933846    -0.489656236709
    F           -2.628404818536     0.687426066879    -0.182639866954
    C            0.081614276690     0.248127115261    -0.209422486444
    C            1.371091926890    -0.546366855340    -0.009118625785
    CL           0.424878517167     1.987182199493    -0.099924968285
    H           -0.267829933020     0.068235787346    -1.210819105859
    F            2.197784016534    -0.315413449348    -0.998616122486
    F            1.089979078232    -1.827952777492    -0.015587652641
    F            1.967387508363    -0.264938066908     1.115592979305

  Mulliken Charges: (a.u.)
   Center  Symbol    Alpha    Beta     Spin     Total
       1     H     0.45190  0.45190  0.00000  0.09621
       2     C     2.73982  2.73982  0.00000  0.52037
       3     O     4.15609  4.15609  0.00000 -0.31217
       4     F     4.61771  4.61771  0.00000 -0.23543
       5     F     4.61503  4.61503  0.00000 -0.23007
       6     C     2.93696  2.93696  0.00000  0.12607
       7     C     2.66881  2.66881  0.00000  0.66238
       8    CL     8.57515  8.57515  0.00000 -0.15031
       9     H     0.43077  0.43077  0.00000  0.13846
      10     F     4.60366  4.60366  0.00000 -0.20732
      11     F     4.60441  4.60441  0.00000 -0.20881
      12     F     4.59969  4.59969  0.00000 -0.19938

   Total alpha = 45.00000, Total beta = 45.00000, Total charge = -0.00000
