  ==> Input File <==

--------------------------------------------------------------------------
set {
	reference rhf
	basis 6-31G*
}

set_num_threads( 1 )
memory 2 gb

molecule MOL {
0 1

O	 1.437049	 2.009477	 0.358665
C	 0.491211	 2.228871	 1.044504
C	 -0.807751	 1.460740	 1.021284
O	 0.458028	 3.202112	 1.946079
C	 -0.823008	 0.326187	 0.001381
H	 -0.982822	 1.088492	 2.027015
H	 -1.603721	 2.174726	 0.827955
C	 -2.149452	 -0.435131	 -0.000098
H	 -0.006083	 -0.356323	 0.213516
H	 -0.628763	 0.731058	 -0.986878
C	 -3.368779	 0.488503	 -0.000883
H	 -2.193746	 -1.087250	 -0.871175
H	 -2.195311	 -1.087803	 0.870418
C	 -4.693822	 -0.272754	 -0.001129
H	 -3.325798	 1.139422	 -0.871284
H	 -3.326423	 1.139959	 0.869145
H	 -4.781274	 -0.907928	 -0.878124
H	 -5.538651	 0.408946	 -0.001420
H	 -4.781694	 -0.907783	 0.875984
C	 1.619943	 4.001549	 2.071808
H	 2.468455	 3.396512	 2.357266
H	 1.399364	 4.723664	 2.842374
H	 1.838847	 4.503119	 1.140135

	symmetry c1
}
set optking {
	frozen_dihedral = ("
		15 11 8 12,
		1 2 3 6,
		9 5 3 6,
		1 2 4 20
	")
}

ee = energy('scf')
oeprop('DIPOLE', 'QUADRUPOLE', 'MULLIKEN_CHARGES')
f=open( 'psi4out.xyz', 'w' )
f.write( "23  " )
f.write( str(ee) + "\n" )
f.write( MOL.save_string_xyz() )
f.close()
--------------------------------------------------------------------------

    Molecular point group: c1

    Geometry (in Angstrom), charge = 0, multiplicity = 1:

       Center              X                  Y                   Z               Mass
    ------------   -----------------  -----------------  -----------------  -----------------
           O          2.284947299647     0.533602436083    -0.371448869884    15.994914619560
           C          1.339109299647     0.752996436083     0.314390130116    12.000000000000
           C          0.040147299647    -0.015134563917     0.291170130116    12.000000000000
           O          1.305926299647     1.726237436083     1.215965130116    15.994914619560
           C          0.024890299647    -1.149687563917    -0.728732869884    12.000000000000
           H         -0.134923700353    -0.387382563917     1.296901130116     1.007825032070
           H         -0.755822700353     0.698851436083     0.097841130116     1.007825032070
           C         -1.301553700353    -1.911005563917    -0.730211869884    12.000000000000
           H          0.841815299647    -1.832197563917    -0.516597869884     1.007825032070
           H          0.219135299647    -0.744816563917    -1.716991869884     1.007825032070
           C         -2.520880700353    -0.987371563917    -0.730996869884    12.000000000000
           H         -1.345847700353    -2.563124563917    -1.601288869884     1.007825032070
           H         -1.347412700353    -2.563677563917     0.140304130116     1.007825032070
           C         -3.845923700353    -1.748628563917    -0.731242869884    12.000000000000
           H         -2.477899700353    -0.336452563917    -1.601397869884     1.007825032070
           H         -2.478524700353    -0.335915563917     0.139031130116     1.007825032070
           H         -3.933375700353    -2.383802563917    -1.608237869884     1.007825032070
           H         -4.690752700353    -1.066928563917    -0.731533869884     1.007825032070
           H         -3.933795700353    -2.383657563917     0.145870130116     1.007825032070
           C          2.467841299647     2.525674436083     1.341694130116    12.000000000000
           H          3.316353299647     1.920637436083     1.627152130116     1.007825032070
           H          2.247262299647     3.247789436083     2.112260130116     1.007825032070
           H          2.686745299647     3.027244436083     0.410021130116     1.007825032070

  Charge       = 0
  Multiplicity = 1
  Basis Set: 6-31G*
  Basis Set:

    Orbital Energies (a.u.)
    -----------------------

    Doubly Occupied:

       1A    -20.603335     2A    -20.544854     3A    -11.371664
       4A    -11.280652     5A    -11.234269     6A    -11.219082
       7A    -11.218519     8A    -11.217615     9A    -11.211105
      10A     -1.468934    11A     -1.362309    12A     -1.097140
      13A     -1.040116    14A     -0.987047    15A     -0.932866
      16A     -0.852926    17A     -0.793336    18A     -0.761275
      19A     -0.702223    20A     -0.682324    21A     -0.671592
      22A     -0.641347    23A     -0.618283    24A     -0.600008
      25A     -0.578276    26A     -0.558469    27A     -0.554437
      28A     -0.527016    29A     -0.520256    30A     -0.512146
      31A     -0.491250    32A     -0.467229    33A     -0.463915
      34A     -0.456935    35A     -0.452687    36A     -0.436875

  @DF-RHF Final Energy:  -422.97130087744802

   => Energetics <=

    Nuclear Repulsion Energy =            460.6766806278646982
    One-Electron Energy =               -1489.0312591138626885
    Two-Electron Energy =                 605.3832776085522482
    DFT Exchange-Correlation Energy =       0.0000000000000000
    Empirical Dispersion Energy =           0.0000000000000000
    PCM Polarization Energy =               0.0000000000000000
    EFP Energy =                            0.0000000000000000
    Total Energy =                       -422.9713008774457421

  Mulliken Charges: (a.u.)
   Center  Symbol    Alpha    Beta     Spin     Total
       1     O     4.28612  4.28612  0.00000 -0.57224
       2     C     2.60321  2.60321  0.00000  0.79359
       3     C     3.21541  3.21541  0.00000 -0.43082
       4     O     4.30731  4.30731  0.00000 -0.61461
       5     C     3.15260  3.15260  0.00000 -0.30521
       6     H     0.40109  0.40109  0.00000  0.19781
       7     H     0.39709  0.39709  0.00000  0.20582
       8     C     3.15383  3.15383  0.00000 -0.30767
       9     H     0.40954  0.40954  0.00000  0.18091
      10     H     0.41180  0.41180  0.00000  0.17640
      11     C     3.16000  3.16000  0.00000 -0.32000
      12     H     0.41802  0.41802  0.00000  0.16397
      13     H     0.42318  0.42318  0.00000  0.15365
      14     C     3.23798  3.23798  0.00000 -0.47595
      15     H     0.42190  0.42190  0.00000  0.15619
      16     H     0.42034  0.42034  0.00000  0.15932
      17     H     0.42104  0.42104  0.00000  0.15791
      18     H     0.41897  0.41897  0.00000  0.16205
      19     H     0.42145  0.42145  0.00000  0.15710
      20     C     3.09239  3.09239  0.00000 -0.18479
      21     H     0.40907  0.40907  0.00000  0.18186
      22     H     0.40852  0.40852  0.00000  0.18296
      23     H     0.40913  0.40913  0.00000  0.18175

   Total alpha = 36.00000, Total beta = 36.00000, Total charge =  0.00000
