  ==> Input File <==

--------------------------------------------------------------------------
set {
	reference rhf
	basis 6-31G*
}

set_num_threads( 4 )
memory 2 gb

molecule MOL {
0 1

H	 -3.301617	 0.570527	 0.000000
C	 -2.250981	 0.344174	 0.000000
C	 -1.813665	 -0.976045	 0.000000
C	 -1.315303	 1.358057	 0.000000
H	 -2.528860	 -1.779366	 0.000000
C	 -0.467298	 -1.270142	 0.000000
H	 -1.635074	 2.385107	 0.000000
C	 0.047081	 1.078114	 0.000000
H	 -0.115948	 -2.285222	 0.000000
C	 0.472063	 -0.241155	 0.000000
H	 0.749976	 1.888426	 0.000000
O	 1.765256	 -0.628444	 0.000000
C	 2.430192	 -0.827581	 -1.213786
H	 1.960983	 -1.610871	 -1.799986
H	 3.435880	 -1.128767	 -0.961415
H	 2.468770	 0.084677	 -1.799986

	symmetry c1
}
set optking {
	frozen_dihedral = ("
		13 12 10 8
	")
}

ee = optimize('scf')
oeprop('DIPOLE', 'QUADRUPOLE', 'MULLIKEN_CHARGES')
f=open( 'psi4out.xyz', 'w' )
f.write( "16  " )
f.write( str(ee) + "\n" )
f.write( MOL.save_string_xyz() )
f.close()
--------------------------------------------------------------------------

    Molecular point group: c1
  Charge       = 0
  Multiplicity = 1
  Basis Set: 6-31G*
  Basis Set:
  @DF-RHF Final Energy:  -344.57812057500013
    Total Energy =                       -344.5781205750001845
    Molecular point group: c1
  Basis Set: 6-31G*
  Basis Set:
  Basis Set: 6-31G*
  Basis Set:
  @DF-RHF Final Energy:  -344.58035560474843
    Total Energy =                       -344.5803556047484335
  Basis Set: 6-31G*
  Basis Set:
  Basis Set: 6-31G*
  Basis Set:
  @DF-RHF Final Energy:  -344.58055546187956
    Total Energy =                       -344.5805554618796123
  Basis Set: 6-31G*
  Basis Set:
  Basis Set: 6-31G*
  Basis Set:
  @DF-RHF Final Energy:  -344.58058503368017
    Total Energy =                       -344.5805850336802223
  Basis Set: 6-31G*
  Basis Set:
  Charge       = 0
  Multiplicity = 1
  Basis Set: 6-31G*
  Basis Set:

    Orbital Energies (a.u.)
    -----------------------

    Doubly Occupied:

       1A    -20.571326     2A    -11.285238     3A    -11.274971
       4A    -11.233465     5A    -11.233340     6A    -11.226650
       7A    -11.225748     8A    -11.225649     9A     -1.399758
      10A     -1.147745    11A     -1.016932    12A     -1.014970
      13A     -0.932641    14A     -0.834883    15A     -0.806417
      16A     -0.713468    17A     -0.666312    18A     -0.662892
      19A     -0.634003    20A     -0.611143    21A     -0.598930
      22A     -0.585749    23A     -0.530286    24A     -0.504679
      25A     -0.504657    26A     -0.483634    27A     -0.435217
      28A     -0.335255    29A     -0.321852

  @DF-RHF Final Energy:  -344.58058917334915

   => Energetics <=

    Nuclear Repulsion Energy =            348.1269076477693716
    One-Electron Energy =               -1157.3793667542681760
    Two-Electron Energy =                 464.6718699331496509
    DFT Exchange-Correlation Energy =       0.0000000000000000
    Empirical Dispersion Energy =           0.0000000000000000
    PCM Polarization Energy =               0.0000000000000000
    EFP Energy =                            0.0000000000000000
    Total Energy =                       -344.5805891733491535
    Molecular point group: c1
  Basis Set: 6-31G*
  Basis Set:

  -Total Gradient:
     Atom            X                  Y                   Z
    ------   -----------------  -----------------  -----------------
       1       -0.000033587376    -0.000084059493    -0.000003168640
       2        0.000087022979     0.000204041541     0.000093766825
       3        0.000185713732    -0.000110170193    -0.000052499334
       4       -0.000236341481    -0.000062583720    -0.000095538330
       5       -0.000054148619     0.000027655309     0.000007619505
       6       -0.000124316904    -0.000152226837    -0.000005620430
       7        0.000032355105    -0.000036043747     0.000009989986
       8        0.000147848006    -0.000097722513     0.000006978104
       9       -0.000035113326     0.000020776259     0.000015848863
      10       -0.000256260799     0.000505209868    -0.000005832267
      11        0.000033171079    -0.000045338624     0.000020476989
      12        0.000180966354    -0.000208654067     0.000113836545
      13        0.000069841666     0.000066873626    -0.000186109144
      14       -0.000009653237     0.000000161042     0.000061472986
      15        0.000010953990    -0.000015714900     0.000006465626
      16        0.000001548830    -0.000012203551     0.000012312716

  **** Optimization is complete! (in 5 steps) ****
    Final optimized geometry and variables:
    Molecular point group: c1

    Geometry (in Angstrom), charge = 0, multiplicity = 1:

    H           -3.231990960685     0.775193941541     0.145217367885
    C           -2.186411915850     0.525070873558     0.152997258625
    C           -1.788063537097    -0.802432615640     0.177208791883
    C           -1.229106911435     1.526951311382     0.146077969770
    H           -2.525739259237    -1.584967242929     0.190402623151
    C           -0.442199362846    -1.129465296591     0.189935188344
    H           -1.530264077320     2.559282487201     0.135221771283
    C            0.119163063127     1.207506226595     0.159294940098
    H           -0.119974086931    -2.154412310079     0.221351325485
    C            0.508859600617    -0.121613273039     0.178998752985
    H            0.871699592049     1.975022299687     0.167681218263
    O            1.834025552885    -0.441080793676     0.219887357477
    C            2.458549705439    -0.590549225261    -1.030102270524
    H            1.997636460628    -1.387834697054    -1.604498379158
    H            3.491954117656    -0.839609415135    -0.836271356339
    H            2.411429161955     0.329325168594    -1.604188271391

  Mulliken Charges: (a.u.)
   Center  Symbol    Alpha    Beta     Spin     Total
       1     H     0.39982  0.39982  0.00000  0.20036
       2     C     3.10556  3.10556  0.00000 -0.21112
       3     C     3.09711  3.09711  0.00000 -0.19422
       4     C     3.09707  3.09707  0.00000 -0.19413
       5     H     0.39835  0.39835  0.00000  0.20330
       6     C     3.11992  3.11992  0.00000 -0.23984
       7     H     0.39835  0.39835  0.00000  0.20331
       8     C     3.12007  3.12007  0.00000 -0.24015
       9     H     0.39471  0.39471  0.00000  0.21058
      10     C     2.80339  2.80339  0.00000  0.39321
      11     H     0.39481  0.39481  0.00000  0.21037
      12     O     4.33218  4.33218  0.00000 -0.66435
      13     C     3.08199  3.08199  0.00000 -0.16399
      14     H     0.42314  0.42314  0.00000  0.15372
      15     H     0.41031  0.41031  0.00000  0.17937
      16     H     0.42322  0.42322  0.00000  0.15357

   Total alpha = 29.00000, Total beta = 29.00000, Total charge = -0.00000
