  ==> Input File <==

--------------------------------------------------------------------------
set {
	reference rhf
	basis 6-31G*
}

set_num_threads( 1 )
memory 2 gb

molecule MOL {
0 1

H	 -2.798360	 -0.862255	 -0.071053
N	 -1.863561	 -0.715187	 0.256814
C	 -1.344686	 0.554728	 -0.219830
H	 -1.300452	 -1.461917	 -0.101532
C	 0.081427	 0.741154	 0.254071
H	 -1.362155	 0.656231	 -1.305829
H	 -1.952773	 1.354456	 0.191809
O	 0.874168	 -0.245412	 -0.342030
H	 0.444037	 1.730782	 -0.023037
H	 0.121165	 0.653424	 1.337565
C	 2.165388	 -0.331937	 0.170643
H	 2.678232	 -1.120312	 -0.363354
H	 2.711852	 0.599279	 0.032092
H	 2.156558	 -0.572264	 1.231763

	symmetry c1
}
set optking {
	frozen_dihedral = ("
		8 5 3 6,
		6 3 2 4,
		5 8 11 13
	")
}

ee = energy('scf')
oeprop('DIPOLE', 'QUADRUPOLE', 'MULLIKEN_CHARGES')
f=open( 'psi4out.xyz', 'w' )
f.write( "14  " )
f.write( str(ee) + "\n" )
f.write( MOL.save_string_xyz() )
f.close()
--------------------------------------------------------------------------

    Molecular point group: c1

    Geometry (in Angstrom), charge = 0, multiplicity = 1:

       Center              X                  Y                   Z               Mass
    ------------   -----------------  -----------------  -----------------  -----------------
           H         -2.790577427336    -0.843768555057    -0.091297756329     1.007825032070
           N         -1.855778427336    -0.696700555057     0.236569243671    14.003074004780
           C         -1.336903427336     0.573214444943    -0.240074756329    12.000000000000
           H         -1.292669427336    -1.443430555057    -0.121776756329     1.007825032070
           C          0.089209572664     0.759640444943     0.233826243671    12.000000000000
           H         -1.354372427336     0.674717444943    -1.326073756329     1.007825032070
           H         -1.944990427336     1.372942444943     0.171564243671     1.007825032070
           O          0.881950572664    -0.226925555057    -0.362274756329    15.994914619560
           H          0.451819572664     1.749268444943    -0.043281756329     1.007825032070
           H          0.128947572664     0.671910444943     1.317320243671     1.007825032070
           C          2.173170572664    -0.313450555057     0.150398243671    12.000000000000
           H          2.686014572664    -1.101825555057    -0.383598756329     1.007825032070
           H          2.719634572664     0.617765444943     0.011847243671     1.007825032070
           H          2.164340572664    -0.553777555057     1.211518243671     1.007825032070

  Charge       = 0
  Multiplicity = 1
  Basis Set: 6-31G*
  Basis Set:

    Orbital Energies (a.u.)
    -----------------------

    Doubly Occupied:

       1A    -20.557472     2A    -15.528577     3A    -11.266124
       4A    -11.265622     5A    -11.240780     6A     -1.381497
       7A     -1.173707     8A     -0.999092     9A     -0.907067
      10A     -0.815288    11A     -0.684201    12A     -0.673438
      13A     -0.645568    14A     -0.611051    15A     -0.604340
      16A     -0.540661    17A     -0.529963    18A     -0.497063
      19A     -0.472839    20A     -0.417605    21A     -0.380157

  @DF-RHF Final Energy:  -248.12517426458470

   => Energetics <=

    Nuclear Repulsion Energy =            194.8102325954781122
    One-Electron Energy =                -723.4865590510660240
    Two-Electron Energy =                 280.5511521910034389
    DFT Exchange-Correlation Energy =       0.0000000000000000
    Empirical Dispersion Energy =           0.0000000000000000
    PCM Polarization Energy =               0.0000000000000000
    EFP Energy =                            0.0000000000000000
    Total Energy =                       -248.1251742645845297

  Mulliken Charges: (a.u.)
   Center  Symbol    Alpha    Beta     Spin     Total
       1     H     0.33278  0.33278  0.00000  0.33444
       2     N     3.92540  3.92540  0.00000 -0.85080
       3     C     3.06893  3.06893  0.00000 -0.13786
       4     H     0.32400  0.32400  0.00000  0.35201
       5     C     2.99031  2.99031  0.00000  0.01939
       6     H     0.42638  0.42638  0.00000  0.14724
       7     H     0.42044  0.42044  0.00000  0.15912
       8     O     4.30960  4.30960  0.00000 -0.61919
       9     H     0.43038  0.43038  0.00000  0.13924
      10     H     0.42287  0.42287  0.00000  0.15426
      11     C     3.07935  3.07935  0.00000 -0.15870
      12     H     0.41264  0.41264  0.00000  0.17471
      13     H     0.42993  0.42993  0.00000  0.14014
      14     H     0.42700  0.42700  0.00000  0.14601

   Total alpha = 21.00000, Total beta = 21.00000, Total charge =  0.00000
