  ==> Input File <==

--------------------------------------------------------------------------
set {
	reference rhf
	basis 6-31G*
}

set_num_threads( 1 )
memory 2 gb

molecule MOL {
0 1

H	 -2.658888	 -0.928340	 1.666655
O	 -1.823239	 -0.630469	 1.336897
C	 -2.026376	 0.340750	 0.341611
C	 -0.673256	 0.843270	 -0.132153
H	 -2.574097	 -0.084837	 -0.497325
H	 -2.615351	 1.170080	 0.731448
C	 0.486613	 -0.083066	 0.235839
H	 -0.715586	 0.970948	 -1.210718
H	 -0.508072	 1.829858	 0.297090
C	 1.840406	 0.433480	 -0.254303
H	 0.300215	 -1.068318	 -0.178947
H	 0.519509	 -0.203625	 1.318070
C	 3.000220	 -0.489290	 0.118523
H	 1.809207	 0.553576	 -1.335192
H	 2.021860	 1.424500	 0.157276
H	 2.864959	 -1.479103	 -0.307933
H	 3.946603	 -0.099227	 -0.243630
H	 3.080049	 -0.602997	 1.196117

	symmetry c1
}
set optking {
	frozen_dihedral = ("
		14 10 7 11,
		10 7 4 8,
		1 2 3 4
	")
}

ee = energy('scf')
oeprop('DIPOLE', 'QUADRUPOLE', 'MULLIKEN_CHARGES')
f=open( 'psi4out.xyz', 'w' )
f.write( "18  " )
f.write( str(ee) + "\n" )
f.write( MOL.save_string_xyz() )
f.close()
--------------------------------------------------------------------------

    Molecular point group: c1

    Geometry (in Angstrom), charge = 0, multiplicity = 1:

       Center              X                  Y                   Z               Mass
    ------------   -----------------  -----------------  -----------------  -----------------
           H         -2.748365262029    -0.973198656595     1.363516253628     1.007825032070
           O         -1.912716262029    -0.675327656595     1.033758253628    15.994914619560
           C         -2.115853262029     0.295891343405     0.038472253628    12.000000000000
           C         -0.762733262029     0.798411343405    -0.435291746372    12.000000000000
           H         -2.663574262029    -0.129695656595    -0.800463746372     1.007825032070
           H         -2.704828262029     1.125221343405     0.428309253628     1.007825032070
           C          0.397135737971    -0.127924656595    -0.067299746372    12.000000000000
           H         -0.805063262029     0.926089343405    -1.513856746372     1.007825032070
           H         -0.597549262029     1.784999343405    -0.006048746372     1.007825032070
           C          1.750928737971     0.388621343405    -0.557441746372    12.000000000000
           H          0.210737737971    -1.113176656595    -0.482085746372     1.007825032070
           H          0.430031737971    -0.248483656595     1.014931253628     1.007825032070
           C          2.910742737971    -0.534148656595    -0.184615746372    12.000000000000
           H          1.719729737971     0.508717343405    -1.638330746372     1.007825032070
           H          1.932382737971     1.379641343405    -0.145862746372     1.007825032070
           H          2.775481737971    -1.523961656595    -0.611071746372     1.007825032070
           H          3.857125737971    -0.144085656595    -0.546768746372     1.007825032070
           H          2.990571737971    -0.647855656595     0.892978253628     1.007825032070

  Charge       = 0
  Multiplicity = 1
  Basis Set: 6-31G*
  Basis Set:

    Orbital Energies (a.u.)
    -----------------------

    Doubly Occupied:

       1A    -20.552613     2A    -11.267305     3A    -11.210241
       4A    -11.207021     5A    -11.201829     6A    -11.201377
       7A     -1.360489     8A     -1.070904     9A     -1.006899
      10A     -0.912414    11A     -0.815983    12A     -0.779474
      13A     -0.697565    14A     -0.657255    15A     -0.615379
      16A     -0.580719    17A     -0.570279    18A     -0.550254
      19A     -0.514770    20A     -0.500775    21A     -0.493201
      22A     -0.462259    23A     -0.454499    24A     -0.443651
      25A     -0.423653

  @DF-RHF Final Energy:  -271.17172988013772

   => Energetics <=

    Nuclear Repulsion Energy =            251.2797410592728227
    One-Electron Energy =                -865.8012736580732280
    Two-Electron Energy =                 343.3498027186627723
    DFT Exchange-Correlation Energy =       0.0000000000000000
    Empirical Dispersion Energy =           0.0000000000000000
    PCM Polarization Energy =               0.0000000000000000
    EFP Energy =                            0.0000000000000000
    Total Energy =                       -271.1717298801376046

  Mulliken Charges: (a.u.)
   Center  Symbol    Alpha    Beta     Spin     Total
       1     H     0.28068  0.28068  0.00000  0.43863
       2     O     4.37156  4.37156  0.00000 -0.74313
       3     C     2.99039  2.99039  0.00000  0.01921
       4     C     3.17446  3.17446  0.00000 -0.34892
       5     H     0.43114  0.43114  0.00000  0.13771
       6     H     0.42961  0.42961  0.00000  0.14078
       7     C     3.14324  3.14324  0.00000 -0.28648
       8     H     0.42123  0.42123  0.00000  0.15755
       9     H     0.42045  0.42045  0.00000  0.15911
      10     C     3.15207  3.15207  0.00000 -0.30413
      11     H     0.42055  0.42055  0.00000  0.15890
      12     H     0.40958  0.40958  0.00000  0.18084
      13     C     3.23839  3.23839  0.00000 -0.47678
      14     H     0.42647  0.42647  0.00000  0.14705
      15     H     0.42519  0.42519  0.00000  0.14962
      16     H     0.42219  0.42219  0.00000  0.15562
      17     H     0.42126  0.42126  0.00000  0.15748
      18     H     0.42154  0.42154  0.00000  0.15692

   Total alpha = 25.00000, Total beta = 25.00000, Total charge = -0.00000
