  ==> Input File <==

--------------------------------------------------------------------------
set {
	reference rhf
	basis 6-31G*
}

set_num_threads( 1 )
memory 2 gb

molecule MOL {
0 1

O	 1.878763	 0.575722	 0.637155
C	 2.701189	 0.057885	 -0.047330
C	 3.150442	 0.544034	 -1.404025
O	 3.347903	 -1.046386	 0.304773
C	 2.442090	 1.821972	 -1.848128
H	 4.226882	 0.671206	 -1.356127
H	 2.978173	 -0.264296	 -2.110156
C	 2.809812	 2.270324	 -3.266669
H	 2.661682	 2.617487	 -1.142398
H	 1.370961	 1.660480	 -1.793125
C	 4.264559	 2.713509	 -3.446688
H	 2.158482	 3.097974	 -3.537757
H	 2.586929	 1.468808	 -3.969453
C	 4.552572	 3.254435	 -4.848632
H	 4.498448	 3.480829	 -2.710254
H	 4.936967	 1.882486	 -3.246085
C	 6.004589	 3.695478	 -5.041660
H	 3.892270	 4.095717	 -5.052301
H	 4.308735	 2.491345	 -5.586153
C	 6.282945	 4.237923	 -6.443078
H	 6.250224	 4.457292	 -4.304813
H	 6.665928	 2.854735	 -4.842759
H	 7.319737	 4.542029	 -6.548857
H	 5.661178	 5.102052	 -6.659601
H	 6.079468	 3.487286	 -7.201639
C	 4.728119	 -1.109107	 -0.004993
H	 4.882018	 -1.033965	 -1.071845
H	 5.068212	 -2.067527	 0.355250
H	 5.265056	 -0.311663	 0.488280

	symmetry c1
}
set optking {
	frozen_dihedral = ("
		21 17 14 11,
		17 14 11 15,
		15 11 8 5,
		6 3 5 9,
		11 8 5 9,
		2 4 26 27,
		6 3 2 1
	")
}

ee = energy('scf')
oeprop('DIPOLE', 'QUADRUPOLE', 'MULLIKEN_CHARGES')
f=open( 'psi4out.xyz', 'w' )
f.write( "29  " )
f.write( str(ee) + "\n" )
f.write( MOL.save_string_xyz() )
f.close()
--------------------------------------------------------------------------

    Molecular point group: c1

    Geometry (in Angstrom), charge = 0, multiplicity = 1:

       Center              X                  Y                   Z               Mass
    ------------   -----------------  -----------------  -----------------  -----------------
           O         -1.967926222652    -0.947326212802     2.925831309026    15.994914619560
           C         -1.145500222652    -1.465163212802     2.241346309026    12.000000000000
           C         -0.696247222652    -0.979014212802     0.884651309026    12.000000000000
           O         -0.498786222652    -2.569434212802     2.593449309026    15.994914619560
           C         -1.404599222652     0.298923787198     0.440548309026    12.000000000000
           H          0.380192777348    -0.851842212802     0.932549309026     1.007825032070
           H         -0.868516222652    -1.787344212802     0.178520309026     1.007825032070
           C         -1.036877222652     0.747275787198    -0.977992690974    12.000000000000
           H         -1.185007222652     1.094438787198     1.146278309026     1.007825032070
           H         -2.475728222652     0.137431787198     0.495551309026     1.007825032070
           C          0.417869777348     1.190460787198    -1.158011690974    12.000000000000
           H         -1.688207222652     1.574925787198    -1.249080690974     1.007825032070
           H         -1.259760222652    -0.054240212802    -1.680776690974     1.007825032070
           C          0.705882777348     1.731386787198    -2.559955690974    12.000000000000
           H          0.651758777348     1.957780787198    -0.421577690974     1.007825032070
           H          1.090277777348     0.359437787198    -0.957408690974     1.007825032070
           C          2.157899777348     2.172429787198    -2.752983690974    12.000000000000
           H          0.045580777348     2.572668787198    -2.763624690974     1.007825032070
           H          0.462045777348     0.968296787198    -3.297476690974     1.007825032070
           C          2.436255777348     2.714874787198    -4.154401690974    12.000000000000
           H          2.403534777348     2.934243787198    -2.016136690974     1.007825032070
           H          2.819238777348     1.331686787198    -2.554082690974     1.007825032070
           H          3.473047777348     3.018980787198    -4.260180690974     1.007825032070
           H          1.814488777348     3.579003787198    -4.370924690974     1.007825032070
           H          2.232778777348     1.964237787198    -4.912962690974     1.007825032070
           C          0.881429777348    -2.632155212802     2.283683309026    12.000000000000
           H          1.035328777348    -2.557013212802     1.216831309026     1.007825032070
           H          1.221522777348    -3.590575212802     2.643926309026     1.007825032070
           H          1.418366777348    -1.834711212802     2.776956309026     1.007825032070

  Charge       = 0
  Multiplicity = 1
  Basis Set: 6-31G*
  Basis Set:

    Orbital Energies (a.u.)
    -----------------------

    Doubly Occupied:

       1A    -20.599111     2A    -20.548820     3A    -11.374129
       4A    -11.297069     5A    -11.239340     6A    -11.222404
       7A    -11.221324     8A    -11.220737     9A    -11.219670
      10A    -11.218424    11A    -11.212201    12A     -1.465965
      13A     -1.369202    14A     -1.101841    15A     -1.069157
      16A     -1.015620    17A     -0.986673    18A     -0.947806
      19A     -0.872114    20A     -0.807088    21A     -0.795442
      22A     -0.762406    23A     -0.704273    24A     -0.685317
      25A     -0.680852    26A     -0.654263    27A     -0.635354
      28A     -0.612144    29A     -0.597786    30A     -0.592453
      31A     -0.569664    32A     -0.558636    33A     -0.548873
      34A     -0.534875    35A     -0.524793    36A     -0.507252
      37A     -0.494427    38A     -0.481934    39A     -0.474067
      40A     -0.466351    41A     -0.464024    42A     -0.456381
      43A     -0.443032    44A     -0.429623

  @DF-RHF Final Energy:  -501.01770387555939

   => Energetics <=

    Nuclear Repulsion Energy =            619.2933867674501016
    One-Electron Energy =               -1909.2561076540582690
    Two-Electron Energy =                 788.9450170110486624
    DFT Exchange-Correlation Energy =       0.0000000000000000
    Empirical Dispersion Energy =           0.0000000000000000
    PCM Polarization Energy =               0.0000000000000000
    EFP Energy =                            0.0000000000000000
    Total Energy =                       -501.0177038755595049

  Mulliken Charges: (a.u.)
   Center  Symbol    Alpha    Beta     Spin     Total
       1     O     4.26614  4.26614  0.00000 -0.53229
       2     C     2.59666  2.59666  0.00000  0.80668
       3     C     3.23982  3.23982  0.00000 -0.47965
       4     O     4.30217  4.30217  0.00000 -0.60433
       5     C     3.15110  3.15110  0.00000 -0.30219
       6     H     0.40159  0.40159  0.00000  0.19682
       7     H     0.39940  0.39940  0.00000  0.20120
       8     C     3.15665  3.15665  0.00000 -0.31330
       9     H     0.41279  0.41279  0.00000  0.17442
      10     H     0.40660  0.40660  0.00000  0.18681
      11     C     3.15426  3.15426  0.00000 -0.30853
      12     H     0.41726  0.41726  0.00000  0.16549
      13     H     0.42411  0.42411  0.00000  0.15178
      14     C     3.15029  3.15029  0.00000 -0.30057
      15     H     0.42225  0.42225  0.00000  0.15551
      16     H     0.42738  0.42738  0.00000  0.14525
      17     C     3.15144  3.15144  0.00000 -0.30288
      18     H     0.42232  0.42232  0.00000  0.15536
      19     H     0.42383  0.42383  0.00000  0.15235
      20     C     3.23944  3.23944  0.00000 -0.47888
      21     H     0.42255  0.42255  0.00000  0.15490
      22     H     0.42448  0.42448  0.00000  0.15105
      23     H     0.41892  0.41892  0.00000  0.16216
      24     H     0.42098  0.42098  0.00000  0.15804
      25     H     0.42167  0.42167  0.00000  0.15666
      26     C     3.10405  3.10405  0.00000 -0.20811
      27     H     0.41291  0.41291  0.00000  0.17418
      28     H     0.39773  0.39773  0.00000  0.20455
      29     H     0.41124  0.41124  0.00000  0.17753

   Total alpha = 44.00000, Total beta = 44.00000, Total charge =  0.00000
