                              Psi4 1.0.54 Driver

  ==> Input File <==

--------------------------------------------------------------------------
set {
	reference rhf
	basis cc-pvtz
}

set_num_threads( 4 )
memory 2 gb

molecule MOL {
0 1

H	 1.754466	 -1.566908	 0.576752
O	 2.012307	 -0.863440	 0.000222
C	 1.050374	 0.054877	 0.000135
C	 -0.318151	 -0.570512	 0.000144
O	 1.286319	 1.213453	 -0.000040
C	 -1.454884	 0.441630	 -0.000560
H	 -0.371613	 -1.223646	 -0.864985
H	 -0.371920	 -1.222758	 0.865929
C	 -2.822577	 -0.232186	 0.000063
H	 -1.359760	 1.084704	 -0.867077
H	 -1.359641	 1.085996	 0.864983
H	 -2.954352	 -0.858985	 -0.875745
H	 -3.615886	 0.505352	 0.000019
H	 -2.953878	 -0.858359	 0.876394

	symmetry c1
}
set optking {
	frozen_dihedral = ("
		1 2 3 5
	")
}

ee,wfn = optimize('scf', return_wfn=True)
oeprop( wfn, 'DIPOLE', 'QUADRUPOLE', 'MULLIKEN_CHARGES')
f=open( 'psi4out.xyz', 'w' )
f.write( "14  " )
f.write( str(ee) + "\n" )
f.write( MOL.save_string_xyz() )
f.close()
--------------------------------------------------------------------------

    Molecular point group: c1
  Charge       = 0
  Multiplicity = 1
  Basis Set: CC-PVTZ
  Basis Set:
  @DF-RHF Final Energy:  -305.98555430827105
    Total Energy =                       -305.9855543082709346
    Molecular point group: c1
  Basis Set: CC-PVTZ
  Basis Set:
  Basis Set: CC-PVTZ
  Basis Set:
  @DF-RHF Final Energy:  -305.98656927282434
    Total Energy =                       -305.9865692728245676
  Basis Set: CC-PVTZ
  Basis Set:
  Basis Set: CC-PVTZ
  Basis Set:
  @DF-RHF Final Energy:  -305.98672161298316
    Total Energy =                       -305.9867216129828194
  Basis Set: CC-PVTZ
  Basis Set:
  Basis Set: CC-PVTZ
  Basis Set:
  @DF-RHF Final Energy:  -305.98687255224183
    Total Energy =                       -305.9868725522418913
  Basis Set: CC-PVTZ
  Basis Set:
  Basis Set: CC-PVTZ
  Basis Set:
  @DF-RHF Final Energy:  -305.98696930823343
    Total Energy =                       -305.9869693082333129
  Basis Set: CC-PVTZ
  Basis Set:
  Charge       = 0
  Multiplicity = 1
  Basis Set: CC-PVTZ
  Basis Set:

    Orbital Energies (a.u.)
    -----------------------

    Doubly Occupied:

       1A    -20.597535     2A    -20.542544     3A    -11.373700
       4A    -11.248581     5A    -11.228497     6A    -11.219846
       7A     -1.468109     8A     -1.373667     9A     -1.087845
      10A     -0.978666    11A     -0.853758    12A     -0.815017
      13A     -0.720439    14A     -0.674984    15A     -0.663714
      16A     -0.629195    17A     -0.583700    18A     -0.578280
      19A     -0.551285    20A     -0.510194    21A     -0.496642
      22A     -0.488386    23A     -0.484255    24A     -0.445580

  @DF-RHF Final Energy:  -305.98697013353149

   => Energetics <=

    Nuclear Repulsion Energy =            240.1277908341578211
    One-Electron Energy =                -893.0006888373850416
    Two-Electron Energy =                 346.8859278696955926
    DFT Exchange-Correlation Energy =       0.0000000000000000
    Empirical Dispersion Energy =           0.0000000000000000
    PCM Polarization Energy =               0.0000000000000000
    EFP Energy =                            0.0000000000000000
    Total Energy =                       -305.9869701335315995
    Molecular point group: c1
  Basis Set: CC-PVTZ
  Basis Set:

  -Total Gradient:
     Atom            X                  Y                   Z
    ------   -----------------  -----------------  -----------------
       1        0.002762429106     0.003198974277     0.005458193281
       2       -0.003472060885    -0.004066541947    -0.004254257839
       3        0.000599252453     0.001194945874    -0.007170253298
       4       -0.000020809698    -0.000006075128    -0.000071822304
       5        0.000176398768    -0.000295229340     0.005976768112
       6       -0.000017052125    -0.000004756493     0.000041380111
       7       -0.000016560724    -0.000016462729     0.000018950562
       8       -0.000002347444    -0.000000082607     0.000035106055
       9       -0.000000759770    -0.000003031939    -0.000014298014
      10        0.000002273517     0.000008281209    -0.000016692076
      11        0.000008386006    -0.000000100973    -0.000002844858
      12       -0.000007294100    -0.000011439930    -0.000012376023
      13       -0.000011201680     0.000009843761    -0.000000191129
      14       -0.000000653422    -0.000008324035     0.000012337420

  **** Optimization is complete! (in 6 steps) ****
    Final optimized geometry and variables:
    Molecular point group: c1

    Geometry (in Angstrom), charge = 0, multiplicity = 1:

    H            1.993486194194    -1.472815282643     0.443934090032
    O            2.117360645472    -0.699695027207    -0.079291278758
    C            1.054234524043     0.121855959501    -0.020831697691
    C           -0.284380426073    -0.578547808414    -0.041461138958
    O            1.203888935244     1.285461307395     0.038623092656
    C           -1.476098386588     0.363977880194     0.050604171394
    H           -0.323229182188    -1.169714774381    -0.951445941816
    H           -0.300478266922    -1.293542550990     0.778925644956
    C           -2.805088233503    -0.382762906311     0.023047934663
    H           -1.430415913135     1.070875887630    -0.768355355287
    H           -1.397713509127     0.948964173527     0.958790074867
    H           -2.919735918855    -0.951864168400    -0.893614396918
    H           -3.636345948462     0.308522835318     0.087626348183
    H           -2.887373680498    -1.075540372713     0.854320286784

  Mulliken Charges: (a.u.)
   Center  Symbol    Alpha    Beta     Spin     Total
       1     H     0.38815  0.38815  0.00000  0.22370
       2     O     4.15555  4.15555  0.00000 -0.31110
       3     C     2.80487  2.80487  0.00000  0.39026
       4     C     3.11773  3.11773  0.00000 -0.23545
       5     O     4.16814  4.16814  0.00000 -0.33627
       6     C     3.08280  3.08280  0.00000 -0.16561
       7     H     0.43643  0.43643  0.00000  0.12713
       8     H     0.45284  0.45284  0.00000  0.09432
       9     C     3.15014  3.15014  0.00000 -0.30028
      10     H     0.44276  0.44276  0.00000  0.11449
      11     H     0.44498  0.44498  0.00000  0.11005
      12     H     0.45518  0.45518  0.00000  0.08964
      13     H     0.44405  0.44405  0.00000  0.11190
      14     H     0.45638  0.45638  0.00000  0.08723

   Total alpha = 24.00000, Total beta = 24.00000, Total charge =  0.00000

*** Psi4 exiting successfully. Buy a developer a beer!
