  ==> Input File <==

--------------------------------------------------------------------------
set {
	reference rhf
	basis 6-31G*
}

set_num_threads( 4 )
memory 2 gb

molecule MOL {
0 1

O	 -2.219205	 -0.711905	 -1.030257
C	 -1.804321	 0.182983	 -0.367446
C	 -2.522306	 1.483252	 -0.126312
O	 -0.632575	 0.154573	 0.251549
H	 -1.914586	 2.308232	 -0.479911
H	 -3.470778	 1.474770	 -0.642224
H	 -2.679028	 1.623204	 0.936988
C	 0.160891	 -1.019931	 0.106212
C	 1.589627	 -0.672828	 0.480843
H	 0.089836	 -1.367806	 -0.916050
H	 -0.238459	 -1.792301	 0.749618
C	 2.246377	 0.346236	 -0.452210
H	 2.163194	 -1.597435	 0.473358
H	 1.604769	 -0.303424	 1.502885
C	 3.691736	 0.652107	 -0.061850
H	 2.219579	 -0.032311	 -1.472055
H	 1.666466	 1.263317	 -0.447249
H	 4.134505	 1.377213	 -0.737283
H	 4.305508	 -0.243868	 -0.089969
H	 3.748266	 1.059562	 0.943567

	symmetry c1
}
set optking {
	frozen_dihedral = ("
		2 4 8 10
	")
}

ee = optimize('scf')
oeprop('DIPOLE', 'QUADRUPOLE', 'MULLIKEN_CHARGES')
f=open( 'psi4out.xyz', 'w' )
f.write( "20  " )
f.write( str(ee) + "\n" )
f.write( MOL.save_string_xyz() )
f.close()
--------------------------------------------------------------------------

    Molecular point group: c1
  Charge       = 0
  Multiplicity = 1
  Basis Set: 6-31G*
  Basis Set:
  @DF-RHF Final Energy:  -383.94514151468172
    Total Energy =                       -383.9451415146816089
    Molecular point group: c1
  Basis Set: 6-31G*
  Basis Set:
  Basis Set: 6-31G*
  Basis Set:
  @DF-RHF Final Energy:  -383.94499516298191
    Total Energy =                       -383.9449951629817406
  Basis Set: 6-31G*
  Basis Set:
  Basis Set: 6-31G*
  Basis Set:
  @DF-RHF Final Energy:  -383.94475046262556
    Total Energy =                       -383.9447504626256205
  Basis Set: 6-31G*
  Basis Set:
  Basis Set: 6-31G*
  Basis Set:
  @DF-RHF Final Energy:  -383.94522735613941
    Total Energy =                       -383.9452273561397533
  Basis Set: 6-31G*
  Basis Set:
  Basis Set: 6-31G*
  Basis Set:
  @DF-RHF Final Energy:  -383.94523577738562
    Total Energy =                       -383.9452357773856193
  Basis Set: 6-31G*
  Basis Set:
  Charge       = 0
  Multiplicity = 1
  Basis Set: 6-31G*
  Basis Set:

    Orbital Energies (a.u.)
    -----------------------

    Doubly Occupied:

       1A    -20.601670     2A    -20.543911     3A    -11.374823
       4A    -11.282059     5A    -11.233282     6A    -11.225643
       7A    -11.221009     8A    -11.213663     9A     -1.467323
      10A     -1.362336    11A     -1.086111    12A     -1.028408
      13A     -0.981502    14A     -0.881197    15A     -0.810468
      16A     -0.775983    17A     -0.690442    18A     -0.681061
      19A     -0.667322    20A     -0.632191    21A     -0.601652
      22A     -0.593285    23A     -0.572727    24A     -0.549514
      25A     -0.542925    26A     -0.533459    27A     -0.510054
      28A     -0.482085    29A     -0.477881    30A     -0.474778
      31A     -0.446878    32A     -0.438069

  @DF-RHF Final Energy:  -383.94523581765770

   => Energetics <=

    Nuclear Repulsion Energy =            386.0153892824723698
    One-Electron Energy =               -1287.9538253481237007
    Two-Electron Energy =                 517.9932002479937410
    DFT Exchange-Correlation Energy =       0.0000000000000000
    Empirical Dispersion Energy =           0.0000000000000000
    PCM Polarization Energy =               0.0000000000000000
    EFP Energy =                            0.0000000000000000
    Total Energy =                       -383.9452358176575899
    Molecular point group: c1
  Basis Set: 6-31G*
  Basis Set:

  -Total Gradient:
     Atom            X                  Y                   Z
    ------   -----------------  -----------------  -----------------
       1        0.000022802347     0.000003794286     0.000011829191
       2        0.000478986865     0.000481181485    -0.000970765613
       3       -0.000004528401     0.000008845251    -0.000008359358
       4       -0.000993987162    -0.000890576543     0.001474025541
       5       -0.000002284055     0.000000528973     0.000003166175
       6       -0.000003126224     0.000005955927     0.000001468971
       7       -0.000001197120    -0.000000446149    -0.000000183964
       8        0.001558753197     0.001191367703    -0.000853219633
       9       -0.000004919726    -0.000000140997     0.000006317697
      10       -0.001060654528    -0.000785476436     0.000346611133
      11        0.000003353194    -0.000007625100     0.000001606769
      12        0.000004225142    -0.000005078264    -0.000010503521
      13       -0.000004809740     0.000000656603    -0.000005917595
      14        0.000004985480    -0.000003952752     0.000004039068
      15       -0.000002217394     0.000005025183     0.000004716139
      16        0.000004708344     0.000001126481    -0.000003606989
      17       -0.000000118786    -0.000007998709    -0.000004249850
      18       -0.000001534366     0.000001867228     0.000002189339
      19       -0.000001379196     0.000000984496    -0.000002108572
      20        0.000002942132    -0.000000038666     0.000002945072

  **** Optimization is complete! (in 6 steps) ****
    Final optimized geometry and variables:
    Molecular point group: c1

    Geometry (in Angstrom), charge = 0, multiplicity = 1:

    O           -2.307585030692    -0.776876131993    -0.850267320072
    C           -1.868493424622     0.122729193132    -0.209847063125
    C           -2.568329840912     1.434089802993     0.025826418126
    O           -0.688906516156     0.090825868094     0.394217408859
    H           -1.958004116386     2.247814640332    -0.348627624600
    H           -3.525498680504     1.428962722412    -0.473821583938
    H           -2.705530954033     1.589268946965     1.089744100394
    C            0.115211521605    -1.075834362293     0.239482553464
    C            1.540501451752    -0.726849898582     0.625183178703
    H            0.042455643913    -1.425053838578    -0.780321571439
    H           -0.283816292159    -1.850767827938     0.882413113611
    C            2.202175608536     0.291249985409    -0.305155458832
    H            2.115056863747    -1.650900821190     0.623921387135
    H            1.548213513630    -0.355373121618     1.646456970383
    C            3.642790597195     0.604146899270     0.097152155591
    H            2.185943746079    -0.090671718785    -1.323883221470
    H            1.619122027524     1.206573178296    -0.308193459473
    H            4.089197283172     1.327746883055    -0.577490489819
    H            4.260049668101    -0.289694776738     0.078814269352
    H            3.688499171534     1.016349553148     1.101166398103

  Mulliken Charges: (a.u.)
   Center  Symbol    Alpha    Beta     Spin     Total
       1     O     4.28316  4.28316  0.00000 -0.56631
       2     C     2.61918  2.61918  0.00000  0.76163
       3     C     3.28186  3.28186  0.00000 -0.56373
       4     O     4.30892  4.30892  0.00000 -0.61784
       5     H     0.40107  0.40107  0.00000  0.19786
       6     H     0.39692  0.39692  0.00000  0.20616
       7     H     0.40041  0.40041  0.00000  0.19918
       8     C     3.00451  3.00451  0.00000 -0.00903
       9     C     3.16425  3.16425  0.00000 -0.32851
      10     H     0.40464  0.40464  0.00000  0.19072
      11     H     0.41193  0.41193  0.00000  0.17615
      12     C     3.15540  3.15540  0.00000 -0.31079
      13     H     0.41837  0.41837  0.00000  0.16326
      14     H     0.41423  0.41423  0.00000  0.17154
      15     C     3.24032  3.24032  0.00000 -0.48064
      16     H     0.42211  0.42211  0.00000  0.15578
      17     H     0.41321  0.41321  0.00000  0.17358
      18     H     0.41748  0.41748  0.00000  0.16503
      19     H     0.42153  0.42153  0.00000  0.15695
      20     H     0.42050  0.42050  0.00000  0.15900

   Total alpha = 32.00000, Total beta = 32.00000, Total charge =  0.00000
