  ==> Input File <==

--------------------------------------------------------------------------
set {
	reference rhf
	basis cc-pvtz
}

set_num_threads( 4 )
memory 2 gb

molecule MOL {
0 1

H	 -3.294565	 0.569785	 0.000000
C	 -2.246225	 0.343737	 0.000000
C	 -1.809462	 -0.973484	 0.000000
C	 -1.312577	 1.353775	 0.000000
H	 -2.523539	 -1.775124	 0.000000
C	 -0.467257	 -1.267606	 0.000000
H	 -1.631287	 2.379013	 0.000000
C	 0.046966	 1.074396	 0.000000
H	 -0.119372	 -2.281828	 0.000000
C	 0.471772	 -0.241514	 0.000000
H	 0.748162	 1.882966	 0.000000
O	 1.760432	 -0.625184	 0.000000
C	 2.310491	 -1.220479	 -1.136318
H	 1.803317	 -2.145861	 -1.385616
H	 3.340120	 -1.436816	 -0.898767
H	 2.277470	 -0.553289	 -1.990410

	symmetry c1
}
set optking {
	frozen_dihedral = ("
		13 12 10 8
	")
}

ee = optimize('scf')
oeprop('DIPOLE', 'QUADRUPOLE', 'MULLIKEN_CHARGES')
f=open( 'psi4out.xyz', 'w' )
f.write( "16  " )
f.write( str(ee) + "\n" )
f.write( MOL.save_string_xyz() )
f.close()
--------------------------------------------------------------------------

    Molecular point group: c1
  Charge       = 0
  Multiplicity = 1
  Basis Set: CC-PVTZ
  Basis Set:
  @DF-RHF Final Energy:  -344.69790080634698
    Total Energy =                       -344.6979008063473202
    Molecular point group: c1
  Basis Set: CC-PVTZ
  Basis Set:
  Basis Set: CC-PVTZ
  Basis Set:
  @DF-RHF Final Energy:  -344.70070750425162
    Total Energy =                       -344.7007075042514543
  Basis Set: CC-PVTZ
  Basis Set:
  Basis Set: CC-PVTZ
  Basis Set:
  @DF-RHF Final Energy:  -344.70098138356707
    Total Energy =                       -344.7009813835670684
  Basis Set: CC-PVTZ
  Basis Set:
  Basis Set: CC-PVTZ
  Basis Set:
  @DF-RHF Final Energy:  -344.70102313673340
    Total Energy =                       -344.7010231367336814
  Basis Set: CC-PVTZ
  Basis Set:
  Charge       = 0
  Multiplicity = 1
  Basis Set: CC-PVTZ
  Basis Set:

    Orbital Energies (a.u.)
    -----------------------

    Doubly Occupied:

       1A    -20.567476     2A    -11.286089     3A    -11.274331
       4A    -11.232222     5A    -11.231532     6A    -11.224848
       7A    -11.223659     8A    -11.222924     9A     -1.405669
      10A     -1.152950    11A     -1.021678    12A     -1.018858
      13A     -0.935947    14A     -0.838810    15A     -0.810150
      16A     -0.718932    17A     -0.669643    18A     -0.667673
      19A     -0.640510    20A     -0.615600    21A     -0.600124
      22A     -0.588069    23A     -0.532792    24A     -0.510639
      25A     -0.508414    26A     -0.488295    27A     -0.442455
      28A     -0.340359    29A     -0.324655

  @DF-RHF Final Energy:  -344.70102946097967

   => Energetics <=

    Nuclear Repulsion Energy =            348.7075959220963455
    One-Electron Energy =               -1158.6266413302128058
    Two-Electron Energy =                 465.2180159471370189
    DFT Exchange-Correlation Energy =       0.0000000000000000
    Empirical Dispersion Energy =           0.0000000000000000
    PCM Polarization Energy =               0.0000000000000000
    EFP Energy =                            0.0000000000000000
    Total Energy =                       -344.7010294609794983
    Molecular point group: c1
  Basis Set: CC-PVTZ
  Basis Set:

  -Total Gradient:
     Atom            X                  Y                   Z
    ------   -----------------  -----------------  -----------------
       1       -0.000037607934    -0.000099238305     0.000011739601
       2        0.000134260311     0.000330448113     0.000059755236
       3        0.000283103321    -0.000187542672    -0.000087277373
       4       -0.000388113903    -0.000073368197    -0.000067019574
       5       -0.000055426533     0.000029552177     0.000018218600
       6       -0.000184540435    -0.000152016429     0.000045273588
       7        0.000036655849    -0.000040575221     0.000008572015
       8        0.000185453960    -0.000169490988     0.000197128730
       9       -0.000046146915     0.000013012268     0.000009478155
      10       -0.000234429069     0.000515122940    -0.000304067321
      11        0.000052891767    -0.000060148169     0.000017146795
      12        0.000244277046     0.000090065922     0.000161350458
      13       -0.000003124381    -0.000201759690    -0.000102108646
      14        0.000007242672     0.000005918116     0.000027591746
      15        0.000000759684    -0.000006881228     0.000001745815
      16        0.000004744558     0.000006901364     0.000002472172

  **** Optimization is complete! (in 5 steps) ****
    Final optimized geometry and variables:
    Molecular point group: c1

    Geometry (in Angstrom), charge = 0, multiplicity = 1:

    H           -3.214487799537     0.838600283016     0.159238571302
    C           -2.171939336148     0.585554788975     0.156896119637
    C           -1.777870515961    -0.740028058756     0.173549238130
    C           -1.212608705862     1.579091832536     0.145549429842
    H           -2.516679699216    -1.518553656723     0.193374276131
    C           -0.437755685124    -1.072867196290     0.176999671704
    H           -1.507632583426     2.611082763987     0.139310522502
    C            0.131552477956     1.254476081488     0.143045882473
    H           -0.130499814506    -2.100170946019     0.210517220203
    C            0.517711636700    -0.071595833686     0.155594502421
    H            0.886514298962     2.016341252047     0.141343033511
    O            1.842510674738    -0.369870085020     0.196668143225
    C            2.395700214815    -0.926862377969    -0.966197141549
    H            1.932980298252    -1.875097694708    -1.213856569417
    H            3.444845049476    -1.086959213637    -0.769350458341
    H            2.287425457252    -0.251740306417    -1.808451967726

  Mulliken Charges: (a.u.)
   Center  Symbol    Alpha    Beta     Spin     Total
       1     H     0.42360  0.42360  0.00000  0.15280
       2     C     3.08896  3.08896  0.00000 -0.17792
       3     C     3.06788  3.06788  0.00000 -0.13577
       4     C     3.06461  3.06461  0.00000 -0.12921
       5     H     0.42232  0.42232  0.00000  0.15535
       6     C     3.11783  3.11783  0.00000 -0.23565
       7     H     0.42209  0.42209  0.00000  0.15583
       8     C     3.11302  3.11302  0.00000 -0.22605
       9     H     0.42043  0.42043  0.00000  0.15915
      10     C     2.85173  2.85173  0.00000  0.29653
      11     H     0.41766  0.41766  0.00000  0.16469
      12     O     4.18073  4.18073  0.00000 -0.36147
      13     C     3.03293  3.03293  0.00000 -0.06586
      14     H     0.46563  0.46563  0.00000  0.06873
      15     H     0.44493  0.44493  0.00000  0.11013
      16     H     0.46564  0.46564  0.00000  0.06872

   Total alpha = 29.00000, Total beta = 29.00000, Total charge = -0.00000
