  ==> Input File <==

--------------------------------------------------------------------------
set {
	reference rhf
	basis cc-pvtz
}

set_num_threads( 4 )
memory 2 gb

molecule MOL {
0 1

H	 -2.698799	 -0.000846	 0.036018
C	 -1.694291	 -0.000483	 0.434279
O	 -0.828718	 -0.000608	 -0.655022
H	 -1.576855	 0.881100	 1.056504
H	 -1.576401	 -0.881658	 1.057001
C	 0.557892	 0.000078	 -0.420099
C	 1.330317	 -0.789336	 -1.471031
C	 1.117893	 1.404363	 -0.223547
H	 0.649576	 -0.526574	 0.521628
H	 0.883818	 -1.765905	 -1.612488
H	 2.355304	 -0.927536	 -1.146919
H	 1.356451	 -0.281377	 -2.428047
H	 0.524138	 1.949091	 0.500173
H	 2.135209	 1.345932	 0.145813
H	 1.138285	 1.970550	 -1.147429

	symmetry c1
}
set optking {
	frozen_dihedral = ("
		9 6 3 2
	")
}

ee = optimize('scf')
oeprop('DIPOLE', 'QUADRUPOLE', 'MULLIKEN_CHARGES')
f=open( 'psi4out.xyz', 'w' )
f.write( "15  " )
f.write( str(ee) + "\n" )
f.write( MOL.save_string_xyz() )
f.close()
--------------------------------------------------------------------------

    Molecular point group: c1
  Charge       = 0
  Multiplicity = 1
  Basis Set: CC-PVTZ
  Basis Set:
  @DF-RHF Final Energy:  -232.22592087033738
    Total Energy =                       -232.2259208703374043
    Molecular point group: c1
  Basis Set: CC-PVTZ
  Basis Set:
  Basis Set: CC-PVTZ
  Basis Set:
  @DF-RHF Final Energy:  -232.22914923855794
    Total Energy =                       -232.2291492385577953
  Basis Set: CC-PVTZ
  Basis Set:
  Basis Set: CC-PVTZ
  Basis Set:
  @DF-RHF Final Energy:  -232.22979104477082
    Total Energy =                       -232.2297910447707636
  Basis Set: CC-PVTZ
  Basis Set:
  Basis Set: CC-PVTZ
  Basis Set:
  @DF-RHF Final Energy:  -232.22981440414870
    Total Energy =                       -232.2298144041489536
  Basis Set: CC-PVTZ
  Basis Set:
  Basis Set: CC-PVTZ
  Basis Set:
  @DF-RHF Final Energy:  -232.22981745132932
    Total Energy =                       -232.2298174513293816
  Basis Set: CC-PVTZ
  Basis Set:
  Charge       = 0
  Multiplicity = 1
  Basis Set: CC-PVTZ
  Basis Set:

    Orbital Energies (a.u.)
    -----------------------

    Doubly Occupied:

       1A    -20.543591     2A    -11.272659     3A    -11.261427
       4A    -11.206614     5A    -11.204913     6A     -1.377985
       7A     -1.053659     8A     -0.939554     9A     -0.917441
      10A     -0.795076    11A     -0.672691    12A     -0.642088
      13A     -0.638314    14A     -0.585058    15A     -0.550967
      16A     -0.541667    17A     -0.533497    18A     -0.498854
      19A     -0.490016    20A     -0.457691    21A     -0.409399

  @DF-RHF Final Energy:  -232.22981756848012

   => Energetics <=

    Nuclear Repulsion Energy =            197.4117670152095627
    One-Electron Energy =                -706.0968441393069952
    Two-Electron Energy =                 276.4552595556172037
    DFT Exchange-Correlation Energy =       0.0000000000000000
    Empirical Dispersion Energy =           0.0000000000000000
    PCM Polarization Energy =               0.0000000000000000
    EFP Energy =                            0.0000000000000000
    Total Energy =                       -232.2298175684802573
    Molecular point group: c1
  Basis Set: CC-PVTZ
  Basis Set:

  -Total Gradient:
     Atom            X                  Y                   Z
    ------   -----------------  -----------------  -----------------
       1        0.000009778378    -0.000000522939    -0.000009936188
       2       -0.000018177723    -0.000836084746     0.000005141868
       3        0.000018579662     0.001427820165     0.000156980560
       4        0.000002644629    -0.000001598659    -0.000005568582
       5        0.000000230647     0.000003576145    -0.000004645740
       6        0.000086073434    -0.001469306136    -0.000623675779
       7        0.000020084754     0.000005442822    -0.000007009216
       8        0.000009701887    -0.000002483561    -0.000004943201
       9       -0.000104814965     0.000875453070     0.000505322549
      10       -0.000000005700    -0.000003664109     0.000004314265
      11       -0.000016308558     0.000006729865    -0.000000522392
      12        0.000004167508     0.000000523011    -0.000010613586
      13       -0.000005060996    -0.000003535578     0.000003670278
      14       -0.000009157438    -0.000004960402    -0.000006482273
      15        0.000002264475     0.000002611053    -0.000002032563

  **** Optimization is complete! (in 6 steps) ****
    Final optimized geometry and variables:
    Molecular point group: c1

    Geometry (in Angstrom), charge = 0, multiplicity = 1:

    H           -2.765943489913    -0.084148549777     0.407365611661
    C           -1.768175904939    -0.108721733969     0.821637024938
    O           -0.871971136396    -0.114064062533    -0.239773588680
    H           -1.642656164221     0.759437362743     1.463518889389
    H           -1.666961011637    -1.003709036444     1.431318081935
    C            0.490595578240    -0.143461267560     0.099942920391
    C            1.216637561597    -0.913280477875    -0.988248015954
    C            1.035277026465     1.270025871726     0.263170869412
    H            0.608096943436    -0.671002119450     1.045184648851
    H            0.826715850650    -1.920340740885    -1.063820447953
    H            2.278732621562    -0.967795672563    -0.778461456951
    H            1.080049799618    -0.424690199474    -1.945911690361
    H            0.496351086956     1.813685112427     1.029549278114
    H            2.082071919597     1.247363344342     0.544925724896
    H            0.941126021724     1.816473453596    -0.668012948842

  Mulliken Charges: (a.u.)
   Center  Symbol    Alpha    Beta     Spin     Total
       1     H     0.44775  0.44775  0.00000  0.10449
       2     C     3.03417  3.03417  0.00000 -0.06833
       3     O     4.18530  4.18530  0.00000 -0.37059
       4     H     0.47225  0.47225  0.00000  0.05550
       5     H     0.47017  0.47017  0.00000  0.05967
       6     C     2.91970  2.91970  0.00000  0.16060
       7     C     3.13990  3.13990  0.00000 -0.27980
       8     C     3.14399  3.14399  0.00000 -0.28797
       9     H     0.46936  0.46936  0.00000  0.06128
      10     H     0.44872  0.44872  0.00000  0.10255
      11     H     0.45851  0.45851  0.00000  0.08298
      12     H     0.45214  0.45214  0.00000  0.09571
      13     H     0.45173  0.45173  0.00000  0.09654
      14     H     0.45379  0.45379  0.00000  0.09242
      15     H     0.45253  0.45253  0.00000  0.09495

   Total alpha = 21.00000, Total beta = 21.00000, Total charge = -0.00000
