  ==> Input File <==

--------------------------------------------------------------------------
set {
	reference rhf
	basis cc-pvtz
}

set_num_threads( 4 )
memory 2 gb

molecule MOL {
0 1

O	 -0.850968	 -0.721466	 -2.180959
C	 -0.296054	 -0.924218	 -1.154893
C	 0.939117	 -1.772906	 -0.987742
O	 -0.695554	 -0.422406	 0.000602
C	 1.440369	 -2.374296	 -2.290834
H	 0.703215	 -2.543500	 -0.262148
H	 1.695842	 -1.150355	 -0.523269
H	 0.688404	 -3.007564	 -2.742206
H	 2.325833	 -2.971039	 -2.108623
H	 1.690054	 -1.601758	 -3.005724
C	 -1.852370	 0.402254	 0.000718
C	 -3.063338	 -0.501097	 -0.000437
H	 -1.831732	 1.039442	 -0.872158
H	 -1.832493	 1.038301	 0.874430
H	 -3.071944	 -1.133732	 -0.879113
H	 -3.966302	 0.097976	 -0.000483
H	 -3.072764	 -1.134834	 0.877435

	symmetry c1
}
set optking {
	frozen_dihedral = ("
		2 4 11 13
	")
}

ee = optimize('scf')
oeprop('DIPOLE', 'QUADRUPOLE', 'MULLIKEN_CHARGES')
f=open( 'psi4out.xyz', 'w' )
f.write( "17  " )
f.write( str(ee) + "\n" )
f.write( MOL.save_string_xyz() )
f.close()
--------------------------------------------------------------------------

    Molecular point group: c1
  Charge       = 0
  Multiplicity = 1
  Basis Set: CC-PVTZ
  Basis Set:
  @DF-RHF Final Energy:  -345.03777073997941
    Total Energy =                       -345.0377707399792939
    Molecular point group: c1
  Basis Set: CC-PVTZ
  Basis Set:
  Basis Set: CC-PVTZ
  Basis Set:
  @DF-RHF Final Energy:  -345.03929508514346
    Total Energy =                       -345.0392950851439764
  Basis Set: CC-PVTZ
  Basis Set:
  Basis Set: CC-PVTZ
  Basis Set:
  @DF-RHF Final Energy:  -345.03739696619647
    Total Energy =                       -345.0373969661962974
  Basis Set: CC-PVTZ
  Basis Set:
  Basis Set: CC-PVTZ
  Basis Set:
  @DF-RHF Final Energy:  -345.03958513595950
    Total Energy =                       -345.0395851359596691
  Basis Set: CC-PVTZ
  Basis Set:
  Basis Set: CC-PVTZ
  Basis Set:
  @DF-RHF Final Energy:  -345.03960115201880
    Total Energy =                       -345.0396011520188040
  Basis Set: CC-PVTZ
  Basis Set:
  Charge       = 0
  Multiplicity = 1
  Basis Set: CC-PVTZ
  Basis Set:

    Orbital Energies (a.u.)
    -----------------------

    Doubly Occupied:

       1A    -20.592825     2A    -20.532850     3A    -11.364442
       4A    -11.282534     5A    -11.235687     6A    -11.216264
       7A    -11.213792     8A     -1.469407     9A     -1.364910
      10A     -1.069728    11A     -1.029002    12A     -0.916632
      13A     -0.854236    14A     -0.761096    15A     -0.704617
      16A     -0.683210    17A     -0.662808    18A     -0.621561
      19A     -0.611038    20A     -0.570166    21A     -0.548677
      22A     -0.533803    23A     -0.521655    24A     -0.516361
      25A     -0.497588    26A     -0.491654    27A     -0.453422
      28A     -0.439040

  @DF-RHF Final Energy:  -345.03960176140652

   => Energetics <=

    Nuclear Repulsion Energy =            318.9336688942303226
    One-Electron Energy =               -1102.4285338158767900
    Two-Electron Energy =                 438.4552631602397810
    DFT Exchange-Correlation Energy =       0.0000000000000000
    Empirical Dispersion Energy =           0.0000000000000000
    PCM Polarization Energy =               0.0000000000000000
    EFP Energy =                            0.0000000000000000
    Total Energy =                       -345.0396017614066864
    Molecular point group: c1
  Basis Set: CC-PVTZ
  Basis Set:

  -Total Gradient:
     Atom            X                  Y                   Z
    ------   -----------------  -----------------  -----------------
       1       -0.000024168475     0.000023085650     0.000027695856
       2       -0.000111051153    -0.000235103071     0.000036639448
       3       -0.000027866066    -0.000025272447    -0.000009369506
       4        0.000287805552     0.000281610798    -0.000014437642
       5        0.000029254592     0.000001502726    -0.000002207245
       6        0.000011659040     0.000010543916     0.000002135466
       7        0.000007695626     0.000004901257    -0.000007150426
       8       -0.000002870600     0.000000116418     0.000003878250
       9        0.000003231479    -0.000004863387    -0.000006931018
      10       -0.000002014854    -0.000005149444     0.000002735710
      11       -0.000301909979    -0.000233497925    -0.000167193528
      12        0.000049658484    -0.000020618034    -0.000019654932
      13        0.000110981969     0.000197072240     0.000148460495
      14       -0.000025232149    -0.000016972616    -0.000006383612
      15        0.000005479035     0.000005598138     0.000005075210
      16        0.000001664369     0.000017603217     0.000008966113
      17       -0.000012316875    -0.000000557436    -0.000002258639

  **** Optimization is complete! (in 6 steps) ****
    Final optimized geometry and variables:
    Molecular point group: c1

    Geometry (in Angstrom), charge = 0, multiplicity = 1:

    O           -0.185475171964     0.155998227221    -1.258465819176
    C            0.355078600073    -0.034925185403    -0.222203294133
    C            1.599567695821    -0.865935729487    -0.034789793900
    O           -0.062718954351     0.465636506701     0.927714363680
    C            2.128667512991    -1.464327583969    -1.328235843117
    H            1.363508389056    -1.637416969390     0.689777559621
    H            2.340385256083    -0.231513633281     0.439032318644
    H            1.392814984947    -2.110036645123    -1.788500172343
    H            3.019849257687    -2.047562502119    -1.130772689640
    H            2.377842591398    -0.690682954742    -2.042067832169
    C           -1.231451769098     1.276553256307     0.938178207104
    C           -2.495056484416     0.443422228036     0.995470663482
    H           -1.226560701268     1.919185758709     0.071457118667
    H           -1.133014245848     1.884644162056     1.824930172221
    H           -2.603142051104    -0.158370806410     0.103757191885
    H           -3.356918494847     1.096716721570     1.072280671878
    H           -2.484166712631    -0.208316639496     1.860794751530

  Mulliken Charges: (a.u.)
   Center  Symbol    Alpha    Beta     Spin     Total
       1     O     4.19924  4.19924  0.00000 -0.39848
       2     C     2.80201  2.80201  0.00000  0.39598
       3     C     3.09399  3.09399  0.00000 -0.18797
       4     O     4.15678  4.15678  0.00000 -0.31355
       5     C     3.13984  3.13984  0.00000 -0.27968
       6     H     0.44209  0.44209  0.00000  0.11583
       7     H     0.44150  0.44150  0.00000  0.11700
       8     H     0.44870  0.44870  0.00000  0.10260
       9     H     0.45054  0.45054  0.00000  0.09892
      10     H     0.44846  0.44846  0.00000  0.10307
      11     C     2.98775  2.98775  0.00000  0.02450
      12     C     3.14937  3.14937  0.00000 -0.29874
      13     H     0.44952  0.44952  0.00000  0.10096
      14     H     0.44472  0.44472  0.00000  0.11057
      15     H     0.44198  0.44198  0.00000  0.11604
      16     H     0.45122  0.45122  0.00000  0.09757
      17     H     0.45230  0.45230  0.00000  0.09539

   Total alpha = 28.00000, Total beta = 28.00000, Total charge = -0.00000
