  ==> Input File <==

--------------------------------------------------------------------------
set {
	reference rhf
	basis 6-31G*
}

set_num_threads( 1 )
memory 2 gb

molecule MOL {
0 1

H	 2.126360	 -2.893689	 -0.553910
O	 2.902309	 -2.592330	 -1.003530
C	 2.605529	 -2.361208	 -2.357250
C	 1.761573	 -1.111567	 -2.582773
H	 3.561231	 -2.251266	 -2.853455
H	 2.113187	 -3.229779	 -2.793100
C	 0.365442	 -1.182599	 -1.959360
H	 2.297831	 -0.256051	 -2.180422
H	 1.670735	 -0.952944	 -3.656064
C	 -0.475719	 0.063680	 -2.249281
H	 0.460348	 -1.314442	 -0.885127
H	 -0.156081	 -2.061601	 -2.338451
C	 -1.913329	 0.007759	 -1.719668
H	 0.025685	 0.937720	 -1.837583
H	 -0.511236	 0.214400	 -3.326185
C	 -2.037799	 -0.007733	 -0.193645
H	 -2.452429	 0.871761	 -2.102665
H	 -2.414235	 -0.867129	 -2.131374
C	 -3.489788	 0.042957	 0.286558
H	 -1.493993	 0.840600	 0.219535
H	 -1.565031	 -0.899207	 0.211409
C	 -4.216917	 1.317354	 -0.141063
H	 -4.025645	 -0.823308	 -0.095450
H	 -3.513059	 -0.038752	 1.371301
H	 -4.239342	 1.411634	 -1.223113
H	 -5.243387	 1.322503	 0.212445
H	 -3.726170	 2.201406	 0.256408

	symmetry c1
}
set optking {
	frozen_dihedral = ("
		14 10 7 4,
		14 10 13 16,
		10 7 4 8,
		8 4 3 2,
		10 13 16 20,
		4 3 2 1
	")
}

ee = energy('scf')
oeprop('DIPOLE', 'QUADRUPOLE', 'MULLIKEN_CHARGES')
f=open( 'psi4out.xyz', 'w' )
f.write( "27  " )
f.write( str(ee) + "\n" )
f.write( MOL.save_string_xyz() )
f.close()
--------------------------------------------------------------------------

    Molecular point group: c1

    Geometry (in Angstrom), charge = 0, multiplicity = 1:

       Center              X                  Y                   Z               Mass
    ------------   -----------------  -----------------  -----------------  -----------------
           H          2.584411134027    -2.216784635093     0.759644809953     1.007825032070
           O          3.360360134027    -1.915425635093     0.310024809953    15.994914619560
           C          3.063580134027    -1.684303635093    -1.043695190047    12.000000000000
           C          2.219624134027    -0.434662635093    -1.269218190047    12.000000000000
           H          4.019282134027    -1.574361635093    -1.539900190047     1.007825032070
           H          2.571238134027    -2.552874635093    -1.479545190047     1.007825032070
           C          0.823493134027    -0.505694635093    -0.645805190047    12.000000000000
           H          2.755882134027     0.420853364907    -0.866867190047     1.007825032070
           H          2.128786134027    -0.276039635093    -2.342509190047     1.007825032070
           C         -0.017667865973     0.740584364907    -0.935726190047    12.000000000000
           H          0.918399134027    -0.637537635093     0.428427809953     1.007825032070
           H          0.301970134027    -1.384696635093    -1.024896190047     1.007825032070
           C         -1.455277865973     0.684663364907    -0.406113190047    12.000000000000
           H          0.483736134027     1.614624364907    -0.524028190047     1.007825032070
           H         -0.053184865973     0.891304364907    -2.012630190047     1.007825032070
           C         -1.579747865973     0.669171364907     1.119909809953    12.000000000000
           H         -1.994377865973     1.548665364907    -0.789110190047     1.007825032070
           H         -1.956183865973    -0.190224635093    -0.817819190047     1.007825032070
           C         -3.031736865973     0.719861364907     1.600112809953    12.000000000000
           H         -1.035941865973     1.517504364907     1.533089809953     1.007825032070
           H         -1.106979865973    -0.222302635093     1.524963809953     1.007825032070
           C         -3.758865865973     1.994258364907     1.172491809953    12.000000000000
           H         -3.567593865973    -0.146403635093     1.218104809953     1.007825032070
           H         -3.055007865973     0.638152364907     2.684855809953     1.007825032070
           H         -3.781290865973     2.088538364907     0.090441809953     1.007825032070
           H         -4.785335865973     1.999407364907     1.525999809953     1.007825032070
           H         -3.268118865973     2.878310364907     1.569962809953     1.007825032070

  Charge       = 0
  Multiplicity = 1
  Basis Set: 6-31G*
  Basis Set:

    Orbital Energies (a.u.)
    -----------------------

    Doubly Occupied:

       1A    -20.552217     2A    -11.266965     3A    -11.219620
       4A    -11.217158     5A    -11.216193     6A    -11.215099
       7A    -11.214945     8A    -11.214239     9A    -11.208527
      10A     -1.358961    11A     -1.096090    12A     -1.062196
      13A     -1.008962    14A     -0.945742    15A     -0.893539
      16A     -0.828059    17A     -0.798146    18A     -0.770504
      19A     -0.693631    20A     -0.646308    21A     -0.633785
      22A     -0.619435    23A     -0.609108    24A     -0.587875
      25A     -0.578742    26A     -0.554500    27A     -0.538587
      28A     -0.527829    29A     -0.504093    30A     -0.498042
      31A     -0.486608    32A     -0.473422    33A     -0.469207
      34A     -0.460237    35A     -0.448129    36A     -0.440950
      37A     -0.423117

  @DF-RHF Final Energy:  -388.27899613971431

   => Energetics <=

    Nuclear Repulsion Energy =            462.6372564218390835
    One-Electron Energy =               -1443.2709339272403213
    Two-Electron Energy =                 592.3546813656870427
    DFT Exchange-Correlation Energy =       0.0000000000000000
    Empirical Dispersion Energy =           0.0000000000000000
    PCM Polarization Energy =               0.0000000000000000
    EFP Energy =                            0.0000000000000000
    Total Energy =                       -388.2789961397141951

  Mulliken Charges: (a.u.)
   Center  Symbol    Alpha    Beta     Spin     Total
       1     H     0.27990  0.27990  0.00000  0.44020
       2     O     4.37096  4.37096  0.00000 -0.74192
       3     C     2.99734  2.99734  0.00000  0.00531
       4     C     3.16092  3.16092  0.00000 -0.32183
       5     H     0.41446  0.41446  0.00000  0.17108
       6     H     0.43207  0.43207  0.00000  0.13587
       7     C     3.16337  3.16337  0.00000 -0.32675
       8     H     0.41499  0.41499  0.00000  0.17001
       9     H     0.42436  0.42436  0.00000  0.15127
      10     C     3.15095  3.15095  0.00000 -0.30191
      11     H     0.42300  0.42300  0.00000  0.15400
      12     H     0.42551  0.42551  0.00000  0.14898
      13     C     3.15695  3.15695  0.00000 -0.31391
      14     H     0.42167  0.42167  0.00000  0.15667
      15     H     0.42170  0.42170  0.00000  0.15660
      16     C     3.15402  3.15402  0.00000 -0.30804
      17     H     0.41844  0.41844  0.00000  0.16313
      18     H     0.42463  0.42463  0.00000  0.15074
      19     C     3.15220  3.15220  0.00000 -0.30439
      20     H     0.42382  0.42382  0.00000  0.15236
      21     H     0.42177  0.42177  0.00000  0.15645
      22     C     3.24278  3.24278  0.00000 -0.48556
      23     H     0.42346  0.42346  0.00000  0.15307
      24     H     0.42042  0.42042  0.00000  0.15917
      25     H     0.41972  0.41972  0.00000  0.16055
      26     H     0.41877  0.41877  0.00000  0.16246
      27     H     0.42181  0.42181  0.00000  0.15639

   Total alpha = 37.00000, Total beta = 37.00000, Total charge = -0.00000
