                              Psi4 1.0.54 Driver

  ==> Input File <==

--------------------------------------------------------------------------
set {
	reference rhf
	basis cc-pvtz
}

set_num_threads( 4 )
memory 2 gb

molecule MOL {
0 1

H	 2.582791	 -2.011624	 0.614957
O	 3.292123	 -1.866326	 0.016987
C	 2.966853	 -2.366723	 -1.253082
C	 1.933548	 -1.527140	 -1.989335
H	 3.892138	 -2.374806	 -1.813227
H	 2.626221	 -3.397702	 -1.178917
C	 0.554366	 -1.513256	 -1.333963
H	 2.309285	 -0.511725	 -2.072468
H	 1.847005	 -1.915644	 -3.001251
C	 -0.464519	 -0.687743	 -2.118335
H	 0.639921	 -1.119387	 -0.326715
H	 0.189657	 -2.534809	 -1.240673
C	 -1.883368	 -0.699318	 -1.546506
H	 -0.114119	 0.339193	 -2.187971
H	 -0.502038	 -1.063486	 -3.137098
C	 -2.041121	 -0.006551	 -0.194127
H	 -2.542953	 -0.215249	 -2.261456
H	 -2.229167	 -1.727494	 -1.466313
C	 -3.489218	 0.042606	 0.286507
H	 -1.653250	 1.007416	 -0.264087
H	 -1.440234	 -0.511020	 0.556506
C	 -4.219984	 1.311773	 -0.139038
H	 -4.022855	 -0.824300	 -0.093339
H	 -3.510372	 -0.038577	 1.370031
H	 -4.244251	 1.405725	 -1.219696
H	 -5.244345	 1.313233	 0.215630
H	 -3.732090	 2.196311	 0.257073

	symmetry c1
}
set optking {
	frozen_dihedral = ("
		20 16 19 22
	")
}

ee,wfn = optimize('scf', return_wfn=True)
oeprop( wfn, 'DIPOLE', 'QUADRUPOLE', 'MULLIKEN_CHARGES')
f=open( 'psi4out.xyz', 'w' )
f.write( "27  " )
f.write( str(ee) + "\n" )
f.write( MOL.save_string_xyz() )
f.close()
--------------------------------------------------------------------------

    Molecular point group: c1
  Charge       = 0
  Multiplicity = 1
  Basis Set: CC-PVTZ
  Basis Set:
  @DF-RHF Final Energy:  -388.42408808845380
    Total Energy =                       -388.4240880884536864
    Molecular point group: c1
  Basis Set: CC-PVTZ
  Basis Set:
  Basis Set: CC-PVTZ
  Basis Set:
  @DF-RHF Final Energy:  -388.42429904799798
    Total Energy =                       -388.4242990479976925
  Basis Set: CC-PVTZ
  Basis Set:
  Basis Set: CC-PVTZ
  Basis Set:
  @DF-RHF Final Energy:  -388.42437592112771
    Total Energy =                       -388.4243759211277620
  Basis Set: CC-PVTZ
  Basis Set:
  Basis Set: CC-PVTZ
  Basis Set:
  @DF-RHF Final Energy:  -388.42436563135374
    Total Energy =                       -388.4243656313534530
  Basis Set: CC-PVTZ
  Basis Set:
  Basis Set: CC-PVTZ
  Basis Set:
  @DF-RHF Final Energy:  -388.42438575071952
    Total Energy =                       -388.4243857507191251
  Basis Set: CC-PVTZ
  Basis Set:
  Charge       = 0
  Multiplicity = 1
  Basis Set: CC-PVTZ
  Basis Set:

    Orbital Energies (a.u.)
    -----------------------

    Doubly Occupied:

       1A    -20.545310     2A    -11.264946     3A    -11.216702
       4A    -11.214489     5A    -11.213921     6A    -11.213205
       7A    -11.213183     8A    -11.211913     9A    -11.207391
      10A     -1.363209    11A     -1.095845    12A     -1.061632
      13A     -1.011060    14A     -0.947985    15A     -0.891125
      16A     -0.824897    17A     -0.800030    18A     -0.775168
      19A     -0.696210    20A     -0.648137    21A     -0.633599
      22A     -0.617585    23A     -0.607590    24A     -0.590893
      25A     -0.579164    26A     -0.554947    27A     -0.539283
      28A     -0.528175    29A     -0.509975    30A     -0.492894
      31A     -0.486300    32A     -0.475471    33A     -0.469897
      34A     -0.460956    35A     -0.449658    36A     -0.440250
      37A     -0.425665

  @DF-RHF Final Energy:  -388.42438580389177

   => Energetics <=

    Nuclear Repulsion Energy =            461.2474447085871248
    One-Electron Energy =               -1440.7863377783448868
    Two-Electron Energy =                 591.1145072658664503
    DFT Exchange-Correlation Energy =       0.0000000000000000
    Empirical Dispersion Energy =           0.0000000000000000
    PCM Polarization Energy =               0.0000000000000000
    EFP Energy =                            0.0000000000000000
    Total Energy =                       -388.4243858038912549
    Molecular point group: c1
  Basis Set: CC-PVTZ
  Basis Set:

  -Total Gradient:
     Atom            X                  Y                   Z
    ------   -----------------  -----------------  -----------------
       1        0.000002794124    -0.000001354891     0.000001174050
       2        0.000002815173     0.000002476753    -0.000001318524
       3       -0.000008371614    -0.000011098366    -0.000000482542
       4       -0.000003221061     0.000001596635    -0.000006814135
       5       -0.000000780505     0.000000625719    -0.000000906571
       6        0.000001666772    -0.000004409415     0.000002311085
       7        0.000004033295     0.000009618068     0.000008210707
       8       -0.000002568181     0.000001503907     0.000004241707
       9        0.000002398609     0.000003101725    -0.000005426118
      10        0.000007101824    -0.000001098120    -0.000005210469
      11       -0.000003671881     0.000005005336     0.000001139397
      12        0.000002008237     0.000003812412     0.000001723538
      13       -0.000004547025    -0.000006703714     0.000011182736
      14        0.000002076180    -0.000000735068     0.000002935514
      15        0.000001887139     0.000000240272    -0.000003669831
      16        0.001402068781     0.000084963946     0.004504661260
      17        0.000001200261     0.000001649937    -0.000001218039
      18       -0.000004718381    -0.000004189004    -0.000000248128
      19       -0.001174173075    -0.001332710680    -0.003481212972
      20       -0.000914191122     0.000253214494    -0.003031198219
      21       -0.000003126833    -0.000000331575     0.000009189636
      22        0.000691803148     0.000993630812     0.001986386417
      23       -0.000000384210    -0.000000903818    -0.000003244764
      24        0.000004550543    -0.000004798525     0.000008742329
      25        0.000001382566     0.000002173012    -0.000009139069
      26       -0.000011115454    -0.000002481308     0.000000852429
      27        0.000003082693     0.000007201457     0.000007338576

  **** Optimization is complete! (in 6 steps) ****
    Final optimized geometry and variables:
    Molecular point group: c1

    Geometry (in Angstrom), charge = 0, multiplicity = 1:

    H            2.911634178919    -1.208259380148     1.494269058215
    O            3.618979259736    -1.058664092840     0.895215266547
    C            3.288284372799    -1.546051593014    -0.378450665950
    C            2.253169868218    -0.698165025192    -1.102406222087
    H            4.211417565342    -1.549709648049    -0.942159331115
    H            2.946723049366    -2.577285398224    -0.313063787221
    C            0.877599449675    -0.685837262414    -0.439619195437
    H            2.631089775994     0.316863501602    -1.179489194338
    H            2.160263084026    -1.078384337084    -2.116878611964
    C           -0.145364301568     0.142358407337    -1.215785634370
    H            0.968278498419    -0.295164043394     0.568457758079
    H            0.513264955263    -1.707583255600    -0.347633073163
    C           -1.563353172936     0.118403593378    -0.642947632071
    H            0.200393452981     1.171503771591    -1.275260922451
    H           -0.181518501046    -0.223403069584    -2.238257388781
    C           -1.717275854688     0.771471127899     0.732891344467
    H           -2.221555853040     0.622081362341    -1.345094070484
    H           -1.911581126627    -0.910517796578    -0.589621426182
    C           -3.181932312266     0.879587315820     1.183318173279
    H           -1.283518870090     1.767128284128     0.684791035323
    H           -1.150532993838     0.212760800056     1.467982072366
    C           -3.856518834147     2.182668661158     0.761967408958
    H           -3.743852776921     0.032912181312     0.800499877727
    H           -3.231386133031     0.807567897211     2.265159256130
    H           -3.830272839542     2.318665757307    -0.314120025200
    H           -4.896062868559     2.202723723940     1.069051052919
    H           -3.360834643607     3.035136319132     1.213456236683

  Mulliken Charges: (a.u.)
   Center  Symbol    Alpha    Beta     Spin     Total
       1     H     0.39231  0.39231  0.00000  0.21538
       2     O     4.20554  4.20554  0.00000 -0.41108
       3     C     2.97994  2.97994  0.00000  0.04011
       4     C     3.08932  3.08932  0.00000 -0.17864
       5     H     0.44856  0.44856  0.00000  0.10287
       6     H     0.46973  0.46973  0.00000  0.06053
       7     C     3.10287  3.10287  0.00000 -0.20574
       8     H     0.45078  0.45078  0.00000  0.09843
       9     H     0.45525  0.45525  0.00000  0.08949
      10     C     3.09812  3.09812  0.00000 -0.19623
      11     H     0.45586  0.45586  0.00000  0.08829
      12     H     0.45362  0.45362  0.00000  0.09276
      13     C     3.09899  3.09899  0.00000 -0.19798
      14     H     0.45134  0.45134  0.00000  0.09733
      15     H     0.44822  0.44822  0.00000  0.10356
      16     C     3.09774  3.09774  0.00000 -0.19549
      17     H     0.44660  0.44660  0.00000  0.10679
      18     H     0.45374  0.45374  0.00000  0.09253
      19     C     3.08969  3.08969  0.00000 -0.17937
      20     H     0.45502  0.45502  0.00000  0.08996
      21     H     0.44709  0.44709  0.00000  0.10582
      22     C     3.14762  3.14762  0.00000 -0.29523
      23     H     0.45470  0.45470  0.00000  0.09060
      24     H     0.44883  0.44883  0.00000  0.10235
      25     H     0.45550  0.45550  0.00000  0.08900
      26     H     0.44838  0.44838  0.00000  0.10324
      27     H     0.45464  0.45464  0.00000  0.09073

   Total alpha = 37.00000, Total beta = 37.00000, Total charge = -0.00000

*** Psi4 exiting successfully. Buy a developer a beer!
