  ==> Input File <==

--------------------------------------------------------------------------
set {
	reference rhf
	basis cc-pvtz
}

set_num_threads( 4 )
memory 2 gb

molecule MOL {
0 1

H	 -3.294565	 0.569785	 0.000000
C	 -2.246225	 0.343737	 0.000000
C	 -1.809462	 -0.973484	 0.000000
C	 -1.312577	 1.353775	 0.000000
H	 -2.523539	 -1.775124	 0.000000
C	 -0.467257	 -1.267606	 0.000000
H	 -1.631287	 2.379013	 0.000000
C	 0.046966	 1.074396	 0.000000
H	 -0.119372	 -2.281828	 0.000000
C	 0.471772	 -0.241514	 0.000000
H	 0.748162	 1.882966	 0.000000
O	 1.760432	 -0.625184	 0.000000
C	 2.088693	 -1.965449	 -0.209983
H	 1.667099	 -2.603385	 0.558786
H	 3.164689	 -2.026048	 -0.166086
H	 1.754719	 -2.309089	 -1.182650

	symmetry c1
}
set optking {
	frozen_dihedral = ("
		13 12 10 8
	")
}

ee = optimize('scf')
oeprop('DIPOLE', 'QUADRUPOLE', 'MULLIKEN_CHARGES')
f=open( 'psi4out.xyz', 'w' )
f.write( "16  " )
f.write( str(ee) + "\n" )
f.write( MOL.save_string_xyz() )
f.close()
--------------------------------------------------------------------------

    Molecular point group: c1
  Charge       = 0
  Multiplicity = 1
  Basis Set: CC-PVTZ
  Basis Set:
  @DF-RHF Final Energy:  -344.69509447104605
    Total Energy =                       -344.6950944710461044
    Molecular point group: c1
  Basis Set: CC-PVTZ
  Basis Set:
  Basis Set: CC-PVTZ
  Basis Set:
  @DF-RHF Final Energy:  -344.69907352476446
    Total Energy =                       -344.6990735247644579
  Basis Set: CC-PVTZ
  Basis Set:
  Basis Set: CC-PVTZ
  Basis Set:
  @DF-RHF Final Energy:  -344.70305584195722
    Total Energy =                       -344.7030558419577915
  Basis Set: CC-PVTZ
  Basis Set:
  Basis Set: CC-PVTZ
  Basis Set:
  @DF-RHF Final Energy:  -344.70352188759529
    Total Energy =                       -344.7035218875951728
  Basis Set: CC-PVTZ
  Basis Set:
  Basis Set: CC-PVTZ
  Basis Set:
  @DF-RHF Final Energy:  -344.70357833640497
    Total Energy =                       -344.7035783364049735
  Basis Set: CC-PVTZ
  Basis Set:
  Basis Set: CC-PVTZ
  Basis Set:
  @DF-RHF Final Energy:  -344.70358440167081
    Total Energy =                       -344.7035844016709234
  Basis Set: CC-PVTZ
  Basis Set:
  Charge       = 0
  Multiplicity = 1
  Basis Set: CC-PVTZ
  Basis Set:

    Orbital Energies (a.u.)
    -----------------------

    Doubly Occupied:

       1A    -20.580120     2A    -11.293517     3A    -11.278465
       4A    -11.231279     5A    -11.230019     6A    -11.221932
       7A    -11.218059     8A    -11.217051     9A     -1.419544
      10A     -1.151004    11A     -1.025660    12A     -1.016694
      13A     -0.944152    14A     -0.834647    15A     -0.808347
      16A     -0.726078    17A     -0.667766    18A     -0.666575
      19A     -0.660544    20A     -0.619321    21A     -0.590340
      22A     -0.579731    23A     -0.528658    24A     -0.523130
      25A     -0.512235    26A     -0.479653    27A     -0.466536
      28A     -0.339781    29A     -0.310331

  @DF-RHF Final Energy:  -344.70358515090805

   => Energetics <=

    Nuclear Repulsion Energy =            348.8979295478705467
    One-Electron Energy =               -1158.9206911506439610
    Two-Electron Energy =                 465.3191764518654736
    DFT Exchange-Correlation Energy =       0.0000000000000000
    Empirical Dispersion Energy =           0.0000000000000000
    PCM Polarization Energy =               0.0000000000000000
    EFP Energy =                            0.0000000000000000
    Total Energy =                       -344.7035851509079976
    Molecular point group: c1
  Basis Set: CC-PVTZ
  Basis Set:

  -Total Gradient:
     Atom            X                  Y                   Z
    ------   -----------------  -----------------  -----------------
       1       -0.000003946228    -0.000001469808     0.000004963932
       2       -0.000009562311    -0.000037749297    -0.000019227706
       3       -0.000026716032     0.000022177525     0.000004084412
       4        0.000048019826    -0.000001301301     0.000019211146
       5       -0.000005056413     0.000002435330     0.000005403756
       6        0.000020094725    -0.000006767734     0.000046997716
       7        0.000003082364    -0.000004914718    -0.000007490231
       8        0.000039703428    -0.000016511263    -0.000762464807
       9       -0.000006547425     0.000001581833     0.000014356508
      10       -0.000095112137     0.000076627237     0.000604400132
      11        0.000015986552     0.000004257717    -0.000002510283
      12       -0.000053576998    -0.000192700277     0.000944169092
      13        0.000079596569     0.000092366357    -0.000864438875
      14       -0.000023050020     0.000033452715    -0.000007024340
      15        0.000004253798     0.000012677784     0.000015987471
      16        0.000012830311     0.000015837896     0.000003582077

  **** Optimization is complete! (in 7 steps) ****
    Final optimized geometry and variables:
    Molecular point group: c1

    Geometry (in Angstrom), charge = 0, multiplicity = 1:

    H           -3.187863576108     1.006625557235     0.028088035377
    C           -2.152954841608     0.725308045580     0.028402090394
    C           -1.788418980875    -0.601130467911     0.022027595783
    C           -1.159752084975     1.694225775497     0.034044665536
    H           -2.542938935979    -1.364913136645     0.017241993748
    C           -0.452765347481    -0.977723109642     0.022369891512
    H           -1.425488572931     2.734371867695     0.036466686097
    C            0.167635092666     1.338269541913     0.032322802931
    H           -0.200901087037    -2.018039505559     0.018891039945
    C            0.529345856762    -0.004381526149     0.029879487045
    H            0.943018580268     2.078866937971     0.034572152873
    O            1.850369017678    -0.257782733656     0.038148669866
    C            2.311348336376    -1.558618122861    -0.173593310791
    H            2.026149736961    -2.220532930445     0.636390412424
    H            3.387627789707    -1.498182742429    -0.212257702680
    H            1.943267245089    -1.961009748512    -1.110701990543

  Mulliken Charges: (a.u.)
   Center  Symbol    Alpha    Beta     Spin     Total
       1     H     0.42440  0.42440  0.00000  0.15121
       2     C     3.10061  3.10061  0.00000 -0.20123
       3     C     3.06150  3.06150  0.00000 -0.12300
       4     C     3.05826  3.05826  0.00000 -0.11652
       5     H     0.42357  0.42357  0.00000  0.15285
       6     C     3.14267  3.14267  0.00000 -0.28534
       7     H     0.42297  0.42297  0.00000  0.15406
       8     C     3.11138  3.11138  0.00000 -0.22276
       9     H     0.42252  0.42252  0.00000  0.15496
      10     C     2.85120  2.85120  0.00000  0.29760
      11     H     0.42082  0.42082  0.00000  0.15837
      12     O     4.15167  4.15167  0.00000 -0.30335
      13     C     3.04500  3.04500  0.00000 -0.09000
      14     H     0.46239  0.46239  0.00000  0.07522
      15     H     0.43900  0.43900  0.00000  0.12201
      16     H     0.46204  0.46204  0.00000  0.07593

   Total alpha = 29.00000, Total beta = 29.00000, Total charge =  0.00000
