  ==> Input File <==

--------------------------------------------------------------------------
set {
	reference rhf
	basis 6-31G*
}

set_num_threads( 1 )
memory 2 gb

molecule MOL {
0 1

H	 3.469408	 4.682644	 -1.656350
C	 2.523650	 4.491028	 -2.153690
C	 1.821682	 3.272776	 -1.555127
H	 1.910719	 5.381856	 -2.053279
H	 2.728988	 4.347510	 -3.211063
C	 0.486503	 2.970124	 -2.238877
H	 1.656005	 3.439319	 -0.495686
H	 2.473767	 2.404789	 -1.639244
C	 -0.231140	 1.744611	 -1.672864
H	 -0.167739	 3.830815	 -2.156275
H	 0.660112	 2.804797	 -3.299805
C	 -0.808040	 1.944246	 -0.279101
H	 -1.066245	 1.477098	 -2.318470
H	 0.425655	 0.877565	 -1.667637
C	 -1.181045	 0.701995	 0.511084
O	 -0.981224	 3.034749	 0.176107
C	 -2.285934	 -0.139295	 -0.145128
H	 -1.496424	 1.033966	 1.492942
H	 -0.289154	 0.090756	 0.635989
C	 -3.651768	 0.085446	 0.506485
H	 -2.346596	 0.110469	 -1.202272
H	 -2.034737	 -1.195320	 -0.088721
C	 -4.759797	 -0.746382	 -0.137905
H	 -3.908762	 1.140117	 0.445781
H	 -3.588286	 -0.154158	 1.565709
H	 -4.868882	 -0.505166	 -1.191300
H	 -4.548009	 -1.809175	 -0.062213
H	 -5.715422	 -0.564821	 0.343442

	symmetry c1
}
set optking {
	frozen_dihedral = ("
		10 6 3 2,
		16 12 15 17
	")
}

ee = energy('scf')
oeprop('DIPOLE', 'QUADRUPOLE', 'MULLIKEN_CHARGES')
f=open( 'psi4out.xyz', 'w' )
f.write( "28  " )
f.write( str(ee) + "\n" )
f.write( MOL.save_string_xyz() )
f.close()
--------------------------------------------------------------------------

    Molecular point group: c1

    Geometry (in Angstrom), charge = 0, multiplicity = 1:

       Center              X                  Y                   Z               Mass
    ------------   -----------------  -----------------  -----------------  -----------------
           H          4.380942023788     2.937533954093    -0.953833769474     1.007825032070
           C          3.435184023788     2.745917954093    -1.451173769474    12.000000000000
           C          2.733216023788     1.527665954093    -0.852610769474    12.000000000000
           H          2.822253023788     3.636745954093    -1.350762769474     1.007825032070
           H          3.640522023788     2.602399954093    -2.508546769474     1.007825032070
           C          1.398037023788     1.225013954093    -1.536360769474    12.000000000000
           H          2.567539023788     1.694208954093     0.206830230526     1.007825032070
           H          3.385301023788     0.659678954093    -0.936727769474     1.007825032070
           C          0.680394023788    -0.000499045907    -0.970347769474    12.000000000000
           H          0.743795023788     2.085704954093    -1.453758769474     1.007825032070
           H          1.571646023788     1.059686954093    -2.597288769474     1.007825032070
           C          0.103494023788     0.199135954093     0.423415230526    12.000000000000
           H         -0.154710976212    -0.268012045907    -1.615953769474     1.007825032070
           H          1.337189023788    -0.867545045907    -0.965120769474     1.007825032070
           C         -0.269510976212    -1.043115045907     1.213600230526    12.000000000000
           O         -0.069689976212     1.289638954093     0.878623230526    15.994914619560
           C         -1.374399976212    -1.884405045907     0.557388230526    12.000000000000
           H         -0.584889976212    -0.711144045907     2.195458230526     1.007825032070
           H          0.622380023788    -1.654354045907     1.338505230526     1.007825032070
           C         -2.740233976212    -1.659664045907     1.209001230526    12.000000000000
           H         -1.435061976212    -1.634641045907    -0.499755769474     1.007825032070
           H         -1.123202976212    -2.940430045907     0.613795230526     1.007825032070
           C         -3.848262976212    -2.491492045907     0.564611230526    12.000000000000
           H         -2.997227976212    -0.604993045907     1.148297230526     1.007825032070
           H         -2.676751976212    -1.899268045907     2.268225230526     1.007825032070
           H         -3.957347976212    -2.250276045907    -0.488783769474     1.007825032070
           H         -3.636474976212    -3.554285045907     0.640303230526     1.007825032070
           H         -4.803887976212    -2.309931045907     1.045958230526     1.007825032070

  Charge       = 0
  Multiplicity = 1
  Basis Set: 6-31G*
  Basis Set:

    Orbital Energies (a.u.)
    -----------------------

    Doubly Occupied:

       1A    -20.548450     2A    -11.322328     3A    -11.230776
       4A    -11.230294     5A    -11.227449     6A    -11.222837
       7A    -11.216840     8A    -11.214077     9A    -11.212562
      10A    -11.205915    11A     -1.393594    12A     -1.094817
      13A     -1.077229    14A     -1.021450    15A     -0.990295
      16A     -0.906262    17A     -0.873344    18A     -0.809479
      19A     -0.799682    20A     -0.723466    21A     -0.670753
      22A     -0.645976    23A     -0.629768    24A     -0.613323
      25A     -0.609765    26A     -0.588030    27A     -0.584314
      28A     -0.573281    29A     -0.537832    30A     -0.533743
      31A     -0.522188    32A     -0.511812    33A     -0.501931
      34A     -0.481723    35A     -0.479185    36A     -0.471947
      37A     -0.466876    38A     -0.461787    39A     -0.454454
      40A     -0.393248

  @DF-RHF Final Energy:  -426.16402408850138

   => Energetics <=

    Nuclear Repulsion Energy =            535.7151145324374966
    One-Electron Energy =               -1639.6521650928084455
    Two-Electron Energy =                 677.7730264718691160
    DFT Exchange-Correlation Energy =       0.0000000000000000
    Empirical Dispersion Energy =           0.0000000000000000
    PCM Polarization Energy =               0.0000000000000000
    EFP Energy =                            0.0000000000000000
    Total Energy =                       -426.1640240885019466

  Mulliken Charges: (a.u.)
   Center  Symbol    Alpha    Beta     Spin     Total
       1     H     0.41929  0.41929  0.00000  0.16143
       2     C     3.24014  3.24014  0.00000 -0.48029
       3     C     3.15653  3.15653  0.00000 -0.31305
       4     H     0.41831  0.41831  0.00000  0.16339
       5     H     0.42359  0.42359  0.00000  0.15283
       6     C     3.14867  3.14867  0.00000 -0.29733
       7     H     0.41047  0.41047  0.00000  0.17907
       8     H     0.42760  0.42760  0.00000  0.14480
       9     C     3.21158  3.21158  0.00000 -0.42315
      10     H     0.40666  0.40666  0.00000  0.18668
      11     H     0.42191  0.42191  0.00000  0.15619
      12     C     2.73551  2.73551  0.00000  0.52898
      13     H     0.40306  0.40306  0.00000  0.19387
      14     H     0.41269  0.41269  0.00000  0.17461
      15     C     3.20420  3.20420  0.00000 -0.40840
      16     O     4.26554  4.26554  0.00000 -0.53108
      17     C     3.16423  3.16423  0.00000 -0.32847
      18     H     0.39799  0.39799  0.00000  0.20401
      19     H     0.40989  0.40989  0.00000  0.18021
      20     C     3.15359  3.15359  0.00000 -0.30718
      21     H     0.41832  0.41832  0.00000  0.16335
      22     H     0.41559  0.41559  0.00000  0.16882
      23     C     3.24065  3.24065  0.00000 -0.48131
      24     H     0.41499  0.41499  0.00000  0.17003
      25     H     0.41955  0.41955  0.00000  0.16090
      26     H     0.42133  0.42133  0.00000  0.15733
      27     H     0.42148  0.42148  0.00000  0.15703
      28     H     0.41663  0.41663  0.00000  0.16674

   Total alpha = 40.00000, Total beta = 40.00000, Total charge = -0.00000
