                              Psi4 1.0.54 Driver

  ==> Input File <==

--------------------------------------------------------------------------
set {
	reference rhf
	basis cc-pvtz
}

set_num_threads( 4 )
memory 2 gb

molecule MOL {
0 1

O	 1.607019	 -0.119422	 0.823973
C	 0.860843	 0.273204	 -0.013120
C	 -0.623368	 -0.117453	 -0.005652
C	 1.377599	 1.172934	 -1.118322
C	 -0.892588	 -1.253841	 -1.002900
C	 -1.473463	 1.100646	 -0.372896
C	 -0.981836	 -0.579025	 1.418506
H	 -0.609333	 -0.970024	 -2.010649
H	 -1.950451	 -1.487353	 -1.013175
H	 -0.360848	 -2.161259	 -0.746463
H	 -1.232203	 1.461623	 -1.364827
H	 -2.524364	 0.834451	 -0.354500
H	 -1.312381	 1.914833	 0.318657
H	 -2.035706	 -0.826342	 1.468082
H	 -0.425078	 -1.458934	 1.716857
H	 -0.788494	 0.205047	 2.140903
H	 1.104792	 2.199166	 -0.898808
H	 2.453742	 1.099825	 -1.150563
H	 0.961054	 0.924492	 -2.084759

	symmetry c1
}
set optking {
	frozen_dihedral = ("
		1 2 3 5
	")
}

ee,wfn = optimize('scf', return_wfn=True)
oeprop( wfn, 'DIPOLE', 'QUADRUPOLE', 'MULLIKEN_CHARGES')
f=open( 'psi4out.xyz', 'w' )
f.write( "19  " )
f.write( str(ee) + "\n" )
f.write( MOL.save_string_xyz() )
f.close()
--------------------------------------------------------------------------

    Molecular point group: c1
  Charge       = 0
  Multiplicity = 1
  Basis Set: CC-PVTZ
  Basis Set:
  @DF-RHF Final Energy:  -309.17314613236226
    Total Energy =                       -309.1731461323621488
    Molecular point group: c1
  Basis Set: CC-PVTZ
  Basis Set:
  Basis Set: CC-PVTZ
  Basis Set:
  @DF-RHF Final Energy:  -309.17324625307725
    Total Energy =                       -309.1732462530775365
  Basis Set: CC-PVTZ
  Basis Set:
  Basis Set: CC-PVTZ
  Basis Set:
  @DF-RHF Final Energy:  -309.17401894444362
    Total Energy =                       -309.1740189444435600
  Basis Set: CC-PVTZ
  Basis Set:
  Basis Set: CC-PVTZ
  Basis Set:
  @DF-RHF Final Energy:  -309.17369639340779
    Total Energy =                       -309.1736963934075675
  Basis Set: CC-PVTZ
  Basis Set:
  @DF-RHF Final Energy:  -309.17387503001146
    Total Energy =                       -309.1738750300115726
  @DF-RHF Final Energy:  -309.17424914566868
    Total Energy =                       -309.1742491456689095
  Basis Set: CC-PVTZ
  Basis Set:
  @DF-RHF Final Energy:  -309.17426484704805
    Total Energy =                       -309.1742648470478798
  Basis Set: CC-PVTZ
  Basis Set:
  Basis Set: CC-PVTZ
  Basis Set:
  @DF-RHF Final Energy:  -309.17426828179765
    Total Energy =                       -309.1742682817971399
  Basis Set: CC-PVTZ
  Basis Set:
  Basis Set: CC-PVTZ
  Basis Set:
  @DF-RHF Final Energy:  -309.17426089471149
    Total Energy =                       -309.1742608947111535
  Basis Set: CC-PVTZ
  Basis Set:
  Charge       = 0
  Multiplicity = 1
  Basis Set: CC-PVTZ
  Basis Set:

    Orbital Energies (a.u.)
    -----------------------

    Doubly Occupied:

       1A    -20.537284     2A    -11.317825     3A    -11.245687
       4A    -11.225292     5A    -11.222257     6A    -11.221735
       7A    -11.206681     8A     -1.398414     9A     -1.110831
      10A     -1.003288    11A     -0.947636    12A     -0.935998
      13A     -0.835675    14A     -0.705464    15A     -0.666745
      16A     -0.634104    17A     -0.621935    18A     -0.598357
      19A     -0.592360    20A     -0.566507    21A     -0.546719
      22A     -0.545713    23A     -0.524831    24A     -0.514533
      25A     -0.502216    26A     -0.472990    27A     -0.467679
      28A     -0.394618

  @DF-RHF Final Energy:  -309.17426880188987

   => Energetics <=

    Nuclear Repulsion Energy =            326.9265042368052718
    One-Electron Energy =               -1067.0747974326518488
    Two-Electron Energy =                 430.9740243939568813
    DFT Exchange-Correlation Energy =       0.0000000000000000
    Empirical Dispersion Energy =           0.0000000000000000
    PCM Polarization Energy =               0.0000000000000000
    EFP Energy =                            0.0000000000000000
    Total Energy =                       -309.1742688018896956
    Molecular point group: c1
  Basis Set: CC-PVTZ
  Basis Set:

  -Total Gradient:
     Atom            X                  Y                   Z
    ------   -----------------  -----------------  -----------------
       1        0.000074413471    -0.000299788857    -0.000215807547
       2       -0.000109698878     0.000360220929     0.000376693193
       3       -0.000037019038     0.000083648785    -0.000344786525
       4       -0.000009173597    -0.000010626535    -0.000035105965
       5        0.000053834735    -0.000192155996     0.000188863618
       6       -0.000001076407     0.000022433144     0.000006994643
       7        0.000004211570    -0.000005185634     0.000007075738
       8        0.000004499213     0.000006275585    -0.000005164065
       9       -0.000000964014     0.000009971693     0.000007865471
      10        0.000009972188    -0.000001050281     0.000006666767
      11       -0.000003235157     0.000004095007    -0.000006840569
      12       -0.000002285062    -0.000000093343     0.000000797651
      13        0.000003085589     0.000002995989    -0.000002167353
      14        0.000000942217     0.000005427367    -0.000003184882
      15        0.000001454352    -0.000001327007    -0.000002010916
      16        0.000000930525     0.000000692026    -0.000000862059
      17        0.000000868327     0.000005507732     0.000010054429
      18        0.000008675994     0.000002416168     0.000006729183
      19        0.000000563966     0.000006543231     0.000004189188

  **** Optimization is complete! (in 10 steps) ****
    Final optimized geometry and variables:
    Molecular point group: c1

    Geometry (in Angstrom), charge = 0, multiplicity = 1:

    O            1.618696573333    -0.179954968128     0.880165775831
    C            0.878512746247     0.208452986270     0.035773467251
    C           -0.609956988553    -0.166931988669     0.048568624289
    C            1.408612218317     1.071725937545    -1.091436232473
    C           -0.802495436538    -1.318638050553    -0.954838151034
    C           -1.487799533670     1.026267164395    -0.354373510820
    C           -1.003197803751    -0.643646805222     1.448796179874
    H           -0.549990158206    -1.025568054805    -1.966971631361
    H           -1.838876988278    -1.635301770049    -0.954496325703
    H           -0.190947551129    -2.171632345867    -0.686824459441
    H           -1.293766198348     1.358034733827    -1.366351048103
    H           -2.532629362792     0.745471024244    -0.298131808516
    H           -1.338871737257     1.869396466449     0.311448243442
    H           -2.048342776183    -0.931988269243     1.459095904355
    H           -0.408600189001    -1.491260335866     1.756201722306
    H           -0.861151531965     0.139930902600     2.182944661955
    H            1.117212824534     2.102386394773    -0.923148474605
    H            2.485897906491     1.010499535139    -1.098592166609
    H            1.015478950551     0.775809409839    -2.054755739232

  Mulliken Charges: (a.u.)
   Center  Symbol    Alpha    Beta     Spin     Total
       1     O     4.17621  4.17621  0.00000 -0.35242
       2     C     2.85221  2.85221  0.00000  0.29559
       3     C     3.00836  3.00836  0.00000 -0.01671
       4     C     3.16380  3.16380  0.00000 -0.32761
       5     C     3.15790  3.15790  0.00000 -0.31581
       6     C     3.16439  3.16439  0.00000 -0.32878
       7     C     3.15058  3.15058  0.00000 -0.30116
       8     H     0.44636  0.44636  0.00000  0.10729
       9     H     0.44569  0.44569  0.00000  0.10862
      10     H     0.44110  0.44110  0.00000  0.11779
      11     H     0.44576  0.44576  0.00000  0.10849
      12     H     0.44274  0.44274  0.00000  0.11451
      13     H     0.44326  0.44326  0.00000  0.11349
      14     H     0.45191  0.45191  0.00000  0.09618
      15     H     0.43835  0.43835  0.00000  0.12329
      16     H     0.44734  0.44734  0.00000  0.10532
      17     H     0.44565  0.44565  0.00000  0.10870
      18     H     0.43179  0.43179  0.00000  0.13642
      19     H     0.44659  0.44659  0.00000  0.10682

   Total alpha = 28.00000, Total beta = 28.00000, Total charge = -0.00000

*** Psi4 exiting successfully. Buy a developer a beer!
