  ==> Input File <==

--------------------------------------------------------------------------
set {
	reference rhf
	basis cc-pvtz
}

set_num_threads( 4 )
memory 2 gb

molecule MOL {
0 1

H	 -3.144994	 -1.202467	 -0.018751
O	 -2.321472	 -0.864941	 -0.318626
C	 -2.021813	 0.336996	 0.342658
C	 -0.669613	 0.837286	 -0.127252
H	 -2.780861	 1.084746	 0.127159
H	 -2.006390	 0.184138	 1.420053
C	 0.490865	 -0.082543	 0.241244
H	 -0.708709	 0.967192	 -1.204587
H	 -0.507562	 1.822272	 0.303070
C	 1.839800	 0.429565	 -0.255472
H	 0.305636	 -1.070211	 -0.165276
H	 0.527397	 -0.195943	 1.322876
C	 2.711587	 0.996313	 0.860132
H	 2.369988	 -0.380119	 -0.749450
H	 1.680741	 1.194486	 -1.011307
H	 2.917791	 0.244368	 1.614436
H	 3.662005	 1.349317	 0.476209
H	 2.223544	 1.830994	 1.352642

	symmetry c1
}
set optking {
	frozen_dihedral = ("
		14 10 7 11
	")
}

ee = optimize('scf')
oeprop('DIPOLE', 'QUADRUPOLE', 'MULLIKEN_CHARGES')
f=open( 'psi4out.xyz', 'w' )
f.write( "18  " )
f.write( str(ee) + "\n" )
f.write( MOL.save_string_xyz() )
f.close()
--------------------------------------------------------------------------

    Molecular point group: c1
  Charge       = 0
  Multiplicity = 1
  Basis Set: CC-PVTZ
  Basis Set:
  @DF-RHF Final Energy:  -271.28151878628120
    Total Energy =                       -271.2815187862815947
    Molecular point group: c1
  Basis Set: CC-PVTZ
  Basis Set:
  Basis Set: CC-PVTZ
  Basis Set:
  @DF-RHF Final Energy:  -271.28184017126227
    Total Energy =                       -271.2818401712619334
  Basis Set: CC-PVTZ
  Basis Set:
  Basis Set: CC-PVTZ
  Basis Set:
  @DF-RHF Final Energy:  -271.28191005664621
    Total Energy =                       -271.2819100566463248
  Basis Set: CC-PVTZ
  Basis Set:
  Charge       = 0
  Multiplicity = 1
  Basis Set: CC-PVTZ
  Basis Set:

    Orbital Energies (a.u.)
    -----------------------

    Doubly Occupied:

       1A    -20.546197     2A    -11.265844     3A    -11.211090
       4A    -11.209017     5A    -11.204801     6A    -11.204550
       7A     -1.364110     8A     -1.074993     9A     -1.009187
      10A     -0.914783    11A     -0.823497    12A     -0.782383
      13A     -0.708269    14A     -0.638750    15A     -0.616649
      16A     -0.602838    17A     -0.572815    18A     -0.550721
      19A     -0.520799    20A     -0.508739    21A     -0.495247
      22A     -0.464455    23A     -0.453565    24A     -0.449361
      25A     -0.431028

  @DF-RHF Final Energy:  -271.28191095794614

   => Energetics <=

    Nuclear Repulsion Energy =            250.0334067889315577
    One-Electron Energy =                -863.3832519112689852
    Two-Electron Energy =                 342.0679341643914881
    DFT Exchange-Correlation Energy =       0.0000000000000000
    Empirical Dispersion Energy =           0.0000000000000000
    PCM Polarization Energy =               0.0000000000000000
    EFP Energy =                            0.0000000000000000
    Total Energy =                       -271.2819109579459678
    Molecular point group: c1
  Basis Set: CC-PVTZ
  Basis Set:

  -Total Gradient:
     Atom            X                  Y                   Z
    ------   -----------------  -----------------  -----------------
       1        0.000003631872     0.000003456776     0.000004573304
       2       -0.000023596070     0.000037694720    -0.000005509129
       3        0.000011681033    -0.000020227807     0.000054945807
       4       -0.000003967069     0.000008120639    -0.000031601059
       5       -0.000029374945    -0.000028787638    -0.000009575752
       6       -0.000021733937    -0.000003890538    -0.000003827817
       7       -0.001742463548     0.001588164196    -0.003324210374
       8        0.000027831379     0.000007935415    -0.000010189926
       9        0.000009649183    -0.000022637168    -0.000000991482
      10        0.001666032185    -0.001217683105     0.003509567299
      11        0.001171347756    -0.001141652346     0.002246340190
      12       -0.000013450900     0.000003849366    -0.000018400163
      13        0.000036906831     0.000020926415     0.000020402778
      14       -0.001089552705     0.000781444845    -0.002415667451
      15        0.000016251809    -0.000002258652     0.000021537246
      16       -0.000023163835    -0.000003640360    -0.000009242239
      17        0.000012888730    -0.000002175069    -0.000010199923
      18       -0.000008917773    -0.000008639687    -0.000017951309

  **** Optimization is complete! (in 4 steps) ****
    Final optimized geometry and variables:
    Molecular point group: c1

    Geometry (in Angstrom), charge = 0, multiplicity = 1:

    H           -3.114309749681    -1.432118589996    -0.101801332561
    O           -2.291254913092    -1.108603804130    -0.417707602772
    C           -1.966399325431     0.096398550631     0.225698433227
    C           -0.616997041725     0.575743124079    -0.272583760672
    H           -2.720437598006     0.850746085200     0.015346396080
    H           -1.934029166437    -0.045469819145     1.304169735096
    C            0.539011671513    -0.358222130918     0.076089650338
    H           -0.673440325494     0.702001396735    -1.349364397606
    H           -0.433003548316     1.560225772905     0.150587317494
    C            1.912351078339     0.168707298249    -0.381595303825
    H            0.352421393474    -1.338052118852    -0.342850739871
    H            0.555743828609    -0.504084712391     1.153818964628
    C            2.752311044334     0.757632835781     0.747314634676
    H            2.465410305498    -0.622510294268    -0.875702499558
    H            1.766866270726     0.929693866201    -1.143213762434
    H            2.981448438390     0.006258239189     1.495407682534
    H            3.690940219448     1.153295156562     0.375763000245
    H            2.227073697872     1.566802376241     1.244874126621

  Mulliken Charges: (a.u.)
   Center  Symbol    Alpha    Beta     Spin     Total
       1     H     0.39581  0.39581  0.00000  0.20838
       2     O     4.19857  4.19857  0.00000 -0.39714
       3     C     2.97430  2.97430  0.00000  0.05140
       4     C     3.09000  3.09000  0.00000 -0.18001
       5     H     0.46563  0.46563  0.00000  0.06874
       6     H     0.47347  0.47347  0.00000  0.05306
       7     C     3.09564  3.09564  0.00000 -0.19129
       8     H     0.45152  0.45152  0.00000  0.09695
       9     H     0.45396  0.45396  0.00000  0.09207
      10     C     3.08991  3.08991  0.00000 -0.17982
      11     H     0.43838  0.43838  0.00000  0.12324
      12     H     0.46028  0.46028  0.00000  0.07944
      13     C     3.14709  3.14709  0.00000 -0.29418
      14     H     0.44805  0.44805  0.00000  0.10391
      15     H     0.45650  0.45650  0.00000  0.08699
      16     H     0.45490  0.45490  0.00000  0.09020
      17     H     0.44961  0.44961  0.00000  0.10078
      18     H     0.45637  0.45637  0.00000  0.08725

   Total alpha = 25.00000, Total beta = 25.00000, Total charge = -0.00000
