                              Psi4 1.0.54 Driver

  ==> Input File <==

--------------------------------------------------------------------------
set {
	reference rhf
	basis cc-pvtz
}

set_num_threads( 4 )
memory 2 gb

molecule MOL {
0 1

H	 -2.816458	 -0.841657	 -0.064679
N	 -1.878861	 -0.711874	 0.250184
C	 -1.341419	 0.551458	 -0.220231
H	 -1.333674	 -1.468530	 -0.105118
C	 0.082190	 0.731516	 0.254705
H	 -1.357065	 0.652078	 -1.304747
H	 -1.939897	 1.357530	 0.189797
O	 0.881195	 -0.248324	 -0.336237
H	 0.440901	 1.722476	 -0.020063
H	 0.119896	 0.643586	 1.338114
C	 2.131549	 0.197331	 -0.745169
H	 2.654623	 -0.638867	 -1.186250
H	 2.048594	 0.988188	 -1.487705
H	 2.713953	 0.572464	 0.093069

	symmetry c1
}
set optking {
	frozen_dihedral = ("
		11 8 5 3
	")
}

ee,wfn = optimize('scf', return_wfn=True)
oeprop( wfn, 'DIPOLE', 'QUADRUPOLE', 'MULLIKEN_CHARGES')
f=open( 'psi4out.xyz', 'w' )
f.write( "14  " )
f.write( str(ee) + "\n" )
f.write( MOL.save_string_xyz() )
f.close()
--------------------------------------------------------------------------

    Molecular point group: c1
  Charge       = 0
  Multiplicity = 1
  Basis Set: CC-PVTZ
  Basis Set:
  @DF-RHF Final Energy:  -248.22278983481385
    Total Energy =                       -248.2227898348139661
    Molecular point group: c1
  Basis Set: CC-PVTZ
  Basis Set:
  Basis Set: CC-PVTZ
  Basis Set:
  @DF-RHF Final Energy:  -248.22232491552495
    Total Energy =                       -248.2223249155251210
  Basis Set: CC-PVTZ
  Basis Set:
  Basis Set: CC-PVTZ
  Basis Set:
  @DF-RHF Final Energy:  -248.22300255069248
    Total Energy =                       -248.2230025506926268
  Basis Set: CC-PVTZ
  Basis Set:
  Basis Set: CC-PVTZ
  Basis Set:
  @DF-RHF Final Energy:  -248.22301242085538
    Total Energy =                       -248.2230124208551842
  Basis Set: CC-PVTZ
  Basis Set:
  Charge       = 0
  Multiplicity = 1
  Basis Set: CC-PVTZ
  Basis Set:

    Orbital Energies (a.u.)
    -----------------------

    Doubly Occupied:

       1A    -20.548545     2A    -15.522879     3A    -11.265102
       4A    -11.264008     5A    -11.239741     6A     -1.381377
       7A     -1.175454     8A     -0.999958     9A     -0.910507
      10A     -0.814258    11A     -0.682392    12A     -0.677294
      13A     -0.645169    14A     -0.614866    15A     -0.605567
      16A     -0.542595    17A     -0.533315    18A     -0.499529
      19A     -0.473696    20A     -0.416818    21A     -0.382327

  @DF-RHF Final Energy:  -248.22301292443177

   => Energetics <=

    Nuclear Repulsion Energy =            194.4237940741895159
    One-Electron Energy =                -722.9028216690107911
    Two-Electron Energy =                 280.2560146703892201
    DFT Exchange-Correlation Energy =       0.0000000000000000
    Empirical Dispersion Energy =           0.0000000000000000
    PCM Polarization Energy =               0.0000000000000000
    EFP Energy =                            0.0000000000000000
    Total Energy =                       -248.2230129244319983
    Molecular point group: c1
  Basis Set: CC-PVTZ
  Basis Set:

  -Total Gradient:
     Atom            X                  Y                   Z
    ------   -----------------  -----------------  -----------------
       1       -0.000003486663     0.000006939805     0.000001747919
       2       -0.000022060654    -0.000021829288     0.000010346344
       3        0.000412738497     0.000991992863    -0.001572074842
       4        0.000004946978     0.000009205010    -0.000005839876
       5       -0.000843336315    -0.001185934807     0.001274533049
       6        0.000010563572    -0.000012420756     0.000007942549
       7       -0.000017330393    -0.000009826703     0.000009441940
       8        0.001246695220    -0.000106914756     0.002262552718
       9        0.000020801666     0.000019261994    -0.000016914805
      10       -0.000012345448    -0.000009568939    -0.000006308012
      11       -0.000769948106     0.000325014154    -0.001972828036
      12        0.000001321272    -0.000015602484    -0.000001676820
      13       -0.000020012755     0.000006945174     0.000004797101
      14       -0.000008546869     0.000002738733     0.000004280771

  **** Optimization is complete! (in 5 steps) ****
    Final optimized geometry and variables:
    Molecular point group: c1

    Geometry (in Angstrom), charge = 0, multiplicity = 1:

    H           -2.826437723926    -0.832355350390     0.166421606928
    N           -1.890004987082    -0.693892381596     0.480910881047
    C           -1.318268014201     0.509980568200    -0.092826979374
    H           -1.357520992202    -1.491637890682     0.204535966165
    C            0.114576718943     0.686415906368     0.360309120481
    H           -1.335435493395     0.520602364955    -1.182459524173
    H           -1.892514699671     1.364072344891     0.250637680443
    O            0.889345782475    -0.379026629485    -0.115461750807
    H            0.493020892744     1.629953579100    -0.024380222669
    H            0.163415762988     0.717224297620     1.444462235738
    C            2.159567543504    -0.048626916543    -0.571038330442
    H            2.635595546431    -0.958093446877    -0.908702201976
    H            2.115078067967     0.651428505845    -1.401888123767
    H            2.769172257603     0.389121560985     0.216281670305

  Mulliken Charges: (a.u.)
   Center  Symbol    Alpha    Beta     Spin     Total
       1     H     0.43064  0.43064  0.00000  0.13872
       2     N     3.69323  3.69323  0.00000 -0.38647
       3     C     3.01933  3.01933  0.00000 -0.03866
       4     H     0.42217  0.42217  0.00000  0.15567
       5     C     2.96949  2.96949  0.00000  0.06102
       6     H     0.46885  0.46885  0.00000  0.06230
       7     H     0.46032  0.46032  0.00000  0.07936
       8     O     4.18309  4.18309  0.00000 -0.36619
       9     H     0.47135  0.47135  0.00000  0.05730
      10     H     0.46095  0.46095  0.00000  0.07810
      11     C     3.02970  3.02970  0.00000 -0.05941
      12     H     0.44966  0.44966  0.00000  0.10067
      13     H     0.47183  0.47183  0.00000  0.05635
      14     H     0.46939  0.46939  0.00000  0.06122

   Total alpha = 21.00000, Total beta = 21.00000, Total charge = -0.00000

*** Psi4 exiting successfully. Buy a developer a beer!
