                              Psi4 1.0.54 Driver

  ==> Input File <==

--------------------------------------------------------------------------
set {
	reference rhf
	basis cc-pvtz
}

set_num_threads( 4 )
memory 2 gb

molecule MOL {
0 1

H	 3.115922	 1.508256	 -2.255184
N	 2.345109	 0.874647	 -2.256931
C	 1.488422	 1.088627	 -1.101180
H	 2.723568	 -0.049532	 -2.253707
C	 0.271170	 0.177315	 -1.151520
H	 1.161752	 2.122994	 -1.117878
H	 2.008848	 0.940149	 -0.154045
C	 -0.678115	 0.376691	 0.025731
H	 -0.251946	 0.351388	 -2.086108
H	 0.604335	 -0.858537	 -1.173783
C	 -1.900706	 -0.535531	 -0.022488
H	 -1.007698	 1.412898	 0.050294
H	 -0.143037	 0.206422	 0.957167
C	 -3.220513	 0.226854	 0.028039
H	 -1.865036	 -1.134397	 -0.928236
H	 -1.857948	 -1.236381	 0.806820
H	 -3.309098	 0.911849	 -0.808725
H	 -4.066838	 -0.449485	 -0.008086
H	 -3.301685	 0.809374	 0.939860

	symmetry c1
}
set optking {
	frozen_dihedral = ("
		12 8 11 15
	")
}

ee,wfn = optimize('scf', return_wfn=True)
oeprop( wfn, 'DIPOLE', 'QUADRUPOLE', 'MULLIKEN_CHARGES')
f=open( 'psi4out.xyz', 'w' )
f.write( "19  " )
f.write( str(ee) + "\n" )
f.write( MOL.save_string_xyz() )
f.close()
--------------------------------------------------------------------------

    Molecular point group: c1
  Charge       = 0
  Multiplicity = 1
  Basis Set: CC-PVTZ
  Basis Set:
  @DF-RHF Final Energy:  -251.44231679470778
    Total Energy =                       -251.4423167947078355
    Molecular point group: c1
  Basis Set: CC-PVTZ
  Basis Set:
  Basis Set: CC-PVTZ
  Basis Set:
  @DF-RHF Final Energy:  -251.44255137198422
    Total Energy =                       -251.4425513719842797
  Basis Set: CC-PVTZ
  Basis Set:
  Basis Set: CC-PVTZ
  Basis Set:
  @DF-RHF Final Energy:  -251.44261378564363
    Total Energy =                       -251.4426137856437435
  Basis Set: CC-PVTZ
  Basis Set:
  Charge       = 0
  Multiplicity = 1
  Basis Set: CC-PVTZ
  Basis Set:

    Orbital Energies (a.u.)
    -----------------------

    Doubly Occupied:

       1A    -15.526447     2A    -11.237745     3A    -11.211572
       4A    -11.210172     5A    -11.208249     6A    -11.205587
       7A     -1.178145     8A     -1.071535     9A     -0.999087
      10A     -0.900532    11A     -0.815655    12A     -0.788937
      13A     -0.665872    14A     -0.636825    15A     -0.615051
      16A     -0.592067    17A     -0.578371    18A     -0.536927
      19A     -0.531986    20A     -0.498225    21A     -0.488644
      22A     -0.463901    23A     -0.453771    24A     -0.449146
      25A     -0.383799

  @DF-RHF Final Energy:  -251.44261406811901

   => Energetics <=

    Nuclear Repulsion Energy =            246.4888697146128891
    One-Electron Energy =                -827.3664682590820121
    Two-Electron Energy =                 329.4349844763502233
    DFT Exchange-Correlation Energy =       0.0000000000000000
    Empirical Dispersion Energy =           0.0000000000000000
    PCM Polarization Energy =               0.0000000000000000
    EFP Energy =                            0.0000000000000000
    Total Energy =                       -251.4426140681189281
    Molecular point group: c1
  Basis Set: CC-PVTZ
  Basis Set:

  -Total Gradient:
     Atom            X                  Y                   Z
    ------   -----------------  -----------------  -----------------
       1        0.000017217833    -0.000001391537    -0.000018282504
       2        0.000023778339     0.000029017118    -0.000005476167
       3       -0.000011217738    -0.000016328022    -0.000004918574
       4       -0.000001514266     0.000002068998     0.000003677623
       5       -0.000005001325    -0.000003266626     0.000022689609
       6        0.000009444301     0.000001495433    -0.000000426076
       7       -0.000002020686     0.000004113206    -0.000001944697
       8        0.000121539875    -0.000188278163    -0.001293619030
       9       -0.000006034164    -0.000005775095     0.000008461924
      10       -0.000000790265     0.000003072206     0.000006479091
      11       -0.000709711547     0.001047830632    -0.000435381910
      12       -0.000012201438    -0.000035506691     0.001156031129
      13        0.000008522299    -0.000003731872    -0.000007519331
      14       -0.000018742338    -0.000009015027     0.000008317521
      15        0.000582153477    -0.000817974742     0.000564261424
      16       -0.000010142628     0.000009860057    -0.000000543143
      17        0.000013461241    -0.000007467304     0.000001264069
      18       -0.000006938538    -0.000007532932     0.000001500318
      19        0.000008197565    -0.000001189638    -0.000004571274

  **** Optimization is complete! (in 4 steps) ****
    Final optimized geometry and variables:
    Molecular point group: c1

    Geometry (in Angstrom), charge = 0, multiplicity = 1:

    H            3.379209591630     1.128654514616    -1.491451684002
    N            2.606942578572     0.496785850072    -1.494467274109
    C            1.748995186746     0.711980367965    -0.339787681241
    H            2.983654732344    -0.428115432587    -1.490861612128
    C            0.529811078854    -0.195994031912    -0.392377052537
    H            1.424595629349     1.747142617595    -0.355985443807
    H            2.267533615825     0.561706760363     0.608165107575
    C           -0.424380059156     0.006831071191     0.781121705818
    H            0.008561294424    -0.023028898135    -1.328465604691
    H            0.859230500309    -1.233199971918    -0.411360292851
    C           -1.662482451279    -0.912486604263     0.737770626047
    H           -0.743693945228     1.044898381680     0.805276161466
    H            0.116015289680    -0.152674614056     1.709310556301
    C           -2.987091453429    -0.158357952223     0.798928617569
    H           -1.636438019008    -1.514874240202    -0.164553912366
    H           -1.621914706301    -1.618598020643     1.560493970888
    H           -3.083566344269     0.527518182897    -0.036345102826
    H           -3.830110990530    -0.839515643162     0.768310862728
    H           -3.063505175490     0.422835134354     1.711981853679

  Mulliken Charges: (a.u.)
   Center  Symbol    Alpha    Beta     Spin     Total
       1     H     0.43026  0.43026  0.00000  0.13948
       2     N     3.68888  3.68888  0.00000 -0.37776
       3     C     3.02797  3.02797  0.00000 -0.05594
       4     H     0.43104  0.43104  0.00000  0.13792
       5     C     3.08275  3.08275  0.00000 -0.16549
       6     H     0.45683  0.45683  0.00000  0.08634
       7     H     0.46874  0.46874  0.00000  0.06253
       8     C     3.09897  3.09897  0.00000 -0.19794
       9     H     0.44881  0.44881  0.00000  0.10238
      10     H     0.45899  0.45899  0.00000  0.08202
      11     C     3.08716  3.08716  0.00000 -0.17431
      12     H     0.45464  0.45464  0.00000  0.09072
      13     H     0.45256  0.45256  0.00000  0.09489
      14     C     3.14726  3.14726  0.00000 -0.29453
      15     H     0.45378  0.45378  0.00000  0.09245
      16     H     0.45156  0.45156  0.00000  0.09688
      17     H     0.45484  0.45484  0.00000  0.09032
      18     H     0.45000  0.45000  0.00000  0.10000
      19     H     0.45499  0.45499  0.00000  0.09002

   Total alpha = 25.00000, Total beta = 25.00000, Total charge = -0.00000

*** Psi4 exiting successfully. Buy a developer a beer!
