  ==> Input File <==

--------------------------------------------------------------------------
set {
	reference rhf
	basis cc-pvtz
}

set_num_threads( 4 )
memory 2 gb

molecule MOL {
0 1

H	 -2.305261	 -0.736190	 1.064507
N	 -1.529793	 -0.108568	 1.046818
C	 -0.561396	 -0.500007	 0.035200
H	 -1.119342	 -0.121542	 1.957146
C	 0.575129	 0.507849	 -0.048832
H	 -1.075386	 -0.538091	 -0.919568
H	 -0.145691	 -1.494136	 0.206403
C	 1.951750	 -0.141983	 0.035101
H	 0.478254	 1.061643	 -0.975981
H	 0.467676	 1.231891	 0.755499
H	 2.101550	 -0.848142	 -0.774949
H	 2.738260	 0.600794	 -0.026526
H	 2.078939	 -0.679792	 0.968824

	symmetry c1
}
set optking {
	frozen_dihedral = ("
		6 3 5 9
	")
}

ee = optimize('scf')
oeprop('DIPOLE', 'QUADRUPOLE', 'MULLIKEN_CHARGES')
f=open( 'psi4out.xyz', 'w' )
f.write( "13  " )
f.write( str(ee) + "\n" )
f.write( MOL.save_string_xyz() )
f.close()
--------------------------------------------------------------------------

    Molecular point group: c1
  Charge       = 0
  Multiplicity = 1
  Basis Set: CC-PVTZ
  Basis Set:
  @DF-RHF Final Energy:  -173.34610418587647
    Total Energy =                       -173.3461041858765554
    Molecular point group: c1
  Basis Set: CC-PVTZ
  Basis Set:
  Basis Set: CC-PVTZ
  Basis Set:
  @DF-RHF Final Energy:  -173.34646858138728
    Total Energy =                       -173.3464685813873132
  Basis Set: CC-PVTZ
  Basis Set:
  Basis Set: CC-PVTZ
  Basis Set:
  @DF-RHF Final Energy:  -173.34657634895635
    Total Energy =                       -173.3465763489563756
  Basis Set: CC-PVTZ
  Basis Set:
  Basis Set: CC-PVTZ
  Basis Set:
  @DF-RHF Final Energy:  -173.34657779093493
    Total Energy =                       -173.3465777909348162
  Basis Set: CC-PVTZ
  Basis Set:
  Charge       = 0
  Multiplicity = 1
  Basis Set: CC-PVTZ
  Basis Set:

    Orbital Energies (a.u.)
    -----------------------

    Doubly Occupied:

       1A    -15.526825     2A    -11.238630     3A    -11.210448
       4A    -11.207364     5A     -1.177148     6A     -1.033827
       7A     -0.899587     8A     -0.799634     9A     -0.667949
      10A     -0.622766    11A     -0.601991    12A     -0.564968
      13A     -0.540594    14A     -0.489242    15A     -0.477903
      16A     -0.465042    17A     -0.383148

  @DF-RHF Final Energy:  -173.34657795467265

   => Energetics <=

    Nuclear Repulsion Energy =            131.9526675224867347
    One-Electron Energy =                -494.7843603193531408
    Two-Electron Energy =                 189.4851148421937808
    DFT Exchange-Correlation Energy =       0.0000000000000000
    Empirical Dispersion Energy =           0.0000000000000000
    PCM Polarization Energy =               0.0000000000000000
    EFP Energy =                            0.0000000000000000
    Total Energy =                       -173.3465779546725969
    Molecular point group: c1
  Basis Set: CC-PVTZ
  Basis Set:

  -Total Gradient:
     Atom            X                  Y                   Z
    ------   -----------------  -----------------  -----------------
       1       -0.000014659771     0.000001370691     0.000011769461
       2        0.000020255250    -0.000020055536    -0.000027628562
       3        0.002075455235    -0.002441094488    -0.001126398242
       4        0.000004963386    -0.000002810311    -0.000011027978
       5       -0.001944633760     0.002340400542     0.001507270902
       6       -0.001436733564     0.001689373168     0.000707915986
       7        0.000000191230     0.000009787825     0.000004703757
       8       -0.000010936851     0.000009688026     0.000009512911
       9        0.001307809543    -0.001591488087    -0.001076629785
      10        0.000001922909    -0.000001828120     0.000006748547
      11       -0.000010938436    -0.000003096933     0.000003060612
      12        0.000004305298     0.000003253930    -0.000004230193
      13        0.000002999536     0.000006499293    -0.000005067416

  **** Optimization is complete! (in 5 steps) ****
    Final optimized geometry and variables:
    Molecular point group: c1

    Geometry (in Angstrom), charge = 0, multiplicity = 1:

    H           -2.417029894353    -0.659406852689     0.759602279153
    N           -1.643699167013    -0.028275528084     0.748375238105
    C           -0.656980213420    -0.430199298006    -0.245951482522
    H           -1.247077216949    -0.033725614516     1.665176892604
    C            0.494712505811     0.587314588267    -0.328752416010
    H           -1.175010684670    -0.476166946992    -1.196052185897
    H           -0.252520730328    -1.423270718701    -0.054434911886
    C            1.877615968218    -0.056289597509    -0.268483012270
    H            0.417702979606     1.150922615750    -1.251610378266
    H            0.388998090314     1.301741557581     0.478878488863
    H            2.019621244178    -0.760083191614    -1.082132243232
    H            2.660288820038     0.690404664789    -0.339284886875
    H            2.018801482470    -0.598059672901     0.661351350415

  Mulliken Charges: (a.u.)
   Center  Symbol    Alpha    Beta     Spin     Total
       1     H     0.42968  0.42968  0.00000  0.14065
       2     N     3.68896  3.68896  0.00000 -0.37792
       3     C     3.03039  3.03039  0.00000 -0.06078
       4     H     0.43097  0.43097  0.00000  0.13806
       5     C     3.08557  3.08557  0.00000 -0.17114
       6     H     0.45552  0.45552  0.00000  0.08896
       7     H     0.46593  0.46593  0.00000  0.06814
       8     C     3.14917  3.14917  0.00000 -0.29835
       9     H     0.45180  0.45180  0.00000  0.09640
      10     H     0.44964  0.44964  0.00000  0.10072
      11     H     0.45570  0.45570  0.00000  0.08860
      12     H     0.44952  0.44952  0.00000  0.10095
      13     H     0.45715  0.45715  0.00000  0.08570

   Total alpha = 17.00000, Total beta = 17.00000, Total charge = -0.00000
