                              Psi4 1.0.54 Driver

  ==> Input File <==

--------------------------------------------------------------------------
set {
	reference rhf
	basis cc-pvtz
}

set_num_threads( 4 )
memory 2 gb

molecule MOL {
0 1

O	 3.219313	 0.959291	 -0.614106
C	 2.698710	 0.058177	 -0.050237
C	 1.246364	 -0.005813	 0.348416
O	 3.344101	 -1.038700	 0.312317
C	 0.453207	 1.232821	 -0.049003
H	 0.839270	 -0.907818	 -0.092281
H	 1.216683	 -0.160521	 1.422434
C	 -0.998367	 1.217982	 0.432195
H	 0.481498	 1.345443	 -1.127236
H	 0.951413	 2.105557	 0.354893
C	 -1.882951	 0.151251	 -0.211235
H	 -1.429490	 2.193659	 0.228843
H	 -1.019755	 1.099323	 1.513279
C	 -3.342450	 0.243269	 0.226009
H	 -1.826223	 0.246578	 -1.293162
H	 -1.508033	 -0.839650	 0.027695
C	 -3.522884	 0.835917	 1.620636
H	 -3.788555	 -0.747973	 0.198249
H	 -3.895257	 0.844600	 -0.492093
C	 -4.983364	 0.922884	 2.051000
H	 -2.971234	 0.235995	 2.339312
H	 -3.079994	 1.827827	 1.649280
H	 -5.075982	 1.347557	 3.044005
H	 -5.445719	 -0.058486	 2.066799
H	 -5.555469	 1.545089	 1.370732
C	 4.720529	 -1.114346	 0.001449
H	 4.874321	 -1.055557	 -1.065852
H	 5.057824	 -2.067950	 0.373977
H	 5.264321	 -0.313596	 0.480350

	symmetry c1
}
set optking {
	frozen_dihedral = ("
		17 14 11 15
	")
}

ee,wfn = optimize('scf', return_wfn=True)
oeprop( wfn, 'DIPOLE', 'QUADRUPOLE', 'MULLIKEN_CHARGES')
f=open( 'psi4out.xyz', 'w' )
f.write( "29  " )
f.write( str(ee) + "\n" )
f.write( MOL.save_string_xyz() )
f.close()
--------------------------------------------------------------------------

    Molecular point group: c1
  Charge       = 0
  Multiplicity = 1
  Basis Set: CC-PVTZ
  Basis Set:
  @DF-RHF Final Energy:  -501.21556059462114
    Total Energy =                       -501.2155605946202286
    Molecular point group: c1
  Basis Set: CC-PVTZ
  Basis Set:
  Basis Set: CC-PVTZ
  Basis Set:
  @DF-RHF Final Energy:  -501.21457054850623
    Total Energy =                       -501.2145705485056624
  Basis Set: CC-PVTZ
  Basis Set:
  Basis Set: CC-PVTZ
  Basis Set:
  @DF-RHF Final Energy:  -501.21813456615689
    Total Energy =                       -501.2181345661571186
  Basis Set: CC-PVTZ
  Basis Set:
  Basis Set: CC-PVTZ
  Basis Set:
  @DF-RHF Final Energy:  -501.21834784697501
    Total Energy =                       -501.2183478469752345
  Basis Set: CC-PVTZ
  Basis Set:
  Basis Set: CC-PVTZ
  Basis Set:
  @DF-RHF Final Energy:  -501.21821066055122
    Total Energy =                       -501.2182106605512217
  Basis Set: CC-PVTZ
  Basis Set:
  Basis Set: CC-PVTZ
  Basis Set:
  @DF-RHF Final Energy:  -501.21829623264864
    Total Energy =                       -501.2182962326485267
  Basis Set: CC-PVTZ
  Basis Set:
  Basis Set: CC-PVTZ
  Basis Set:
  @DF-RHF Final Energy:  -501.21836919728025
    Total Energy =                       -501.2183691972802535
  Basis Set: CC-PVTZ
  Basis Set:
  Charge       = 0
  Multiplicity = 1
  Basis Set: CC-PVTZ
  Basis Set:

    Orbital Energies (a.u.)
    -----------------------

    Doubly Occupied:

       1A    -20.595915     2A    -20.533745     3A    -11.364157
       4A    -11.278169     5A    -11.232813     6A    -11.216770
       7A    -11.215022     8A    -11.214367     9A    -11.213620
      10A    -11.212917    11A    -11.206930    12A     -1.471856
      13A     -1.365374    14A     -1.098506    15A     -1.066228
      16A     -1.018520    17A     -0.977223    18A     -0.929362
      19A     -0.863066    20A     -0.820063    21A     -0.775269
      22A     -0.758485    23A     -0.703171    24A     -0.685322
      25A     -0.675761    26A     -0.649571    27A     -0.627704
      28A     -0.604655    29A     -0.599154    30A     -0.582523
      31A     -0.565373    32A     -0.554517    33A     -0.547576
      34A     -0.525417    35A     -0.516443    36A     -0.505852
      37A     -0.493679    38A     -0.484953    39A     -0.479465
      40A     -0.460564    41A     -0.451267    42A     -0.448507
      43A     -0.443590    44A     -0.439814

  @DF-RHF Final Energy:  -501.21836933551754

   => Energetics <=

    Nuclear Repulsion Energy =            616.4437841681467489
    One-Electron Energy =               -1904.3777980487457171
    Two-Electron Energy =                 786.7156445450817728
    DFT Exchange-Correlation Energy =       0.0000000000000000
    Empirical Dispersion Energy =           0.0000000000000000
    PCM Polarization Energy =               0.0000000000000000
    EFP Energy =                            0.0000000000000000
    Total Energy =                       -501.2183693355171954
    Molecular point group: c1
  Basis Set: CC-PVTZ
  Basis Set:

  -Total Gradient:
     Atom            X                  Y                   Z
    ------   -----------------  -----------------  -----------------
       1        0.000032718268    -0.000101198795    -0.000012591327
       2        0.000034957372     0.000064553047     0.000141451699
       3        0.000010044984     0.000010887432    -0.000053630851
       4       -0.000038478947     0.000037061794    -0.000062139122
       5       -0.000015123709    -0.000032454830    -0.000047819880
       6        0.000004549647     0.000034467281     0.000004404032
       7       -0.000005343634     0.000006710013    -0.000000630905
       8        0.000045124446    -0.000106935606     0.000013052545
       9        0.000017662238    -0.000027279146     0.000008145694
      10        0.000018377085    -0.000010182638    -0.000001367186
      11       -0.000714878696    -0.005718144292    -0.001346665091
      12       -0.000000371299    -0.000042956749     0.000015174218
      13        0.000005585227    -0.000026252277    -0.000046075392
      14        0.000516256767    -0.004904482946     0.003207479006
      15        0.000556222490     0.006388949703     0.000308194856
      16       -0.000026629084     0.000058972878    -0.000003982006
      17       -0.000341679528     0.004305091039    -0.002177114139
      18       -0.000024021860     0.000037686088     0.000029155072
      19        0.000017768881    -0.000017397308     0.000026207427
      20       -0.000041493307     0.000054336385     0.000036416240
      21        0.000012289045     0.000020641851    -0.000027308273
      22       -0.000088858636    -0.000090937029     0.000000504804
      23       -0.000029439939    -0.000009552405    -0.000004646804
      24        0.000042485881     0.000066657465    -0.000002204904
      25        0.000016965224    -0.000036979419     0.000022449369
      26        0.000014925927     0.000036827881    -0.000016327944
      27        0.000011695137     0.000000568667     0.000011861012
      28       -0.000022833241     0.000029454060    -0.000008320087
      29       -0.000008476739    -0.000028112145    -0.000013672068

  **** Optimization is complete! (in 8 steps) ****
    Final optimized geometry and variables:
    Molecular point group: c1

    Geometry (in Angstrom), charge = 0, multiplicity = 1:

    O            3.095703694775     0.623020175786    -1.101312462289
    C            2.605664957297    -0.230723825802    -0.444069360493
    C            1.168993980145    -0.273185541483     0.010542249451
    O            3.276201039318    -1.287257008360    -0.013876578153
    C            0.348723601805     0.921638249842    -0.459659653964
    H            0.757272518719    -1.212289887550    -0.338676184273
    H            1.178774382644    -0.337822440001     1.094088256615
    C           -1.082415761708     0.942217753704     0.081330253706
    H            0.333796379126     0.941007417488    -1.543865418992
    H            0.855282695500     1.828335326006    -0.152424754961
    C           -1.972473831955    -0.183231394895    -0.455510695373
    H           -1.524023552548     1.897089834535    -0.187283887253
    H           -1.052474145600     0.916666214964     1.166123581067
    C           -3.464392528036    -0.090030781597    -0.076330057177
    H           -1.898029468560    -0.133968282187    -1.537738007969
    H           -1.577631353868    -1.142839448885    -0.141993100060
    C           -3.797365748346     0.551001999552     1.270742311814
    H           -3.897799687666    -1.084486097321    -0.115137894627
    H           -3.978056316797     0.484819651729    -0.842967361123
    C           -5.294410218795     0.531618462056     1.564005658702
    H           -3.272305561896     0.033568827591     2.069771351911
    H           -3.447127257910     1.576033189074     1.288549100857
    H           -5.514222530762     1.002891957161     2.515116579022
    H           -5.673777763217    -0.483926953342     1.602463530074
    H           -5.849790761057     1.060981641349     0.796767470683
    C            4.641336051474    -1.377249923469    -0.367782762697
    H            4.755977666569    -1.407990232567    -1.441149753960
    H            5.002862904431    -2.292830446893     0.071349401967
    H            5.192711260012    -0.534182881553     0.021307460852

  Mulliken Charges: (a.u.)
   Center  Symbol    Alpha    Beta     Spin     Total
       1     O     4.19716  4.19716  0.00000 -0.39433
       2     C     2.80505  2.80505  0.00000  0.38991
       3     C     3.10148  3.10148  0.00000 -0.20297
       4     O     4.14717  4.14717  0.00000 -0.29434
       5     C     3.09264  3.09264  0.00000 -0.18528
       6     H     0.43901  0.43901  0.00000  0.12198
       7     H     0.44019  0.44019  0.00000  0.11962
       8     C     3.10878  3.10878  0.00000 -0.21757
       9     H     0.44669  0.44669  0.00000  0.10661
      10     H     0.43922  0.43922  0.00000  0.12155
      11     C     3.09968  3.09968  0.00000 -0.19937
      12     H     0.44433  0.44433  0.00000  0.11134
      13     H     0.44930  0.44930  0.00000  0.10140
      14     C     3.09143  3.09143  0.00000 -0.18286
      15     H     0.44981  0.44981  0.00000  0.10038
      16     H     0.45109  0.45109  0.00000  0.09783
      17     C     3.08885  3.08885  0.00000 -0.17770
      18     H     0.44979  0.44979  0.00000  0.10041
      19     H     0.45331  0.45331  0.00000  0.09338
      20     C     3.15121  3.15121  0.00000 -0.30243
      21     H     0.45420  0.45420  0.00000  0.09159
      22     H     0.44980  0.44980  0.00000  0.10039
      23     H     0.44819  0.44819  0.00000  0.10361
      24     H     0.45449  0.45449  0.00000  0.09101
      25     H     0.45511  0.45511  0.00000  0.08978
      26     C     3.03813  3.03813  0.00000 -0.07626
      27     H     0.45435  0.45435  0.00000  0.09130
      28     H     0.44527  0.44527  0.00000  0.10945
      29     H     0.45423  0.45423  0.00000  0.09154

   Total alpha = 44.00000, Total beta = 44.00000, Total charge =  0.00000

*** Psi4 exiting successfully. Buy a developer a beer!
