  ==> Input File <==

--------------------------------------------------------------------------
set {
	reference rhf
	basis 6-31G*
}

set_num_threads( 1 )
memory 2 gb

molecule MOL {
0 1

O	 3.225979	 0.970355	 -0.599647
C	 2.701189	 0.057885	 -0.047330
C	 1.245376	 -0.013843	 0.345420
O	 3.347903	 -1.046386	 0.304773
C	 0.455112	 1.231400	 -0.050772
H	 0.838542	 -0.913825	 -0.103701
H	 1.208210	 -0.175333	 1.419774
C	 -0.998893	 1.219485	 0.433193
H	 0.482531	 1.345121	 -1.130325
H	 0.957290	 2.103070	 0.354729
C	 -1.498469	 2.547830	 1.008548
H	 -1.092919	 0.452309	 1.198258
H	 -1.650346	 0.911974	 -0.383543
C	 -2.915768	 2.454323	 1.577334
H	 -0.817629	 2.876826	 1.792153
H	 -1.477948	 3.319407	 0.242245
C	 -3.427422	 3.777202	 2.150339
H	 -2.941816	 1.692853	 2.354971
H	 -3.595274	 2.115062	 0.797030
C	 -4.841949	 3.674327	 2.719750
H	 -2.749016	 4.118163	 2.929539
H	 -3.406239	 4.538525	 1.373346
H	 -5.176366	 4.627288	 3.118043
H	 -4.888830	 2.945187	 3.523711
H	 -5.550921	 3.368191	 1.955608
C	 4.728119	 -1.109107	 -0.004993
H	 4.882018	 -1.033965	 -1.071845
H	 5.068212	 -2.067527	 0.355250
H	 5.265056	 -0.311663	 0.488280

	symmetry c1
}
set optking {
	frozen_dihedral = ("
		21 17 14 11,
		17 14 11 15,
		15 11 8 5,
		6 3 5 9,
		2 4 26 27,
		1 2 4 26,
		6 3 2 1
	")
}

ee = energy('scf')
oeprop('DIPOLE', 'QUADRUPOLE', 'MULLIKEN_CHARGES')
f=open( 'psi4out.xyz', 'w' )
f.write( "29  " )
f.write( str(ee) + "\n" )
f.write( MOL.save_string_xyz() )
f.close()
--------------------------------------------------------------------------

    Molecular point group: c1

    Geometry (in Angstrom), charge = 0, multiplicity = 1:

       Center              X                  Y                   Z               Mass
    ------------   -----------------  -----------------  -----------------  -----------------
           O          2.999861112732    -0.262825288577    -1.309346427780    15.994914619560
           C          2.475071112732    -1.175295288577    -0.757029427780    12.000000000000
           C          1.019258112732    -1.247023288577    -0.364279427780    12.000000000000
           O          3.121785112732    -2.279566288577    -0.404926427780    15.994914619560
           C          0.228994112732    -0.001780288577    -0.760471427780    12.000000000000
           H          0.612424112732    -2.147005288577    -0.813400427780     1.007825032070
           H          0.982092112732    -1.408513288577     0.710074572220     1.007825032070
           C         -1.225010887268    -0.013695288577    -0.276506427780    12.000000000000
           H          0.256413112732     0.111940711423    -1.840024427780     1.007825032070
           H          0.731172112732     0.869889711423    -0.354970427780     1.007825032070
           C         -1.724586887268     1.314649711423     0.298848572220    12.000000000000
           H         -1.319036887268    -0.780871288577     0.488558572220     1.007825032070
           H         -1.876463887268    -0.321206288577    -1.093242427780     1.007825032070
           C         -3.141885887268     1.221142711423     0.867634572220    12.000000000000
           H         -1.043746887268     1.643645711423     1.082453572220     1.007825032070
           H         -1.704065887268     2.086226711423    -0.467454427780     1.007825032070
           C         -3.653539887268     2.544021711423     1.440639572220    12.000000000000
           H         -3.167933887268     0.459672711423     1.645271572220     1.007825032070
           H         -3.821391887268     0.881881711423     0.087330572220     1.007825032070
           C         -5.068066887268     2.441146711423     2.010050572220    12.000000000000
           H         -2.975133887268     2.884982711423     2.219839572220     1.007825032070
           H         -3.632356887268     3.305344711423     0.663646572220     1.007825032070
           H         -5.402483887268     3.394107711423     2.408343572220     1.007825032070
           H         -5.114947887268     1.712006711423     2.814011572220     1.007825032070
           H         -5.777038887268     2.135010711423     1.245908572220     1.007825032070
           C          4.502001112732    -2.342287288577    -0.714692427780    12.000000000000
           H          4.655900112732    -2.267145288577    -1.781544427780     1.007825032070
           H          4.842094112732    -3.300707288577    -0.354449427780     1.007825032070
           H          5.038938112732    -1.544843288577    -0.221419427780     1.007825032070

  Charge       = 0
  Multiplicity = 1
  Basis Set: 6-31G*
  Basis Set:

    Orbital Energies (a.u.)
    -----------------------

    Doubly Occupied:

       1A    -20.603514     2A    -20.545354     3A    -11.372059
       4A    -11.280786     5A    -11.236028     6A    -11.217732
       7A    -11.216364     8A    -11.215021     9A    -11.214792
      10A    -11.213212    11A    -11.208274    12A     -1.469223
      13A     -1.362638    14A     -1.096365    15A     -1.067106
      16A     -1.020082    17A     -0.977471    18A     -0.927190
      19A     -0.856721    20A     -0.800492    21A     -0.790175
      22A     -0.766817    23A     -0.698082    24A     -0.683125
      25A     -0.671952    26A     -0.654201    27A     -0.629512
      28A     -0.597751    29A     -0.594566    30A     -0.583115
      31A     -0.566011    32A     -0.549837    33A     -0.530349
      34A     -0.527071    35A     -0.515014    36A     -0.512416
      37A     -0.494449    38A     -0.476414    39A     -0.468148
      40A     -0.461209    41A     -0.460295    42A     -0.455916
      43A     -0.443933    44A     -0.432196

  @DF-RHF Final Energy:  -501.04064560511665

   => Energetics <=

    Nuclear Repulsion Energy =            603.1661156668815238
    One-Electron Energy =               -1877.4875671432982926
    Two-Electron Energy =                 773.2808058713022774
    DFT Exchange-Correlation Energy =       0.0000000000000000
    Empirical Dispersion Energy =           0.0000000000000000
    PCM Polarization Energy =               0.0000000000000000
    EFP Energy =                            0.0000000000000000
    Total Energy =                       -501.0406456051144914

  Mulliken Charges: (a.u.)
   Center  Symbol    Alpha    Beta     Spin     Total
       1     O     4.28574  4.28574  0.00000 -0.57149
       2     C     2.60555  2.60555  0.00000  0.78890
       3     C     3.21005  3.21005  0.00000 -0.42009
       4     O     4.30758  4.30758  0.00000 -0.61516
       5     C     3.15475  3.15475  0.00000 -0.30950
       6     H     0.39995  0.39995  0.00000  0.20011
       7     H     0.40068  0.40068  0.00000  0.19864
       8     C     3.15666  3.15666  0.00000 -0.31332
       9     H     0.41100  0.41100  0.00000  0.17799
      10     H     0.40878  0.40878  0.00000  0.18244
      11     C     3.15344  3.15344  0.00000 -0.30688
      12     H     0.42359  0.42359  0.00000  0.15282
      13     H     0.41991  0.41991  0.00000  0.16017
      14     C     3.15154  3.15154  0.00000 -0.30307
      15     H     0.42307  0.42307  0.00000  0.15387
      16     H     0.42101  0.42101  0.00000  0.15798
      17     C     3.15150  3.15150  0.00000 -0.30301
      18     H     0.42429  0.42429  0.00000  0.15142
      19     H     0.42389  0.42389  0.00000  0.15222
      20     C     3.23924  3.23924  0.00000 -0.47848
      21     H     0.42297  0.42297  0.00000  0.15406
      22     H     0.42266  0.42266  0.00000  0.15467
      23     H     0.41923  0.41923  0.00000  0.16153
      24     H     0.42201  0.42201  0.00000  0.15597
      25     H     0.42183  0.42183  0.00000  0.15634
      26     C     3.09243  3.09243  0.00000 -0.18485
      27     H     0.40905  0.40905  0.00000  0.18190
      28     H     0.40849  0.40849  0.00000  0.18303
      29     H     0.40912  0.40912  0.00000  0.18177

   Total alpha = 44.00000, Total beta = 44.00000, Total charge =  0.00000
