  ==> Input File <==

--------------------------------------------------------------------------
set {
	reference rhf
	basis cc-pvtz
}

set_num_threads( 4 )
memory 2 gb

molecule MOL {
0 1

H	 0.199586	 -5.628139	 2.266244
C	 0.481900	 -4.732676	 1.725363
C	 -0.699289	 -3.778117	 1.590231
H	 1.301547	 -4.267698	 2.262962
H	 0.856012	 -5.038351	 0.753961
C	 -0.346796	 -2.505200	 0.834984
H	 -1.073892	 -3.507199	 2.571068
H	 -1.513814	 -4.283953	 1.077146
N	 -1.480796	 -1.611032	 0.744194
H	 0.449722	 -1.986167	 1.359707
H	 0.052333	 -2.766836	 -0.149559
C	 -1.215959	 -0.382435	 0.027143
H	 -2.252178	 -2.086587	 0.324509
C	 -2.451944	 0.502410	 -0.038737
H	 -0.423675	 0.146941	 0.547934
H	 -0.848274	 -0.567261	 -0.986624
C	 -3.752217	 -0.292550	 0.005776
H	 -2.407325	 1.093801	 -0.946480
H	 -2.431979	 1.206234	 0.790023
H	 -3.817783	 -0.982946	 -0.828547
H	 -4.612613	 0.364348	 -0.042306
H	 -3.830160	 -0.871666	 0.919868

	symmetry c1
}
set optking {
	frozen_dihedral = ("
		15 12 14 18
	")
}

ee = optimize('scf')
oeprop('DIPOLE', 'QUADRUPOLE', 'MULLIKEN_CHARGES')
f=open( 'psi4out.xyz', 'w' )
f.write( "22  " )
f.write( str(ee) + "\n" )
f.write( MOL.save_string_xyz() )
f.close()
--------------------------------------------------------------------------

    Molecular point group: c1
  Charge       = 0
  Multiplicity = 1
  Basis Set: CC-PVTZ
  Basis Set:
  @DF-RHF Final Energy:  -290.48177339209258
    Total Energy =                       -290.4817733920924638
    Molecular point group: c1
  Basis Set: CC-PVTZ
  Basis Set:
  Basis Set: CC-PVTZ
  Basis Set:
  @DF-RHF Final Energy:  -290.48237247276705
    Total Energy =                       -290.4823724727672811
  Basis Set: CC-PVTZ
  Basis Set:
  Basis Set: CC-PVTZ
  Basis Set:
  @DF-RHF Final Energy:  -290.48410768087979
    Total Energy =                       -290.4841076808797879
  Basis Set: CC-PVTZ
  Basis Set:
  Basis Set: CC-PVTZ
  Basis Set:
  @DF-RHF Final Energy:  -290.48425297740806
    Total Energy =                       -290.4842529774082323
  Basis Set: CC-PVTZ
  Basis Set:
  Basis Set: CC-PVTZ
  Basis Set:
  @DF-RHF Final Energy:  -290.48426475866518
    Total Energy =                       -290.4842647586648354
  Basis Set: CC-PVTZ
  Basis Set:
  Charge       = 0
  Multiplicity = 1
  Basis Set: CC-PVTZ
  Basis Set:

    Orbital Energies (a.u.)
    -----------------------

    Doubly Occupied:

       1A    -15.527459     2A    -11.236972     3A    -11.236042
       4A    -11.212325     5A    -11.211901     6A    -11.207616
       7A    -11.205246     8A     -1.206884     9A     -1.058173
      10A     -1.022734    11A     -0.928222    12A     -0.881686
      13A     -0.805153    14A     -0.785987    15A     -0.670802
      16A     -0.631652    17A     -0.625889    18A     -0.592245
      19A     -0.575735    20A     -0.569599    21A     -0.538691
      22A     -0.529358    23A     -0.504337    24A     -0.486887
      25A     -0.481688    26A     -0.472586    27A     -0.465768
      28A     -0.451338    29A     -0.360106

  @DF-RHF Final Energy:  -290.48426550158320

   => Energetics <=

    Nuclear Repulsion Energy =            318.7031876712924259
    One-Electron Energy =               -1023.4087391306832160
    Two-Electron Energy =                 414.2212859578070834
    DFT Exchange-Correlation Energy =       0.0000000000000000
    Empirical Dispersion Energy =           0.0000000000000000
    PCM Polarization Energy =               0.0000000000000000
    EFP Energy =                            0.0000000000000000
    Total Energy =                       -290.4842655015837067
    Molecular point group: c1
  Basis Set: CC-PVTZ
  Basis Set:

  -Total Gradient:
     Atom            X                  Y                   Z
    ------   -----------------  -----------------  -----------------
       1        0.000001289794    -0.000001472183     0.000000679512
       2        0.000000588326    -0.000000051716    -0.000001707745
       3       -0.000004765642     0.000011210832    -0.000002003835
       4       -0.000000688809    -0.000000240788    -0.000001041842
       5       -0.000000074395     0.000000403832     0.000001170837
       6       -0.000005756112     0.000028621700     0.000005046851
       7       -0.000000807889    -0.000000917835    -0.000001517612
       8       -0.000000771057     0.000000414208     0.000001119382
       9       -0.000002539825     0.000021257931    -0.000008350512
      10        0.000011167752    -0.000003689537    -0.000001512588
      11        0.000001168747    -0.000002078280    -0.000002692675
      12        0.001698868886     0.002068630958    -0.007602509742
      13       -0.000007683564     0.000012557500     0.000010332415
      14        0.003801814772     0.004766730016     0.005219526117
      15       -0.002012632858    -0.002535290998     0.005641457453
      16        0.000021844039     0.000011207330    -0.000017788595
      17        0.000026085617     0.000012365110    -0.000011199959
      18       -0.003504639662    -0.004396224200    -0.003216468322
      19       -0.000007843926     0.000023241391    -0.000001712930
      20       -0.000029758748     0.000006946524    -0.000005377221
      21        0.000002413290     0.000003825663     0.000001418904
      22        0.000012721265    -0.000027447459    -0.000006867891

  **** Optimization is complete! (in 6 steps) ****
    Final optimized geometry and variables:
    Molecular point group: c1

    Geometry (in Angstrom), charge = 0, multiplicity = 1:

    H            1.648286291264    -3.780706950264     1.600614288971
    C            1.909734812317    -2.876126132216     1.064396410529
    C            0.697288790833    -1.966591373236     0.898994608033
    H            2.698447083693    -2.379958628769     1.620066769519
    H            2.317823737451    -3.169033606697     0.102800246651
    C            1.020633586666    -0.681907984828     0.150511768626
    H            0.289446754128    -1.709203787177     1.870222790715
    H           -0.084892171770    -2.503255126916     0.367251882468
    N           -0.143012677176     0.170534401915     0.033253697197
    H            1.787230949172    -0.135668207134     0.691809826466
    H            1.450305444574    -0.930101742531    -0.824849354055
    C            0.102810830410     1.396760389642    -0.702840156070
    H           -0.886077442507    -0.343203086809    -0.389279482814
    C           -1.096420215323     2.357807704572    -0.694127899305
    H            0.929797659636     1.877696360301    -0.193119879098
    H            0.414092660104     1.198032516194    -1.730372622364
    C           -2.468684974394     1.683215652693    -0.715220386368
    H           -1.038378404639     2.969820297603    -1.588538294403
    H           -1.038140761564     3.011926468081     0.167260985181
    H           -2.578034242011     1.030003687067    -1.576476580719
    H           -3.250937303181     2.430713882908    -0.777683119949
    H           -2.640848918375     1.097482972079     0.177841609341

  Mulliken Charges: (a.u.)
   Center  Symbol    Alpha    Beta     Spin     Total
       1     H     0.44769  0.44769  0.00000  0.10462
       2     C     3.15357  3.15357  0.00000 -0.30715
       3     C     3.08147  3.08147  0.00000 -0.16294
       4     H     0.45466  0.45466  0.00000  0.09067
       5     H     0.45607  0.45607  0.00000  0.08786
       6     C     3.02096  3.02096  0.00000 -0.04191
       7     H     0.44897  0.44897  0.00000  0.10205
       8     H     0.45992  0.45992  0.00000  0.08016
       9     N     3.64456  3.64456  0.00000 -0.28912
      10     H     0.45913  0.45913  0.00000  0.08174
      11     H     0.47503  0.47503  0.00000  0.04995
      12     C     3.03433  3.03433  0.00000 -0.06865
      13     H     0.43966  0.43966  0.00000  0.12068
      14     C     3.07673  3.07673  0.00000 -0.15346
      15     H     0.45700  0.45700  0.00000  0.08600
      16     H     0.46865  0.46865  0.00000  0.06269
      17     C     3.16204  3.16204  0.00000 -0.32408
      18     H     0.45568  0.45568  0.00000  0.08864
      19     H     0.45265  0.45265  0.00000  0.09469
      20     H     0.45743  0.45743  0.00000  0.08514
      21     H     0.44634  0.44634  0.00000  0.10732
      22     H     0.44745  0.44745  0.00000  0.10510

   Total alpha = 29.00000, Total beta = 29.00000, Total charge = -0.00000
