  ==> Input File <==

--------------------------------------------------------------------------
set {
	reference rhf
	basis cc-pvtz
}

set_num_threads( 4 )
memory 2 gb

molecule MOL {
0 1

H	 -1.835082	 1.385983	 0.000069
C	 -1.300516	 0.441153	 -0.000028
O	 -0.006604	 0.654344	 -0.000106
O	 -1.828920	 -0.612308	 0.000113
C	 0.515264	 1.562139	 0.966013
C	 2.010203	 1.639080	 0.766165
H	 0.262556	 1.204149	 1.953910
H	 0.044354	 2.525365	 0.830361
H	 2.467707	 0.667257	 0.901153
H	 2.439408	 2.323729	 1.487894
H	 2.248411	 1.995092	 -0.228059

	symmetry c1
}
set optking {
	frozen_dihedral = ("
		5 3 2 4
	")
}

ee = optimize('scf')
oeprop('DIPOLE', 'QUADRUPOLE', 'MULLIKEN_CHARGES')
f=open( 'psi4out.xyz', 'w' )
f.write( "11  " )
f.write( str(ee) + "\n" )
f.write( MOL.save_string_xyz() )
f.close()
--------------------------------------------------------------------------

    Molecular point group: c1
  Charge       = 0
  Multiplicity = 1
  Basis Set: CC-PVTZ
  Basis Set:
  @DF-RHF Final Energy:  -266.91655679048961
    Total Energy =                       -266.9165567904897785
    Molecular point group: c1
  Basis Set: CC-PVTZ
  Basis Set:
  Basis Set: CC-PVTZ
  Basis Set:
  @DF-RHF Final Energy:  -266.91745779413287
    Total Energy =                       -266.9174577941328153
  Basis Set: CC-PVTZ
  Basis Set:
  Basis Set: CC-PVTZ
  Basis Set:
  @DF-RHF Final Energy:  -266.91587001439746
    Total Energy =                       -266.9158700143974556
  Basis Set: CC-PVTZ
  Basis Set:
  Basis Set: CC-PVTZ
  Basis Set:
  @DF-RHF Final Energy:  -266.91787287738691
    Total Energy =                       -266.9178728773869693
  Basis Set: CC-PVTZ
  Basis Set:
  Basis Set: CC-PVTZ
  Basis Set:
  @DF-RHF Final Energy:  -266.91788967093004
    Total Energy =                       -266.9178896709298670
  Basis Set: CC-PVTZ
  Basis Set:
  Basis Set: CC-PVTZ
  Basis Set:
  @DF-RHF Final Energy:  -266.91789854270144
    Total Energy =                       -266.9178985427014368
  Basis Set: CC-PVTZ
  Basis Set:
  Charge       = 0
  Multiplicity = 1
  Basis Set: CC-PVTZ
  Basis Set:

    Orbital Energies (a.u.)
    -----------------------

    Doubly Occupied:

       1A    -20.595993     2A    -20.553425     3A    -11.373032
       4A    -11.303514     5A    -11.230372     6A     -1.473476
       7A     -1.384963     8A     -1.053522     9A     -0.888389
      10A     -0.842275    11A     -0.743450    12A     -0.694078
      13A     -0.661547    14A     -0.628533    15A     -0.569215
      16A     -0.550383    17A     -0.539242    18A     -0.512696
      19A     -0.466524    20A     -0.455606

  @DF-RHF Final Energy:  -266.91789907536815

   => Energetics <=

    Nuclear Repulsion Energy =            176.8241340562968844
    One-Electron Energy =                -714.4435952845002475
    Two-Electron Energy =                 270.7015621528354359
    DFT Exchange-Correlation Energy =       0.0000000000000000
    Empirical Dispersion Energy =           0.0000000000000000
    PCM Polarization Energy =               0.0000000000000000
    EFP Energy =                            0.0000000000000000
    Total Energy =                       -266.9178990753679273
    Molecular point group: c1
  Basis Set: CC-PVTZ
  Basis Set:

  -Total Gradient:
     Atom            X                  Y                   Z
    ------   -----------------  -----------------  -----------------
       1       -0.000007211524    -0.000014093075     0.000007429057
       2        0.000752112289    -0.002531251325    -0.007283866371
       3       -0.000207058964     0.005084005031    -0.002012652932
       4       -0.000527741709     0.000650998434     0.005952329169
       5       -0.000018394136    -0.003214609969     0.003316600329
       6       -0.000001758310     0.000006973286     0.000012572386
       7        0.000010026666     0.000003088169    -0.000000323202
       8        0.000004272445     0.000016248105     0.000001020849
       9        0.000000257553     0.000000332022    -0.000001346908
      10        0.000003341196    -0.000001071364     0.000002985464
      11       -0.000007845507    -0.000000619320     0.000005252158

  **** Optimization is complete! (in 7 steps) ****
    Final optimized geometry and variables:
    Molecular point group: c1

    Geometry (in Angstrom), charge = 0, multiplicity = 1:

    H           -1.667542077067     0.702301694899    -0.520928277877
    C           -1.175507959622    -0.263269709954    -0.392789891000
    O            0.145015833750    -0.171836169206    -0.292464061333
    O           -1.766159682225    -1.273210298804    -0.337156662486
    C            0.655251142784     0.777411875732     0.627451670677
    C            2.138501179894     0.928471548627     0.386638791447
    H            0.459613807787     0.425734160669     1.633330349773
    H            0.144523670271     1.726805133581     0.494478019121
    H            2.640473607121    -0.021766859740     0.511516233530
    H            2.556048242306     1.635949068752     1.093042379701
    H            2.327453660710     1.287958539379    -0.616620374183

  Mulliken Charges: (a.u.)
   Center  Symbol    Alpha    Beta     Spin     Total
       1     H     0.47435  0.47435  0.00000  0.05131
       2     C     2.84122  2.84122  0.00000  0.31755
       3     O     4.13962  4.13962  0.00000 -0.27924
       4     O     4.16682  4.16682  0.00000 -0.33364
       5     C     2.97400  2.97400  0.00000  0.05200
       6     C     3.13292  3.13292  0.00000 -0.26584
       7     H     0.45657  0.45657  0.00000  0.08685
       8     H     0.46461  0.46461  0.00000  0.07079
       9     H     0.44501  0.44501  0.00000  0.10998
      10     H     0.45556  0.45556  0.00000  0.08888
      11     H     0.44932  0.44932  0.00000  0.10135

   Total alpha = 20.00000, Total beta = 20.00000, Total charge =  0.00000
