                              Psi4 1.0.54 Driver

  ==> Input File <==

--------------------------------------------------------------------------
set {
	reference rhf
	basis cc-pvtz
}

set_num_threads( 4 )
memory 2 gb

molecule MOL {
0 1

H	 -1.752232	 -2.214755	 -0.011938
C	 -1.343852	 -1.221619	 -0.018179
N	 -0.058800	 -1.097635	 -0.261688
C	 -2.148159	 -0.124236	 0.219734
C	 0.449026	 0.119242	 -0.273393
H	 -3.196988	 -0.237571	 0.417076
N	 -1.655094	 1.094230	 0.209506
C	 -0.370318	 1.215445	 -0.035100
C	 1.924033	 0.265863	 -0.538106
H	 0.033214	 2.210441	 -0.046812
C	 2.699517	 0.738431	 0.692648
H	 2.307089	 -0.696019	 -0.857189
H	 2.075021	 0.959662	 -1.356677
H	 3.758820	 0.798926	 0.473214
H	 2.561372	 0.051139	 1.516981
H	 2.365814	 1.719617	 1.011181

	symmetry c1
}
set optking {
	frozen_dihedral = ("
		12 9 5 3
	")
}

ee,wfn = optimize('scf', return_wfn=True)
oeprop( wfn, 'DIPOLE', 'QUADRUPOLE', 'MULLIKEN_CHARGES')
f=open( 'psi4out.xyz', 'w' )
f.write( "16  " )
f.write( str(ee) + "\n" )
f.write( MOL.save_string_xyz() )
f.close()
--------------------------------------------------------------------------

    Molecular point group: c1
  Charge       = 0
  Multiplicity = 1
  Basis Set: CC-PVTZ
  Basis Set:
  @DF-RHF Final Energy:  -340.87111994617857
    Total Energy =                       -340.8711199461783963
    Molecular point group: c1
  Basis Set: CC-PVTZ
  Basis Set:
  Basis Set: CC-PVTZ
  Basis Set:
  @DF-RHF Final Energy:  -340.87121537086097
    Total Energy =                       -340.8712153708607957
  Basis Set: CC-PVTZ
  Basis Set:
  Basis Set: CC-PVTZ
  Basis Set:
  @DF-RHF Final Energy:  -340.87125284434626
    Total Energy =                       -340.8712528443462020
  Basis Set: CC-PVTZ
  Basis Set:
  Basis Set: CC-PVTZ
  Basis Set:
  @DF-RHF Final Energy:  -340.87126788790044
    Total Energy =                       -340.8712678879006717
  Basis Set: CC-PVTZ
  Basis Set:
  Basis Set: CC-PVTZ
  Basis Set:
  @DF-RHF Final Energy:  -340.87127200582205
    Total Energy =                       -340.8712720058221066
  Basis Set: CC-PVTZ
  Basis Set:
  Charge       = 0
  Multiplicity = 1
  Basis Set: CC-PVTZ
  Basis Set:

    Orbital Energies (a.u.)
    -----------------------

    Doubly Occupied:

       1A    -15.580519     2A    -15.575781     3A    -11.279009
       4A    -11.270808     5A    -11.269448     6A    -11.266789
       7A    -11.231470     8A    -11.221125     9A     -1.315679
      10A     -1.223706    11A     -1.086767    12A     -1.016368
      13A     -0.905454    14A     -0.897007    15A     -0.831339
      16A     -0.717507    17A     -0.713944    18A     -0.658188
      19A     -0.614414    20A     -0.607250    21A     -0.584644
      22A     -0.564744    23A     -0.523886    24A     -0.510865
      25A     -0.505553    26A     -0.484524    27A     -0.434035
      28A     -0.397722    29A     -0.346361

  @DF-RHF Final Energy:  -340.87127226187488

   => Energetics <=

    Nuclear Repulsion Energy =            350.3013013945750345
    One-Electron Energy =               -1155.0753310332627279
    Two-Electron Energy =                 463.9027573768128718
    DFT Exchange-Correlation Energy =       0.0000000000000000
    Empirical Dispersion Energy =           0.0000000000000000
    PCM Polarization Energy =               0.0000000000000000
    EFP Energy =                            0.0000000000000000
    Total Energy =                       -340.8712722618748217
    Molecular point group: c1
  Basis Set: CC-PVTZ
  Basis Set:

  -Total Gradient:
     Atom            X                  Y                   Z
    ------   -----------------  -----------------  -----------------
       1        0.000006816976    -0.000001344029     0.000036678545
       2       -0.000026021237    -0.000001417600    -0.000066864026
       3       -0.000205837416     0.000081178326    -0.001143247267
       4       -0.000001003556     0.000002764963    -0.000039841987
       5        0.000369849402    -0.000214631212     0.001914928621
       6        0.000005516423     0.000002340973     0.000031279529
       7        0.000000592154     0.000006420967    -0.000014315174
       8       -0.000002538814    -0.000000547087     0.000057937642
       9       -0.000414662555     0.000455198196    -0.001990623394
      10       -0.000007852742    -0.000002566351    -0.000017689798
      11       -0.000001294171    -0.000017318534    -0.000002303664
      12        0.000260396312    -0.000320113637     0.001236722960
      13        0.000004424892    -0.000005205155    -0.000005348860
      14        0.000019118219    -0.000006714852     0.000001556653
      15       -0.000007191537     0.000007191548     0.000000593824
      16       -0.000000312346     0.000014763483     0.000000536397

  **** Optimization is complete! (in 6 steps) ****
    Final optimized geometry and variables:
    Molecular point group: c1

    Geometry (in Angstrom), charge = 0, multiplicity = 1:

    H           -1.749207054105    -2.345967360627    -0.011076174767
    C           -1.341017217457    -1.353166969371    -0.021237055227
    N           -0.048814623056    -1.233851639838    -0.260815976974
    C           -2.140862702065    -0.257078754230     0.203847721946
    C            0.461163953586    -0.023228229497    -0.273170019977
    H           -3.190840663850    -0.364200750297     0.396833527128
    N           -1.643569411661     0.965392262836     0.185237559110
    C           -0.362029091714     1.080538607069    -0.050284079008
    C            1.936174451405     0.132951684935    -0.542028730054
    H            0.043564508999     2.075004039651    -0.072393561834
    C            2.725823961098     0.604491905699     0.681782936172
    H            2.310905886527    -0.828569455936    -0.862726970198
    H            2.081075954881     0.833043973910    -1.358151520205
    H            3.779697214128     0.683143433341     0.443249874707
    H            2.617728673222    -0.095112375621     1.502027629622
    H            2.389801507824     1.575819053216     1.025319435233

  Mulliken Charges: (a.u.)
   Center  Symbol    Alpha    Beta     Spin     Total
       1     H     0.41369  0.41369  0.00000  0.17262
       2     C     3.04128  3.04128  0.00000 -0.08255
       3     N     3.59231  3.59231  0.00000 -0.18462
       4     C     3.04841  3.04841  0.00000 -0.09682
       5     C     2.94281  2.94281  0.00000  0.11439
       6     H     0.41345  0.41345  0.00000  0.17311
       7     N     3.58714  3.58714  0.00000 -0.17427
       8     C     3.07822  3.07822  0.00000 -0.15643
       9     C     3.08650  3.08650  0.00000 -0.17299
      10     H     0.41467  0.41467  0.00000  0.17066
      11     C     3.14487  3.14487  0.00000 -0.28973
      12     H     0.44046  0.44046  0.00000  0.11908
      13     H     0.44587  0.44587  0.00000  0.10826
      14     H     0.44754  0.44754  0.00000  0.10493
      15     H     0.44860  0.44860  0.00000  0.10279
      16     H     0.45420  0.45420  0.00000  0.09160

   Total alpha = 29.00000, Total beta = 29.00000, Total charge = -0.00000

*** Psi4 exiting successfully. Buy a developer a beer!
