  ==> Input File <==

--------------------------------------------------------------------------
set {
	reference rhf
	basis 6-31G*
}

set_num_threads( 4 )
memory 2 gb

molecule MOL {
0 1

H	 -2.844839	 -2.057658	 2.789134
C	 -2.663517	 -1.513080	 1.882923
C	 -1.466603	 -1.521013	 1.343170
H	 -3.476678	 -0.970770	 1.438422
O	 -1.180634	 -0.819263	 0.215062
H	 -0.640829	 -2.063504	 1.768608
C	 0.051604	 -1.018856	 -0.387932
C	 1.043764	 0.054862	 -0.001873
H	 -0.017620	 -1.041351	 -1.469781
H	 0.437898	 -1.966374	 -0.042284
F	 2.212596	 -0.199467	 -0.571921
F	 0.652529	 1.252447	 -0.405055
F	 1.230877	 0.110694	 1.300533

	symmetry c1
}
set optking {
	frozen_dihedral = ("
		3 5 7 9
	")
}

ee = optimize('scf')
oeprop('DIPOLE', 'QUADRUPOLE', 'MULLIKEN_CHARGES')
f=open( 'psi4out.xyz', 'w' )
f.write( "13  " )
f.write( str(ee) + "\n" )
f.write( MOL.save_string_xyz() )
f.close()
--------------------------------------------------------------------------

    Molecular point group: c1
  Charge       = 0
  Multiplicity = 1
  Basis Set: 6-31G*
  Basis Set:
  @DF-RHF Final Energy:  -527.53396279434560
    Total Energy =                       -527.5339627943459391
    Molecular point group: c1
  Basis Set: 6-31G*
  Basis Set:
  Basis Set: 6-31G*
  Basis Set:
  @DF-RHF Final Energy:  -527.53522820486842
    Total Energy =                       -527.5352282048681900
  Basis Set: 6-31G*
  Basis Set:
  Basis Set: 6-31G*
  Basis Set:
  @DF-RHF Final Energy:  -527.53545454939001
    Total Energy =                       -527.5354545493896694
  Basis Set: 6-31G*
  Basis Set:
  Basis Set: 6-31G*
  Basis Set:
  @DF-RHF Final Energy:  -527.53546176429927
    Total Energy =                       -527.5354617642985886
  Basis Set: 6-31G*
  Basis Set:
  Basis Set: 6-31G*
  Basis Set:
  @DF-RHF Final Energy:  -527.53546417210941
    Total Energy =                       -527.5354641721100961
  Basis Set: 6-31G*
  Basis Set:
  Charge       = 0
  Multiplicity = 1
  Basis Set: 6-31G*
  Basis Set:

    Orbital Energies (a.u.)
    -----------------------

    Doubly Occupied:

       1A    -26.344196     2A    -26.342588     3A    -26.340000
       4A    -20.607943     5A    -11.502699     6A    -11.318855
       7A    -11.300530     8A    -11.216559     9A     -1.741088
      10A     -1.639249    11A     -1.637598    12A     -1.438126
      13A     -1.085382    14A     -1.016032    15A     -0.924828
      16A     -0.836476    17A     -0.830665    18A     -0.818110
      19A     -0.794110    20A     -0.723717    21A     -0.711235
      22A     -0.698427    23A     -0.675832    24A     -0.658878
      25A     -0.653979    26A     -0.642440    27A     -0.629590
      28A     -0.587231    29A     -0.563343    30A     -0.527961
      31A     -0.510870    32A     -0.352039

  @DF-RHF Final Energy:  -527.53546471245863

   => Energetics <=

    Nuclear Repulsion Energy =            411.2465953754314683
    One-Electron Energy =               -1546.2229671920597411
    Two-Electron Energy =                 607.4409071041700372
    DFT Exchange-Correlation Energy =       0.0000000000000000
    Empirical Dispersion Energy =           0.0000000000000000
    PCM Polarization Energy =               0.0000000000000000
    EFP Energy =                            0.0000000000000000
    Total Energy =                       -527.5354647124581788
    Molecular point group: c1
  Basis Set: 6-31G*
  Basis Set:

  -Total Gradient:
     Atom            X                  Y                   Z
    ------   -----------------  -----------------  -----------------
       1       -0.000002452403    -0.000013188216    -0.000008864261
       2        0.000003785986     0.000014570757     0.000010131583
       3       -0.000508667193    -0.000852615751    -0.000704679442
       4        0.000002151731    -0.000002658493     0.000000197084
       5        0.000692493349     0.000909614806     0.001079484186
       6       -0.000005640189    -0.000025606734    -0.000014564763
       7        0.000037914044     0.001403555025    -0.000412609681
       8       -0.000084244735     0.000008233004    -0.000063475586
       9       -0.000210938056    -0.001450509256     0.000027388550
      10       -0.000016030898     0.000022098369     0.000024418294
      11        0.000011078279     0.000031806916     0.000000925658
      12        0.000061378123    -0.000083897968     0.000051201303
      13        0.000019171967     0.000038597541     0.000010447073

  **** Optimization is complete! (in 6 steps) ****
    Final optimized geometry and variables:
    Molecular point group: c1

    Geometry (in Angstrom), charge = 0, multiplicity = 1:

    H           -3.001055069511    -1.685377018601     2.387007913442
    C           -2.800138908764    -1.131805302985     1.490403541101
    C           -1.594287012551    -1.144462035615     0.970505485173
    H           -3.598480887300    -0.568673593380     1.044752720716
    O           -1.287230490000    -0.446911170712    -0.153177952517
    H           -0.780208375205    -1.696015737466     1.406617314966
    C           -0.055842130937    -0.668608341314    -0.753115891736
    C            0.915629968463     0.429410545901    -0.390713026988
    H           -0.189531496270    -0.674234348839    -1.825511387588
    H            0.383257351656    -1.613904698808    -0.457282294676
    F            2.079654014528     0.207073919404    -0.983548939400
    F            0.488725837695     1.616282298821    -0.768749417207
    F            1.129143948179     0.472673962116     0.913781844120

  Mulliken Charges: (a.u.)
   Center  Symbol    Alpha    Beta     Spin     Total
       1     H     0.40707  0.40707  0.00000  0.18587
       2     C     3.23566  3.23566  0.00000 -0.47131
       3     C     2.89603  2.89603  0.00000  0.20795
       4     H     0.40174  0.40174  0.00000  0.19653
       5     O     4.30247  4.30247  0.00000 -0.60495
       6     H     0.40600  0.40600  0.00000  0.18799
       7     C     3.06287  3.06287  0.00000 -0.12573
       8     C     2.45349  2.45349  0.00000  1.09303
       9     H     0.39127  0.39127  0.00000  0.21746
      10     H     0.40552  0.40552  0.00000  0.18897
      11     F     4.68309  4.68309  0.00000 -0.36619
      12     F     4.67471  4.67471  0.00000 -0.34942
      13     F     4.68010  4.68010  0.00000 -0.36020

   Total alpha = 32.00000, Total beta = 32.00000, Total charge =  0.00000
