  ==> Input File <==

--------------------------------------------------------------------------
set {
	reference rhf
	basis 6-31G*
}

set_num_threads( 4 )
memory 2 gb

molecule MOL {
0 1

H	 3.908541	 -3.025906	 -1.028046
C	 3.544111	 -2.186852	 -1.612597
C	 2.156100	 -1.749967	 -1.145978
H	 4.261208	 -1.377512	 -1.512180
H	 3.531565	 -2.490969	 -2.655744
C	 1.609034	 -0.571691	 -1.954802
H	 2.199896	 -1.478806	 -0.096142
H	 1.468886	 -2.590852	 -1.225607
C	 0.212854	 -0.123495	 -1.522290
H	 2.288788	 0.269481	 -1.877282
H	 1.568342	 -0.850362	 -3.005387
C	 0.169600	 0.576866	 -0.172154
H	 -0.188774	 0.580488	 -2.249527
H	 -0.479119	 -0.962694	 -1.512587
C	 -1.181045	 0.701995	 0.511084
O	 1.154146	 1.030239	 0.329371
C	 -2.285934	 -0.139295	 -0.145128
H	 -1.449051	 1.751551	 0.493206
H	 -1.071135	 0.403303	 1.551943
C	 -3.651768	 0.085446	 0.506485
H	 -2.346596	 0.110469	 -1.202272
H	 -2.034737	 -1.195320	 -0.088721
C	 -4.759797	 -0.746382	 -0.137905
H	 -3.908762	 1.140117	 0.445781
H	 -3.588286	 -0.154158	 1.565709
H	 -4.868882	 -0.505166	 -1.191300
H	 -4.548009	 -1.809175	 -0.062213
H	 -5.715422	 -0.564821	 0.343442

	symmetry c1
}
set optking {
	frozen_dihedral = ("
		16 12 15 17
	")
}

ee = optimize('scf')
oeprop('DIPOLE', 'QUADRUPOLE', 'MULLIKEN_CHARGES')
f=open( 'psi4out.xyz', 'w' )
f.write( "28  " )
f.write( str(ee) + "\n" )
f.write( MOL.save_string_xyz() )
f.close()
--------------------------------------------------------------------------

    Molecular point group: c1
  Charge       = 0
  Multiplicity = 1
  Basis Set: 6-31G*
  Basis Set:
  @DF-RHF Final Energy:  -426.16337403909972
    Total Energy =                       -426.1633740390992671
    Molecular point group: c1
  Basis Set: 6-31G*
  Basis Set:
  Basis Set: 6-31G*
  Basis Set:
  @DF-RHF Final Energy:  -426.16483243776520
    Total Energy =                       -426.1648324377654262
  Basis Set: 6-31G*
  Basis Set:
  Basis Set: 6-31G*
  Basis Set:
  @DF-RHF Final Energy:  -426.16660508412144
    Total Energy =                       -426.1666050841207607
  Basis Set: 6-31G*
  Basis Set:
  Basis Set: 6-31G*
  Basis Set:
  @DF-RHF Final Energy:  -426.16687116817195
    Total Energy =                       -426.1668711681722925
  Basis Set: 6-31G*
  Basis Set:
  @DF-RHF Final Energy:  -426.16659158002460
    Total Energy =                       -426.1665915800248285
  @DF-RHF Final Energy:  -426.16688963716922
    Total Energy =                       -426.1668896371693336
  Basis Set: 6-31G*
  Basis Set:
  @DF-RHF Final Energy:  -426.16694277866122
    Total Energy =                       -426.1669427786612232
  Basis Set: 6-31G*
  Basis Set:
  Basis Set: 6-31G*
  Basis Set:
  @DF-RHF Final Energy:  -426.16689888969256
    Total Energy =                       -426.1668988896927885
  Basis Set: 6-31G*
  Basis Set:
  Basis Set: 6-31G*
  Basis Set:
  @DF-RHF Final Energy:  -426.16696436135362
    Total Energy =                       -426.1669643613531662
  Basis Set: 6-31G*
  Basis Set:
  Charge       = 0
  Multiplicity = 1
  Basis Set: 6-31G*
  Basis Set:

    Orbital Energies (a.u.)
    -----------------------

    Doubly Occupied:

       1A    -20.545329     2A    -11.324175     3A    -11.230511
       4A    -11.230480     5A    -11.229913     6A    -11.226256
       7A    -11.216788     8A    -11.215680     9A    -11.210322
      10A    -11.204506    11A     -1.392604    12A     -1.095071
      13A     -1.076478    14A     -1.021255    15A     -0.990632
      16A     -0.906154    17A     -0.875740    18A     -0.809831
      19A     -0.799651    20A     -0.720505    21A     -0.664807
      22A     -0.659730    23A     -0.627378    24A     -0.618051
      25A     -0.607887    26A     -0.586787    27A     -0.581545
      28A     -0.571259    29A     -0.542441    30A     -0.530036
      31A     -0.522807    32A     -0.512200    33A     -0.491269
      34A     -0.486763    35A     -0.480501    36A     -0.474261
      37A     -0.469131    38A     -0.464634    39A     -0.453695
      40A     -0.391849

  @DF-RHF Final Energy:  -426.16696376381856

   => Energetics <=

    Nuclear Repulsion Energy =            531.9819503288648548
    One-Electron Energy =               -1632.1800043208334046
    Two-Electron Energy =                 674.0310902281498784
    DFT Exchange-Correlation Energy =       0.0000000000000000
    Empirical Dispersion Energy =           0.0000000000000000
    PCM Polarization Energy =               0.0000000000000000
    EFP Energy =                            0.0000000000000000
    Total Energy =                       -426.1669637638187851
    Molecular point group: c1
  Basis Set: 6-31G*
  Basis Set:

  -Total Gradient:
     Atom            X                  Y                   Z
    ------   -----------------  -----------------  -----------------
       1       -0.000000913888     0.000005008121     0.000004109710
       2       -0.000002038543     0.000009665717     0.000005610688
       3        0.000003011635    -0.000024245925    -0.000009863912
       4        0.000004698772     0.000001940550    -0.000005864649
       5       -0.000000110035    -0.000002734061     0.000002544577
       6       -0.000002702210     0.000022804554     0.000014756207
       7       -0.000010901422    -0.000002541314    -0.000001970864
       8        0.000003974213    -0.000005573564    -0.000004327841
       9        0.000010193330    -0.000012085174     0.000012588755
      10        0.000014275396     0.000006806636    -0.000006888490
      11       -0.000015657889     0.000001284878     0.000003805118
      12        0.000061123574    -0.000988134503     0.000492362632
      13        0.000012677053     0.000004703119     0.000017514325
      14       -0.000001750275    -0.000003553352    -0.000001254880
      15        0.000120449003    -0.000569468928     0.000535568152
      16       -0.000080226875     0.000943761563    -0.000573567860
      17       -0.000117969771     0.000631908621    -0.000503862387
      18        0.000007805578     0.000007109977     0.000005714582
      19       -0.000008469642    -0.000007923771    -0.000015259923
      20        0.000011019846    -0.000032001657     0.000028074495
      21       -0.000010599157    -0.000014962775     0.000002346814
      22        0.000020115965    -0.000000768606     0.000018469210
      23       -0.000012160969     0.000041746795    -0.000032430997
      24        0.000013920840     0.000001459578     0.000024401609
      25       -0.000013193702    -0.000023943740    -0.000002144540
      26       -0.000004929739    -0.000012223264    -0.000011506313
      27        0.000004991080     0.000012217677     0.000012612441
      28       -0.000006632174     0.000009742845    -0.000011536658

  **** Optimization is complete! (in 10 steps) ****
    Final optimized geometry and variables:
    Molecular point group: c1

    Geometry (in Angstrom), charge = 0, multiplicity = 1:

    H            4.594009203012    -2.437321850051    -0.603683174621
    C            4.121681112869    -1.627704760998    -1.151409132663
    C            2.692808823412    -1.391326828757    -0.664016886893
    H            4.730839187982    -0.738652711111    -1.017453791815
    H            4.141045234866    -1.886800613378    -2.206640811093
    C            1.994244098352    -0.261081507227    -1.423543890588
    H            2.707475651898    -1.159572778362     0.395159552067
    H            2.117962363604    -2.309074848594    -0.778951541377
    C            0.556989811982    -0.007810018563    -0.968951683471
    H            2.566754051823     0.654209533971    -1.320592721918
    H            1.976808524390    -0.505656853062    -2.483344006644
    C            0.436716996459     0.685184220035     0.377273906333
    H            0.039781373464     0.623385501602    -1.690798152282
    H           -0.006333904699    -0.937005795672    -0.942737384434
    C           -0.945445618900     0.930800377508     0.977175075787
    O            1.396105635701     1.097892234401     0.956949730540
    C           -2.147817869012     0.209590564628     0.365009694202
    H           -1.098760141706     2.006868137784     0.922068297410
    H           -0.862028796442     0.700539946613     2.034623842487
    C           -3.456206254272     0.576464837530     1.069405906637
    H           -2.235266037911     0.452318850626    -0.690834740532
    H           -2.005857584396    -0.867275493467     0.423372029595
    C           -4.671705838787    -0.128114481838     0.468684226626
    H           -3.601464284382     1.653326315572     1.019990402948
    H           -3.378677063479     0.327219571757     2.125180236683
    H           -4.795261923116     0.127370626955    -0.579901634715
    H           -4.572599257212    -1.207726538213     0.536214037805
    H           -5.583004693423     0.152998197591     0.986768820567

  Mulliken Charges: (a.u.)
   Center  Symbol    Alpha    Beta     Spin     Total
       1     H     0.41954  0.41954  0.00000  0.16093
       2     C     3.24029  3.24029  0.00000 -0.48058
       3     C     3.15606  3.15606  0.00000 -0.31211
       4     H     0.41853  0.41853  0.00000  0.16294
       5     H     0.42411  0.42411  0.00000  0.15178
       6     C     3.14782  3.14782  0.00000 -0.29565
       7     H     0.40755  0.40755  0.00000  0.18489
       8     H     0.42846  0.42846  0.00000  0.14308
       9     C     3.21487  3.21487  0.00000 -0.42974
      10     H     0.40817  0.40817  0.00000  0.18365
      11     H     0.42234  0.42234  0.00000  0.15532
      12     C     2.73477  2.73477  0.00000  0.53047
      13     H     0.40584  0.40584  0.00000  0.18832
      14     H     0.40791  0.40791  0.00000  0.18418
      15     C     3.20171  3.20171  0.00000 -0.40342
      16     O     4.26913  4.26913  0.00000 -0.53827
      17     C     3.16069  3.16069  0.00000 -0.32138
      18     H     0.40218  0.40218  0.00000  0.19565
      19     H     0.39977  0.39977  0.00000  0.20047
      20     C     3.15235  3.15235  0.00000 -0.30469
      21     H     0.41967  0.41967  0.00000  0.16065
      22     H     0.41946  0.41946  0.00000  0.16109
      23     C     3.23985  3.23985  0.00000 -0.47969
      24     H     0.42073  0.42073  0.00000  0.15854
      25     H     0.41984  0.41984  0.00000  0.16032
      26     H     0.42098  0.42098  0.00000  0.15805
      27     H     0.42065  0.42065  0.00000  0.15870
      28     H     0.41675  0.41675  0.00000  0.16650

   Total alpha = 40.00000, Total beta = 40.00000, Total charge =  0.00000
