  ==> Input File <==

--------------------------------------------------------------------------
set {
	reference rhf
	basis 6-31G*
}

set_num_threads( 1 )
memory 2 gb

molecule MOL {
0 1

H	 -3.058441	 0.541952	 -2.140778
C	 -2.366000	 -0.135001	 -1.679346
C	 -2.076860	 -0.007332	 -0.404944
H	 -1.924307	 -0.906849	 -2.281068
O	 -1.180634	 -0.819263	 0.215062
H	 -2.513689	 0.754266	 0.216622
C	 0.051604	 -1.018856	 -0.387932
C	 1.043764	 0.054862	 -0.001873
H	 -0.017620	 -1.041351	 -1.469781
H	 0.437898	 -1.966374	 -0.042284
F	 2.212596	 -0.199467	 -0.571921
F	 0.652529	 1.252447	 -0.405055
F	 1.230877	 0.110694	 1.300533

	symmetry c1
}
set optking {
	frozen_dihedral = ("
		11 8 7 9,
		3 5 7 9,
		6 3 2 1
	")
}

ee = energy('scf')
oeprop('DIPOLE', 'QUADRUPOLE', 'MULLIKEN_CHARGES')
f=open( 'psi4out.xyz', 'w' )
f.write( "13  " )
f.write( str(ee) + "\n" )
f.write( MOL.save_string_xyz() )
f.close()
--------------------------------------------------------------------------

    Molecular point group: c1

    Geometry (in Angstrom), charge = 0, multiplicity = 1:

       Center              X                  Y                   Z               Mass
    ------------   -----------------  -----------------  -----------------  -----------------
           H         -3.150736427092     0.596787386328    -1.935554193603     1.007825032070
           C         -2.458295427092    -0.080165613672    -1.474122193603    12.000000000000
           C         -2.169155427092     0.047503386328    -0.199720193603    12.000000000000
           H         -2.016602427092    -0.852013613672    -2.075844193603     1.007825032070
           O         -1.272929427092    -0.764427613672     0.420285806397    15.994914619560
           H         -2.605984427092     0.809101386328     0.421845806397     1.007825032070
           C         -0.040691427092    -0.964020613672    -0.182708193603    12.000000000000
           C          0.951468572908     0.109697386328     0.203350806397    12.000000000000
           H         -0.109915427092    -0.986515613672    -1.264557193603     1.007825032070
           H          0.345602572908    -1.911538613672     0.162939806397     1.007825032070
           F          2.120300572908    -0.144631613672    -0.366697193603    18.998403224000
           F          0.560233572908     1.307282386328    -0.199831193603    18.998403224000
           F          1.138581572908     0.165529386328     1.505756806397    18.998403224000

  Charge       = 0
  Multiplicity = 1
  Basis Set: 6-31G*
  Basis Set:

    Orbital Energies (a.u.)
    -----------------------

    Doubly Occupied:

       1A    -26.341827     2A    -26.339354     3A    -26.338541
       4A    -20.602479     5A    -11.499911     6A    -11.313844
       7A    -11.299949     8A    -11.224018     9A     -1.738741
      10A     -1.636850    11A     -1.635277    12A     -1.435240
      13A     -1.077850    14A     -1.022572    15A     -0.928945
      16A     -0.835771    17A     -0.828328    18A     -0.826697
      19A     -0.760041    20A     -0.727251    21A     -0.710608
      22A     -0.701225    23A     -0.672437    24A     -0.658271
      25A     -0.654783    26A     -0.642482    27A     -0.640208
      28A     -0.589603    29A     -0.559542    30A     -0.532420
      31A     -0.486879    32A     -0.364844

  @DF-RHF Final Energy:  -527.53037730600090

   => Energetics <=

    Nuclear Repulsion Energy =            418.0594606071206272
    One-Electron Energy =               -1559.9260720238473823
    Two-Electron Energy =                 614.3362341107253997
    DFT Exchange-Correlation Energy =       0.0000000000000000
    Empirical Dispersion Energy =           0.0000000000000000
    PCM Polarization Energy =               0.0000000000000000
    EFP Energy =                            0.0000000000000000
    Total Energy =                       -527.5303773060013555

  Mulliken Charges: (a.u.)
   Center  Symbol    Alpha    Beta     Spin     Total
       1     H     0.40397  0.40397  0.00000  0.19205
       2     C     3.23260  3.23260  0.00000 -0.46519
       3     C     2.90239  2.90239  0.00000  0.19522
       4     H     0.40775  0.40775  0.00000  0.18451
       5     O     4.30754  4.30754  0.00000 -0.61507
       6     H     0.39628  0.39628  0.00000  0.20744
       7     C     3.05643  3.05643  0.00000 -0.11285
       8     C     2.45679  2.45679  0.00000  1.08641
       9     H     0.40444  0.40444  0.00000  0.19113
      10     H     0.39398  0.39398  0.00000  0.21203
      11     F     4.68317  4.68317  0.00000 -0.36633
      12     F     4.67897  4.67897  0.00000 -0.35794
      13     F     4.67570  4.67570  0.00000 -0.35140

   Total alpha = 32.00000, Total beta = 32.00000, Total charge = -0.00000
