                              Psi4 1.0.54 Driver

  ==> Input File <==

--------------------------------------------------------------------------
set {
	reference rhf
	basis cc-pvtz
}

set_num_threads( 4 )
memory 2 gb

molecule MOL {
0 1

H	 2.019897	 1.390682	 0.856912
O	 1.145859	 1.032601	 0.896550
C	 1.050374	 0.054877	 0.000135
C	 -0.318151	 -0.570512	 0.000144
O	 1.956813	 -0.253784	 -0.693454
C	 -1.454884	 0.441630	 -0.000560
H	 -0.371613	 -1.223646	 -0.864985
H	 -0.371920	 -1.222758	 0.865929
C	 -2.822577	 -0.232186	 0.000063
H	 -1.359760	 1.084704	 -0.867077
H	 -1.359641	 1.085996	 0.864983
H	 -2.954352	 -0.858985	 -0.875745
H	 -3.615886	 0.505352	 0.000019
H	 -2.953878	 -0.858359	 0.876394

	symmetry c1
}
set optking {
	frozen_dihedral = ("
		2 3 4 7
	")
}

ee,wfn = optimize('scf', return_wfn=True)
oeprop( wfn, 'DIPOLE', 'QUADRUPOLE', 'MULLIKEN_CHARGES')
f=open( 'psi4out.xyz', 'w' )
f.write( "14  " )
f.write( str(ee) + "\n" )
f.write( MOL.save_string_xyz() )
f.close()
--------------------------------------------------------------------------

    Molecular point group: c1
  Charge       = 0
  Multiplicity = 1
  Basis Set: CC-PVTZ
  Basis Set:
  @DF-RHF Final Energy:  -305.99895743492874
    Total Energy =                       -305.9989574349283430
    Molecular point group: c1
  Basis Set: CC-PVTZ
  Basis Set:
  Basis Set: CC-PVTZ
  Basis Set:
  @DF-RHF Final Energy:  -305.99910175815120
    Total Energy =                       -305.9991017581513120
  Basis Set: CC-PVTZ
  Basis Set:
  Basis Set: CC-PVTZ
  Basis Set:
  @DF-RHF Final Energy:  -305.99927487499633
    Total Energy =                       -305.9992748749965585
  Basis Set: CC-PVTZ
  Basis Set:
  Basis Set: CC-PVTZ
  Basis Set:
  @DF-RHF Final Energy:  -305.99935068568902
    Total Energy =                       -305.9993506856890804
  Basis Set: CC-PVTZ
  Basis Set:
  Basis Set: CC-PVTZ
  Basis Set:
  @DF-RHF Final Energy:  -305.99935199846647
    Total Energy =                       -305.9993519984664090
  Basis Set: CC-PVTZ
  Basis Set:
  Charge       = 0
  Multiplicity = 1
  Basis Set: CC-PVTZ
  Basis Set:

    Orbital Energies (a.u.)
    -----------------------

    Doubly Occupied:

       1A    -20.605402     2A    -20.539171     3A    -11.373348
       4A    -11.239216     5A    -11.231204     6A    -11.218638
       7A     -1.478142     8A     -1.368354     9A     -1.087223
      10A     -0.980297    11A     -0.849498    12A     -0.817522
      13A     -0.704737    14A     -0.687210    15A     -0.657101
      16A     -0.627241    17A     -0.594972    18A     -0.565997
      19A     -0.552925    20A     -0.523257    21A     -0.500113
      22A     -0.488807    23A     -0.477602    24A     -0.440530

  @DF-RHF Final Energy:  -305.99935235822750

   => Energetics <=

    Nuclear Repulsion Energy =            240.9103119362716541
    One-Electron Energy =                -894.6023191470113716
    Two-Electron Energy =                 347.6926548525121916
    DFT Exchange-Correlation Energy =       0.0000000000000000
    Empirical Dispersion Energy =           0.0000000000000000
    PCM Polarization Energy =               0.0000000000000000
    EFP Energy =                            0.0000000000000000
    Total Energy =                       -305.9993523582274975
    Molecular point group: c1
  Basis Set: CC-PVTZ
  Basis Set:

  -Total Gradient:
     Atom            X                  Y                   Z
    ------   -----------------  -----------------  -----------------
       1        0.000002821681     0.000005486946     0.000003519735
       2       -0.000230794667     0.000486694705    -0.000489403747
       3        0.000257306444    -0.000551509271     0.000549052153
       4        0.000267647978    -0.000568843791     0.000381560766
       5       -0.000005664652     0.000013764856     0.000014041914
       6        0.000034826771    -0.000032362517    -0.000001886625
       7       -0.000304326667     0.000633659989    -0.000460354174
       8        0.000007490804    -0.000011564919    -0.000001931204
       9       -0.000011053694     0.000011679749    -0.000000854370
      10       -0.000013027868     0.000001576551     0.000006549295
      11       -0.000005109068     0.000010640784     0.000000702096
      12        0.000002541188     0.000000544434    -0.000001060760
      13       -0.000007878639    -0.000000600319     0.000000492274
      14        0.000005220395     0.000000832803    -0.000000427351

  **** Optimization is complete! (in 6 steps) ****
    Final optimized geometry and variables:
    Molecular point group: c1

    Geometry (in Angstrom), charge = 0, multiplicity = 1:

    H            2.126264187689     1.283099186264     0.746591068034
    O            1.242970824563     0.953287014278     0.816146464725
    C            1.094885939606    -0.032521605267    -0.063662298523
    C           -0.274278332692    -0.657231187593    -0.023346497083
    O            1.973803726506    -0.370133541228    -0.779653161232
    C           -1.430196615217     0.344188493715    -0.004319659037
    H           -0.343183180516    -1.309212990040    -0.882168755787
    H           -0.311397282214    -1.278090722842     0.867183825650
    C           -2.785444286528    -0.353922516470    -0.014784893900
    H           -1.352702322554     0.997325624968    -0.867867282473
    H           -1.348355030171     0.975905007680     0.870456744248
    H           -2.903824529072    -0.971340072509    -0.898514356367
    H           -3.592183869920     0.368960624465    -0.005254136837
    H           -2.903084637494    -0.993045779323     0.853871146703

  Mulliken Charges: (a.u.)
   Center  Symbol    Alpha    Beta     Spin     Total
       1     H     0.38070  0.38070  0.00000  0.23859
       2     O     4.16130  4.16130  0.00000 -0.32260
       3     C     2.81063  2.81063  0.00000  0.37875
       4     C     3.08781  3.08781  0.00000 -0.17563
       5     O     4.19339  4.19339  0.00000 -0.38678
       6     C     3.09017  3.09017  0.00000 -0.18035
       7     H     0.43574  0.43574  0.00000  0.12852
       8     H     0.44532  0.44532  0.00000  0.10936
       9     C     3.15028  3.15028  0.00000 -0.30056
      10     H     0.44921  0.44921  0.00000  0.10158
      11     H     0.44242  0.44242  0.00000  0.11516
      12     H     0.45311  0.45311  0.00000  0.09378
      13     H     0.44560  0.44560  0.00000  0.10881
      14     H     0.45432  0.45432  0.00000  0.09137

   Total alpha = 24.00000, Total beta = 24.00000, Total charge = -0.00000

*** Psi4 exiting successfully. Buy a developer a beer!
