                              Psi4 1.0.54 Driver

  ==> Input File <==

--------------------------------------------------------------------------
set {
	reference rhf
	basis cc-pvtz
}

set_num_threads( 4 )
memory 2 gb

molecule MOL {
0 1

O	 0.655802	 -0.118389	 -0.495376
C	 1.704209	 0.119472	 -0.000093
C	 2.070057	 1.401949	 0.702081
O	 2.715427	 -0.733672	 0.000025
C	 0.944751	 2.426130	 0.734651
H	 2.390871	 1.138461	 1.704629
H	 2.949340	 1.799701	 0.205999
C	 1.349385	 3.710579	 1.451924
H	 0.078924	 1.990328	 1.220135
H	 0.637863	 2.652143	 -0.280252
C	 0.233443	 4.750457	 1.494321
H	 1.658401	 3.476614	 2.468300
H	 2.220103	 4.140811	 0.962037
C	 0.637632	 6.034021	 2.211610
H	 -0.636410	 4.322134	 1.984272
H	 -0.074870	 4.986107	 0.479643
H	 0.918825	 5.835830	 3.240632
H	 -0.176317	 6.749613	 2.223851
H	 1.484555	 6.505268	 1.723879
C	 4.020999	 -0.192556	 0.000019
H	 4.182809	 0.412891	 -0.879449
H	 4.692590	 -1.035653	 0.000152
H	 4.182726	 0.413087	 0.879368

	symmetry c1
}
set optking {
	frozen_dihedral = ("
		1 2 4 20
	")
}

ee,wfn = optimize('scf', return_wfn=True)
oeprop( wfn, 'DIPOLE', 'QUADRUPOLE', 'MULLIKEN_CHARGES')
f=open( 'psi4out.xyz', 'w' )
f.write( "23  " )
f.write( str(ee) + "\n" )
f.write( MOL.save_string_xyz() )
f.close()
--------------------------------------------------------------------------

    Molecular point group: c1
  Charge       = 0
  Multiplicity = 1
  Basis Set: CC-PVTZ
  Basis Set:
  @DF-RHF Final Energy:  -423.10681730373329
    Total Energy =                       -423.1068173037340330
    Molecular point group: c1
  Basis Set: CC-PVTZ
  Basis Set:
  Basis Set: CC-PVTZ
  Basis Set:
  @DF-RHF Final Energy:  -423.00326199238646
    Total Energy =                       -423.0032619923862285
  Basis Set: CC-PVTZ
  Basis Set:
  Basis Set: CC-PVTZ
  Basis Set:
  @DF-RHF Final Energy:  -423.09282898684739
    Total Energy =                       -423.0928289868475076
  Basis Set: CC-PVTZ
  Basis Set:
  Basis Set: CC-PVTZ
  Basis Set:
  @DF-RHF Final Energy:  -423.11328233578604
    Total Energy =                       -423.1132823357856978
  Basis Set: CC-PVTZ
  Basis Set:
  @DF-RHF Final Energy:  -423.11361428052555
    Total Energy =                       -423.1136142805255531
  Basis Set: CC-PVTZ
  Basis Set:
  @DF-RHF Final Energy:  -423.11494837435788
    Total Energy =                       -423.1149483743583914
  Basis Set: CC-PVTZ
  Basis Set:
  Basis Set: CC-PVTZ
  Basis Set:
  @DF-RHF Final Energy:  -423.11523699804366
    Total Energy =                       -423.1152369980442245
  Basis Set: CC-PVTZ
  Basis Set:
  Basis Set: CC-PVTZ
  Basis Set:
  @DF-RHF Final Energy:  -423.11525298577828
    Total Energy =                       -423.1152529857785112
  Basis Set: CC-PVTZ
  Basis Set:
  Charge       = 0
  Multiplicity = 1
  Basis Set: CC-PVTZ
  Basis Set:

    Orbital Energies (a.u.)
    -----------------------

    Doubly Occupied:

       1A    -20.590783     2A    -20.531931     3A    -11.366276
       4A    -11.292805     5A    -11.242526     6A    -11.221199
       7A    -11.219665     8A    -11.217254     9A    -11.210208
      10A     -1.464404    11A     -1.368448    12A     -1.097511
      13A     -1.042720    14A     -0.985505    15A     -0.952615
      16A     -0.854683    17A     -0.799595    18A     -0.767151
      19A     -0.701333    20A     -0.689352    21A     -0.675790
      22A     -0.655864    23A     -0.615287    24A     -0.605991
      25A     -0.580870    26A     -0.569239    27A     -0.561351
      28A     -0.539583    29A     -0.516096    30A     -0.510042
      31A     -0.489655    32A     -0.473627    33A     -0.469889
      34A     -0.467835    35A     -0.451723    36A     -0.433009

  @DF-RHF Final Energy:  -423.11525352790881

   => Energetics <=

    Nuclear Repulsion Energy =            455.3985286359500719
    One-Electron Energy =               -1478.5639358326911861
    Two-Electron Energy =                 600.0501536688320812
    DFT Exchange-Correlation Energy =       0.0000000000000000
    Empirical Dispersion Energy =           0.0000000000000000
    PCM Polarization Energy =               0.0000000000000000
    EFP Energy =                            0.0000000000000000
    Total Energy =                       -423.1152535279090898
    Molecular point group: c1
  Basis Set: CC-PVTZ
  Basis Set:

  -Total Gradient:
     Atom            X                  Y                   Z
    ------   -----------------  -----------------  -----------------
       1        0.001291189433     0.001935577789    -0.002279840794
       2       -0.001774138937    -0.002349304087     0.001790157928
       3       -0.000007296847     0.000036208444    -0.000059070855
       4        0.000192026727    -0.000351477850     0.003220700928
       5        0.000000784231    -0.000017337937     0.000019166128
       6       -0.000000864087    -0.000030251826     0.000005066915
       7       -0.000000280288    -0.000000225463     0.000008794446
       8        0.000005648972     0.000006890474    -0.000019280176
       9       -0.000008841730    -0.000003156399     0.000000840801
      10        0.000000089516     0.000011233975    -0.000009498131
      11       -0.000003110037    -0.000003848412     0.000011349613
      12       -0.000002674680    -0.000007220870    -0.000001237380
      13        0.000009681457     0.000003144339    -0.000004666702
      14       -0.000006538817    -0.000001371898    -0.000009031473
      15       -0.000009463948    -0.000002770158     0.000002467314
      16        0.000002110448     0.000004880924    -0.000003255390
      17       -0.000000088752    -0.000004766383     0.000006264309
      18        0.000002287795    -0.000000827754    -0.000000306967
      19        0.000003963289     0.000004554161    -0.000002266424
      20        0.000282741153     0.000765718298    -0.002678530717
      21       -0.000005637823     0.000003287046     0.000000735804
      22        0.000029926018     0.000002581957     0.000006804886
      23       -0.000001513088    -0.000001518376    -0.000005364068

  **** Optimization is complete! (in 9 steps) ****
    Final optimized geometry and variables:
    Molecular point group: c1

    Geometry (in Angstrom), charge = 0, multiplicity = 1:

    O           -0.773769322379    -1.491028572384    -1.771833941234
    C            0.221547601751    -1.455053912749    -1.142826814362
    C            0.503597644905    -0.416000618479    -0.079899464022
    O            1.155762466608    -2.388602204939    -1.343103676229
    C           -0.677797421570     0.508103401455     0.183762754656
    H            0.794862729030    -0.937267331766     0.826887587900
    H            1.370408750519     0.161772372118    -0.385157878678
    C           -0.372995962591     1.546278429339     1.259603800318
    H           -1.535659518112    -0.086069251466     0.476135430262
    H           -0.955287975537     1.001986933595    -0.739601917861
    C           -1.547276053110     2.479773264452     1.539381476236
    H           -0.090146283853     1.042840751000     2.181589668695
    H            0.489486555224     2.138046211055     0.960093116287
    C           -1.244001675954     3.518120069672     2.614132530843
    H           -2.408810320841     1.890417656409     1.839964822337
    H           -1.830114311624     2.984151719142     0.619842170746
    H           -0.991054637128     3.044029673859     3.556756807842
    H           -2.097349853138     4.163243324503     2.787813951555
    H           -0.407696491346     4.146868629862     2.326756513589
    C            2.524080913346    -2.127496346692    -1.154305616683
    H            2.849695244684    -1.290517455868    -1.759153067974
    H            3.043944537118    -3.014531703997    -1.477632370085
    H            2.764116464511    -1.939416329867    -0.116160856192

  Mulliken Charges: (a.u.)
   Center  Symbol    Alpha    Beta     Spin     Total
       1     O     4.17643  4.17643  0.00000 -0.35286
       2     C     2.80172  2.80172  0.00000  0.39655
       3     C     3.13724  3.13724  0.00000 -0.27449
       4     O     4.13536  4.13536  0.00000 -0.27073
       5     C     3.08313  3.08313  0.00000 -0.16627
       6     H     0.43802  0.43802  0.00000  0.12396
       7     H     0.44216  0.44216  0.00000  0.11568
       8     C     3.08775  3.08775  0.00000 -0.17549
       9     H     0.44411  0.44411  0.00000  0.11178
      10     H     0.44316  0.44316  0.00000  0.11369
      11     C     3.08518  3.08518  0.00000 -0.17037
      12     H     0.45617  0.45617  0.00000  0.08765
      13     H     0.45663  0.45663  0.00000  0.08673
      14     C     3.15020  3.15020  0.00000 -0.30039
      15     H     0.45241  0.45241  0.00000  0.09518
      16     H     0.45254  0.45254  0.00000  0.09493
      17     H     0.45536  0.45536  0.00000  0.08929
      18     H     0.44715  0.44715  0.00000  0.10569
      19     H     0.45551  0.45551  0.00000  0.08898
      20     C     3.04674  3.04674  0.00000 -0.09348
      21     H     0.45839  0.45839  0.00000  0.08322
      22     H     0.43380  0.43380  0.00000  0.13239
      23     H     0.46083  0.46083  0.00000  0.07834

   Total alpha = 36.00000, Total beta = 36.00000, Total charge =  0.00000

*** Psi4 exiting successfully. Buy a developer a beer!
