                              Psi4 1.0.54 Driver

  ==> Input File <==

--------------------------------------------------------------------------
set {
	reference rhf
	basis cc-pvtz
}

set_num_threads( 4 )
memory 2 gb

molecule MOL {
0 1

H	 2.197509	 -1.164318	 -4.714900
C	 2.467076	 -0.355879	 -4.045103
C	 1.299352	 0.023262	 -3.140672
H	 3.321049	 -0.681108	 -3.461004
H	 2.783195	 0.485817	 -4.652899
C	 1.639547	 1.168227	 -2.189203
H	 0.994622	 -0.844717	 -2.567356
H	 0.448008	 0.308641	 -3.754346
C	 0.487255	 1.573756	 -1.275608
H	 2.491799	 0.892474	 -1.580553
H	 1.934494	 2.036493	 -2.771356
C	 0.166485	 0.574257	 -0.177158
H	 0.726138	 2.507862	 -0.773467
H	 -0.413377	 1.770733	 -1.849699
C	 -1.180025	 0.697761	 0.509157
O	 0.944249	 -0.262442	 0.151920
C	 -2.285431	 -0.137488	 -0.145671
H	 -1.447360	 1.745713	 0.496200
H	 -1.065514	 0.394096	 1.546399
C	 -3.646545	 0.082747	 0.508954
H	 -2.348635	 0.118247	 -1.199806
H	 -2.034895	 -1.192387	 -0.096473
C	 -4.757412	 -0.737227	 -0.138149
H	 -3.900211	 1.137405	 0.459735
H	 -3.580878	 -0.166775	 1.564416
H	 -4.867876	 -0.486707	 -1.187777
H	 -4.549650	 -1.800049	 -0.072540
H	 -5.709585	 -0.556397	 0.346597

	symmetry c1
}
set optking {
	frozen_dihedral = ("
		16 12 15 17
	")
}

ee,wfn = optimize('scf', return_wfn=True)
oeprop( wfn, 'DIPOLE', 'QUADRUPOLE', 'MULLIKEN_CHARGES')
f=open( 'psi4out.xyz', 'w' )
f.write( "28  " )
f.write( str(ee) + "\n" )
f.write( MOL.save_string_xyz() )
f.close()
--------------------------------------------------------------------------

    Molecular point group: c1
  Charge       = 0
  Multiplicity = 1
  Basis Set: CC-PVTZ
  Basis Set:
  @DF-RHF Final Energy:  -426.32003271888618
    Total Energy =                       -426.3200327188865231
    Molecular point group: c1
  Basis Set: CC-PVTZ
  Basis Set:
  Basis Set: CC-PVTZ
  Basis Set:
  @DF-RHF Final Energy:  -426.32064519805544
    Total Energy =                       -426.3206451980551037
  Basis Set: CC-PVTZ
  Basis Set:
  Basis Set: CC-PVTZ
  Basis Set:
  @DF-RHF Final Energy:  -426.32062431654219
    Total Energy =                       -426.3206243165423075
  Basis Set: CC-PVTZ
  Basis Set:
  Basis Set: CC-PVTZ
  Basis Set:
  @DF-RHF Final Energy:  -426.32054540250385
    Total Energy =                       -426.3205454025035124
  Basis Set: CC-PVTZ
  Basis Set:
  Basis Set: CC-PVTZ
  Basis Set:
  @DF-RHF Final Energy:  -426.32071841224854
    Total Energy =                       -426.3207184122486524
  Basis Set: CC-PVTZ
  Basis Set:
  Basis Set: CC-PVTZ
  Basis Set:
  @DF-RHF Final Energy:  -426.32071638865227
    Total Energy =                       -426.3207163886526132
  Basis Set: CC-PVTZ
  Basis Set:
  Basis Set: CC-PVTZ
  Basis Set:
  @DF-RHF Final Energy:  -426.32072094748548
    Total Energy =                       -426.3207209474854835
  Basis Set: CC-PVTZ
  Basis Set:
  Charge       = 0
  Multiplicity = 1
  Basis Set: CC-PVTZ
  Basis Set:

    Orbital Energies (a.u.)
    -----------------------

    Doubly Occupied:

       1A    -20.536184     2A    -11.316607     3A    -11.229075
       4A    -11.228371     5A    -11.226544     6A    -11.222765
       7A    -11.214684     8A    -11.213038     9A    -11.210841
      10A    -11.204023    11A     -1.396478    12A     -1.094878
      13A     -1.079251    14A     -1.023875    15A     -0.992267
      16A     -0.909502    17A     -0.870878    18A     -0.807386
      19A     -0.800097    20A     -0.725357    21A     -0.671400
      22A     -0.653810    23A     -0.627500    24A     -0.621674
      25A     -0.610878    26A     -0.590280    27A     -0.576615
      28A     -0.573759    29A     -0.546310    30A     -0.529975
      31A     -0.518845    32A     -0.511418    33A     -0.504415
      34A     -0.482970    35A     -0.478043    36A     -0.474391
      37A     -0.470544    38A     -0.466772    39A     -0.457559
      40A     -0.393877

  @DF-RHF Final Energy:  -426.32072098505193

   => Energetics <=

    Nuclear Repulsion Energy =            536.1612572220706170
    One-Electron Energy =               -1640.8376781471820323
    Two-Electron Energy =                 678.3556999400587983
    DFT Exchange-Correlation Energy =       0.0000000000000000
    Empirical Dispersion Energy =           0.0000000000000000
    PCM Polarization Energy =               0.0000000000000000
    EFP Energy =                            0.0000000000000000
    Total Energy =                       -426.3207209850526169
    Molecular point group: c1
  Basis Set: CC-PVTZ
  Basis Set:

  -Total Gradient:
     Atom            X                  Y                   Z
    ------   -----------------  -----------------  -----------------
       1       -0.000001114190     0.000001108783     0.000001277987
       2        0.000000424288     0.000002501384     0.000001300115
       3       -0.000002202196     0.000001412658    -0.000003590285
       4       -0.000000595704    -0.000000141347    -0.000000057891
       5        0.000000660331     0.000000537903    -0.000000966411
       6        0.000004476968    -0.000000685568     0.000005669595
       7        0.000000510630    -0.000001263908     0.000000130923
       8       -0.000000876973    -0.000000093635     0.000000251855
       9       -0.000010496046    -0.000010003932    -0.000009853500
      10        0.000003425878    -0.000001463120     0.000000684296
      11        0.000001520735     0.000000232746     0.000001035254
      12       -0.000294526029    -0.000307895881    -0.000481852420
      13        0.000003151024    -0.000006070014     0.000001892726
      14       -0.000001925913     0.000000903669    -0.000000393427
      15        0.000166508117    -0.000225314478     0.000398415401
      16        0.000201660775     0.000293695710     0.000289976303
      17       -0.000060740112     0.000248631744    -0.000201132105
      18       -0.000002144542    -0.000000889491     0.000000342883
      19        0.000001790576     0.000000387822     0.000001368374
      20       -0.000001827314     0.000006381547    -0.000012508904
      21       -0.000001949286     0.000001295573     0.000001590382
      22       -0.000001277757     0.000000093553     0.000000737606
      23       -0.000000874937    -0.000003014139     0.000007615399
      24       -0.000001972987    -0.000000507181     0.000000009517
      25       -0.000000223728     0.000000849741    -0.000003084480
      26        0.000001599927     0.000001221525     0.000002777527
      27        0.000000398917     0.000000892954    -0.000002667629
      28       -0.000003380457    -0.000002804621     0.000001030905

  **** Optimization is complete! (in 8 steps) ****
    Final optimized geometry and variables:
    Molecular point group: c1

    Geometry (in Angstrom), charge = 0, multiplicity = 1:

    H            2.803901112512    -1.538819094729    -3.611691828606
    C            3.048890283308    -0.711109487932    -2.956149104996
    C            1.850443573153    -0.310723260333    -2.102593140786
    H            3.883332680100    -1.017220257804    -2.334690983077
    H            3.383503887681     0.114261038451    -3.576317021831
    C            2.155419366571     0.861985151603    -1.173151542079
    H            1.528673327154    -1.162601792484    -1.514965286903
    H            1.019630985745    -0.045583595413    -2.752425575214
    C            0.973436856485     1.286574318523    -0.309205017958
    H            2.988570217559     0.606692038592    -0.529667572979
    H            2.466729327563     1.714684358566    -1.769600762658
    C            0.625651175015     0.335967926698     0.820432508715
    H            1.180027467992     2.242130278116     0.169234129883
    H            0.086523393904     1.452745080088    -0.913935465596
    C           -0.711480266385     0.544637991444     1.503092685714
    O            1.363107171288    -0.527059812716     1.172822715271
    C           -1.815573132570    -0.279472787609     0.829695785506
    H           -0.978095623588     1.596493538371     1.483738188920
    H           -0.604192637335     0.238235191426     2.535443411010
    C           -3.175347029562    -0.099637433357     1.498559159094
    H           -1.894296137654    -0.004203638901    -0.218567821928
    H           -1.533540814778    -1.326909443689     0.854886569206
    C           -4.274162321540    -0.927969116159     0.841580502672
    H           -3.451763761385     0.950852363064     1.475114562655
    H           -3.095830912384    -0.371573324244     2.546976411457
    H           -4.400893198033    -0.654865098515    -0.200721039434
    H           -4.041062043388    -1.986588874490     0.879233814946
    H           -5.225299019053    -0.780703173286     1.339647507844

  Mulliken Charges: (a.u.)
   Center  Symbol    Alpha    Beta     Spin     Total
       1     H     0.44878  0.44878  0.00000  0.10244
       2     C     3.15144  3.15144  0.00000 -0.30289
       3     C     3.08446  3.08446  0.00000 -0.16892
       4     H     0.45176  0.45176  0.00000  0.09648
       5     H     0.45698  0.45698  0.00000  0.08605
       6     C     3.08805  3.08805  0.00000 -0.17610
       7     H     0.44542  0.44542  0.00000  0.10916
       8     H     0.45874  0.45874  0.00000  0.08252
       9     C     3.12819  3.12819  0.00000 -0.25637
      10     H     0.44484  0.44484  0.00000  0.11033
      11     H     0.44752  0.44752  0.00000  0.10495
      12     C     2.86689  2.86689  0.00000  0.26621
      13     H     0.43347  0.43347  0.00000  0.13307
      14     H     0.44249  0.44249  0.00000  0.11503
      15     C     3.09359  3.09359  0.00000 -0.18718
      16     O     4.18263  4.18263  0.00000 -0.36526
      17     C     3.09711  3.09711  0.00000 -0.19421
      18     H     0.44849  0.44849  0.00000  0.10302
      19     H     0.43807  0.43807  0.00000  0.12385
      20     C     3.08742  3.08742  0.00000 -0.17485
      21     H     0.45191  0.45191  0.00000  0.09619
      22     H     0.44218  0.44218  0.00000  0.11564
      23     C     3.14923  3.14923  0.00000 -0.29847
      24     H     0.45385  0.45385  0.00000  0.09230
      25     H     0.45112  0.45112  0.00000  0.09777
      26     H     0.45512  0.45512  0.00000  0.08976
      27     H     0.45297  0.45297  0.00000  0.09406
      28     H     0.44729  0.44729  0.00000  0.10541

   Total alpha = 40.00000, Total beta = 40.00000, Total charge = -0.00000

*** Psi4 exiting successfully. Buy a developer a beer!
