                              Psi4 1.0.54 Driver

  ==> Input File <==

--------------------------------------------------------------------------
set {
	reference rhf
	basis cc-pvtz
}

set_num_threads( 4 )
memory 2 gb

molecule MOL {
0 1

H	 -3.262855	 1.763689	 0.640529
C	 -2.848091	 0.785116	 0.769650
C	 -1.748888	 0.461586	 0.133703
H	 -3.345460	 0.093498	 1.420869
O	 -1.189946	 -0.765863	 0.237511
H	 -1.237660	 1.149615	 -0.514672
C	 0.026572	 -0.995256	 -0.379403
C	 1.057223	 0.049888	 -0.004615
H	 -0.054361	 -1.010670	 -1.459674
H	 0.397526	 -1.952058	 -0.044198
F	 2.203233	 -0.234060	 -0.590375
F	 0.698147	 1.254887	 -0.392621
F	 1.266440	 0.094219	 1.288722

	symmetry c1
}
set optking {
	frozen_dihedral = ("
		3 5 7 9
	")
}

ee,wfn = optimize('scf', return_wfn=True)
oeprop( wfn, 'DIPOLE', 'QUADRUPOLE', 'MULLIKEN_CHARGES')
f=open( 'psi4out.xyz', 'w' )
f.write( "13  " )
f.write( str(ee) + "\n" )
f.write( MOL.save_string_xyz() )
f.close()
--------------------------------------------------------------------------

    Molecular point group: c1
  Charge       = 0
  Multiplicity = 1
  Basis Set: CC-PVTZ
  Basis Set:
  @DF-RHF Final Energy:  -527.73178970612162
    Total Energy =                       -527.7317897061217309
    Molecular point group: c1
  Basis Set: CC-PVTZ
  Basis Set:
  Basis Set: CC-PVTZ
  Basis Set:
  @DF-RHF Final Energy:  -527.73642624994193
    Total Energy =                       -527.7364262499420420
  Basis Set: CC-PVTZ
  Basis Set:
  Basis Set: CC-PVTZ
  Basis Set:
  @DF-RHF Final Energy:  -527.73824006957909
    Total Energy =                       -527.7382400695792057
  Basis Set: CC-PVTZ
  Basis Set:
  Basis Set: CC-PVTZ
  Basis Set:
  @DF-RHF Final Energy:  -527.73844050210300
    Total Energy =                       -527.7384405021030034
  Basis Set: CC-PVTZ
  Basis Set:
  Basis Set: CC-PVTZ
  Basis Set:
  @DF-RHF Final Energy:  -527.73850757176490
    Total Energy =                       -527.7385075717651262
  Basis Set: CC-PVTZ
  Basis Set:
  Basis Set: CC-PVTZ
  Basis Set:
  @DF-RHF Final Energy:  -527.73852265950745
    Total Energy =                       -527.7385226595075665
  Basis Set: CC-PVTZ
  Basis Set:
  Basis Set: CC-PVTZ
  Basis Set:
  @DF-RHF Final Energy:  -527.73852679340928
    Total Energy =                       -527.7385267934095054
  Basis Set: CC-PVTZ
  Basis Set:
  Charge       = 0
  Multiplicity = 1
  Basis Set: CC-PVTZ
  Basis Set:

    Orbital Energies (a.u.)
    -----------------------

    Doubly Occupied:

       1A    -26.342794     2A    -26.342650     3A    -26.340246
       4A    -20.600842     5A    -11.501255     6A    -11.318763
       7A    -11.294923     8A    -11.214973     9A     -1.752649
      10A     -1.648312    11A     -1.647736    12A     -1.439514
      13A     -1.085623    14A     -1.022340    15A     -0.933838
      16A     -0.844306    17A     -0.840840    18A     -0.836190
      19A     -0.784737    20A     -0.727544    21A     -0.720209
      22A     -0.700830    23A     -0.682067    24A     -0.669792
      25A     -0.662809    26A     -0.652695    27A     -0.645329
      28A     -0.593226    29A     -0.565172    30A     -0.527500
      31A     -0.502159    32A     -0.359919

  @DF-RHF Final Energy:  -527.73852756151393

   => Energetics <=

    Nuclear Repulsion Energy =            417.1824861772444137
    One-Electron Energy =               -1558.2384478440314979
    Two-Electron Energy =                 613.3174341052731506
    DFT Exchange-Correlation Energy =       0.0000000000000000
    Empirical Dispersion Energy =           0.0000000000000000
    PCM Polarization Energy =               0.0000000000000000
    EFP Energy =                            0.0000000000000000
    Total Energy =                       -527.7385275615138198
    Molecular point group: c1
  Basis Set: CC-PVTZ
  Basis Set:

  -Total Gradient:
     Atom            X                  Y                   Z
    ------   -----------------  -----------------  -----------------
       1        0.000007062044    -0.000010515920    -0.000003675133
       2       -0.000009471677    -0.000007006298     0.000034742684
       3        0.002014585027     0.001759823385     0.003629313463
       4        0.000001710851     0.000002395330    -0.000009498254
       5       -0.003118114717    -0.004103945996    -0.005457341885
       6       -0.000032324048    -0.000037500897     0.000065728058
       7        0.001625256642     0.007743300529     0.001325959134
       8       -0.000131304621     0.000088425023    -0.000022173953
       9       -0.000505789568    -0.005334076544     0.000418087311
      10       -0.000021652500    -0.000007791383     0.000003066069
      11        0.000104498687    -0.000022826088    -0.000034381483
      12        0.000029083224    -0.000073790678     0.000047398790
      13        0.000036460652     0.000003509532     0.000002775201

  **** Optimization is complete! (in 8 steps) ****
    Final optimized geometry and variables:
    Molecular point group: c1

    Geometry (in Angstrom), charge = 0, multiplicity = 1:

    H           -3.391175454434     1.592816930810     0.637445195216
    C           -2.841846581824     0.692304381213     0.822228555421
    C           -1.973016091420     0.270645046570    -0.062782666735
    H           -3.024162495044     0.151741352390     1.730267704581
    O           -1.302849801233    -0.897829779179     0.092852399917
    H           -1.776131154724     0.802112226215    -0.975430005111
    C           -0.064413133721    -1.061541545040    -0.505705252454
    C            0.982265005963    -0.024292757037    -0.145886496374
    H           -0.138363644862    -1.135748361825    -1.585562361675
    H            0.318164158596    -2.005162482937    -0.146783578317
    F            2.145691025641    -0.417283346776    -0.624125000347
    F            0.733160245227     1.163842337181    -0.655459628398
    F            1.104507762346     0.118472625340     1.151326911036

  Mulliken Charges: (a.u.)
   Center  Symbol    Alpha    Beta     Spin     Total
       1     H     0.42533  0.42533  0.00000  0.14934
       2     C     3.18921  3.18921  0.00000 -0.37842
       3     C     2.96700  2.96700  0.00000  0.06601
       4     H     0.42404  0.42404  0.00000  0.15191
       5     O     4.14593  4.14593  0.00000 -0.29186
       6     H     0.43035  0.43035  0.00000  0.13931
       7     C     3.01999  3.01999  0.00000 -0.03998
       8     C     2.67987  2.67987  0.00000  0.64025
       9     H     0.45157  0.45157  0.00000  0.09686
      10     H     0.43813  0.43813  0.00000  0.12374
      11     F     4.61031  4.61031  0.00000 -0.22062
      12     F     4.61158  4.61158  0.00000 -0.22315
      13     F     4.60670  4.60670  0.00000 -0.21340

   Total alpha = 32.00000, Total beta = 32.00000, Total charge =  0.00000

*** Psi4 exiting successfully. Buy a developer a beer!
