  ==> Input File <==

--------------------------------------------------------------------------
set {
	reference rhf
	basis cc-pvtz
}

set_num_threads( 4 )
memory 2 gb

molecule MOL {
0 1

H	 -2.816458	 -0.841657	 -0.064679
N	 -1.878861	 -0.711874	 0.250184
C	 -1.341419	 0.551458	 -0.220231
H	 -1.333674	 -1.468530	 -0.105118
C	 -2.255098	 1.162697	 -1.257644
H	 -1.188339	 1.280172	 0.574808
H	 -0.378026	 0.368039	 -0.683136
O	 -3.470771	 1.485199	 -0.652797
H	 -1.795174	 2.058008	 -1.673651
H	 -2.414826	 0.453957	 -2.067029
C	 -4.428358	 1.995197	 -1.520062
H	 -5.317582	 2.209145	 -0.944831
H	 -4.088191	 2.914629	 -1.991894
H	 -4.679173	 1.280654	 -2.300500

	symmetry c1
}
set optking {
	frozen_dihedral = ("
		6 3 2 4
	")
}

ee = optimize('scf')
oeprop('DIPOLE', 'QUADRUPOLE', 'MULLIKEN_CHARGES')
f=open( 'psi4out.xyz', 'w' )
f.write( "14  " )
f.write( str(ee) + "\n" )
f.write( MOL.save_string_xyz() )
f.close()
--------------------------------------------------------------------------

    Molecular point group: c1
  Charge       = 0
  Multiplicity = 1
  Basis Set: CC-PVTZ
  Basis Set:
  @DF-RHF Final Energy:  -248.21979100219264
    Total Energy =                       -248.2197910021924372
    Molecular point group: c1
  Basis Set: CC-PVTZ
  Basis Set:
  Basis Set: CC-PVTZ
  Basis Set:
  @DF-RHF Final Energy:  -248.22160556403384
    Total Energy =                       -248.2216055640340073
  Basis Set: CC-PVTZ
  Basis Set:
  Basis Set: CC-PVTZ
  Basis Set:
  @DF-RHF Final Energy:  -248.22193309670132
    Total Energy =                       -248.2219330967011501
  Basis Set: CC-PVTZ
  Basis Set:
  Basis Set: CC-PVTZ
  Basis Set:
  @DF-RHF Final Energy:  -248.22196086750691
    Total Energy =                       -248.2219608675069367
  Basis Set: CC-PVTZ
  Basis Set:
  Basis Set: CC-PVTZ
  Basis Set:
  @DF-RHF Final Energy:  -248.22196491423318
    Total Energy =                       -248.2219649142331832
  Basis Set: CC-PVTZ
  Basis Set:
  Charge       = 0
  Multiplicity = 1
  Basis Set: CC-PVTZ
  Basis Set:

    Orbital Energies (a.u.)
    -----------------------

    Doubly Occupied:

       1A    -20.553562     2A    -15.519095     3A    -11.267733
       4A    -11.266229     5A    -11.240123     6A     -1.387853
       7A     -1.171973     8A     -1.001252     9A     -0.910145
      10A     -0.821855    11A     -0.687181    12A     -0.676423
      13A     -0.651203    14A     -0.623836    15A     -0.590428
      16A     -0.562885    17A     -0.519188    18A     -0.500139
      19A     -0.482763    20A     -0.422837    21A     -0.373619

  @DF-RHF Final Energy:  -248.22196517348019

   => Energetics <=

    Nuclear Repulsion Energy =            194.4537888525638039
    One-Electron Energy =                -722.8908677264281550
    Two-Electron Energy =                 280.2151137003842791
    DFT Exchange-Correlation Energy =       0.0000000000000000
    Empirical Dispersion Energy =           0.0000000000000000
    PCM Polarization Energy =               0.0000000000000000
    EFP Energy =                            0.0000000000000000
    Total Energy =                       -248.2219651734801005
    Molecular point group: c1
  Basis Set: CC-PVTZ
  Basis Set:

  -Total Gradient:
     Atom            X                  Y                   Z
    ------   -----------------  -----------------  -----------------
       1       -0.000007680443    -0.000009535377    -0.000000631077
       2       -0.002572634715    -0.000658668239    -0.003855864617
       3       -0.003606157085     0.001672550060     0.000507245541
       4        0.002703268279     0.000263682585     0.003089638372
       5       -0.000034836800     0.000037964090     0.000027075912
       6        0.003450885420    -0.001271996869     0.000245748598
       7        0.000011468764     0.000009795388    -0.000011389696
       8        0.000004078821    -0.000019507548     0.000018036720
       9        0.000030037105     0.000000417954    -0.000016192225
      10        0.000013331912    -0.000013806290     0.000004011384
      11        0.000002734505    -0.000009492092    -0.000011436559
      12        0.000006573151    -0.000004658490     0.000002633922
      13        0.000003876592     0.000000140629     0.000002799984
      14       -0.000004945506     0.000003114202    -0.000001676258

  **** Optimization is complete! (in 6 steps) ****
    Final optimized geometry and variables:
    Molecular point group: c1

    Geometry (in Angstrom), charge = 0, multiplicity = 1:

    H           -0.130247689980    -1.689712207999     0.885210178141
    N            0.853310043672    -1.588717353580     0.992897310006
    C            1.354308744768    -0.341258563162     0.447329572047
    H            1.330481163782    -2.387386423867     0.644385656937
    C            0.438718709813     0.306100394309    -0.570585906729
    H            1.555572320437     0.358674223809     1.251884215343
    H            2.309532800964    -0.519955936646    -0.035992929310
    O           -0.801426777511     0.546752024965     0.018253771227
    H            0.878238930711     1.239512937897    -0.920615244699
    H            0.318908692626    -0.349593491065    -1.433323953589
    C           -1.741625096695     1.120126995225    -0.828352158602
    H           -2.654535644419     1.255793573088    -0.266949567431
    H           -1.408745870205     2.088835649101    -1.194294119849
    H           -1.948207867291     0.482137716596    -1.685028533586

  Mulliken Charges: (a.u.)
   Center  Symbol    Alpha    Beta     Spin     Total
       1     H     0.41877  0.41877  0.00000  0.16246
       2     N     3.70275  3.70275  0.00000 -0.40550
       3     C     3.01414  3.01414  0.00000 -0.02828
       4     H     0.42692  0.42692  0.00000  0.14616
       5     C     2.97411  2.97411  0.00000  0.05179
       6     H     0.46074  0.46074  0.00000  0.07852
       7     H     0.46190  0.46190  0.00000  0.07620
       8     O     4.17613  4.17613  0.00000 -0.35226
       9     H     0.46941  0.46941  0.00000  0.06117
      10     H     0.47548  0.47548  0.00000  0.04904
      11     C     3.03178  3.03178  0.00000 -0.06357
      12     H     0.44635  0.44635  0.00000  0.10730
      13     H     0.47012  0.47012  0.00000  0.05976
      14     H     0.47139  0.47139  0.00000  0.05721

   Total alpha = 21.00000, Total beta = 21.00000, Total charge = -0.00000
