                              Psi4 1.0.54 Driver

  ==> Input File <==

--------------------------------------------------------------------------
set {
	reference rhf
	basis cc-pvtz
}

set_num_threads( 4 )
memory 2 gb

molecule MOL {
0 1

H	 -4.340537	 -0.784487	 0.000000
O	 -3.958786	 0.074640	 0.000000
C	 -2.613554	 0.009900	 0.000000
C	 -2.032455	 -1.247279	 0.000000
C	 -1.813996	 1.136661	 0.000000
H	 -2.662362	 -2.114504	 0.000000
C	 -0.660878	 -1.371670	 0.000000
H	 -2.257479	 2.115380	 0.000000
C	 -0.436800	 1.009973	 0.000000
H	 -0.213251	 -2.345013	 0.000000
C	 0.134356	 -0.241528	 -0.000000
H	 0.179227	 1.886451	 0.000000
Br	 2.024487	 -0.418388	 -0.000000

	symmetry c1
}
set optking {
	frozen_dihedral = ("
		4 3 2 1
	")
}

ee,wfn = optimize('scf', return_wfn=True)
oeprop( wfn, 'DIPOLE', 'QUADRUPOLE', 'MULLIKEN_CHARGES')
f=open( 'psi4out.xyz', 'w' )
f.write( "13  " )
f.write( str(ee) + "\n" )
f.write( MOL.save_string_xyz() )
f.close()
--------------------------------------------------------------------------

    Molecular point group: c1
  Charge       = 0
  Multiplicity = 1
  Basis Set: CC-PVTZ
  Basis Set:
  @DF-RHF Final Energy: -2877.54491045816121
    Total Energy =                      -2877.5449104581612119
    Molecular point group: c1
  Basis Set: CC-PVTZ
  Basis Set:
  Basis Set: CC-PVTZ
  Basis Set:
  @DF-RHF Final Energy: -2877.54684127791825
    Total Energy =                      -2877.5468412779173377
  Basis Set: CC-PVTZ
  Basis Set:
  Basis Set: CC-PVTZ
  Basis Set:
  @DF-RHF Final Energy: -2877.54701364064340
    Total Energy =                      -2877.5470136406443089
  Basis Set: CC-PVTZ
  Basis Set:
  Basis Set: CC-PVTZ
  Basis Set:
  @DF-RHF Final Energy: -2877.54703894858176
    Total Energy =                      -2877.5470389485822125
  Basis Set: CC-PVTZ
  Basis Set:
  Charge       = 0
  Multiplicity = 1
  Basis Set: CC-PVTZ
  Basis Set:

    Orbital Energies (a.u.)
    -----------------------

    Doubly Occupied:

       1A   -490.018342     2A    -65.158663     3A    -58.513889
       4A    -58.512520     5A    -58.512517     6A    -20.597109
       7A    -11.312202     8A    -11.287509     9A    -11.254065
      10A    -11.252307    11A    -11.242795    12A    -11.237331
      13A     -9.832457    14A     -7.444076    15A     -7.437329
      16A     -7.437255    17A     -3.187765    18A     -3.184208
      19A     -3.184115    20A     -3.175461    21A     -3.175458
      22A     -1.428831    23A     -1.179845    24A     -1.066702
      25A     -1.042226    26A     -0.970515    27A     -0.870147
      28A     -0.828234    29A     -0.758549    30A     -0.690178
      31A     -0.653959    32A     -0.626011    33A     -0.610236
      34A     -0.609304    35A     -0.582446    36A     -0.521875
      37A     -0.514613    38A     -0.501432    39A     -0.427656
      40A     -0.413530    41A     -0.360453    42A     -0.317072

  @DF-RHF Final Energy: -2877.54704397264368

   => Energetics <=

    Nuclear Repulsion Energy =            525.5378280112927314
    One-Electron Energy =               -5042.3073816938349410
    Two-Electron Energy =                1639.2225097098976221
    DFT Exchange-Correlation Energy =       0.0000000000000000
    Empirical Dispersion Energy =           0.0000000000000000
    PCM Polarization Energy =               0.0000000000000000
    EFP Energy =                            0.0000000000000000
    Total Energy =                      -2877.5470439726445875
    Molecular point group: c1
  Basis Set: CC-PVTZ
  Basis Set:

  -Total Gradient:
     Atom            X                  Y                   Z
    ------   -----------------  -----------------  -----------------
       1       -0.000029151271     0.000040604083    -0.000000039732
       2        0.000146915084    -0.000077130650    -0.000000231841
       3       -0.000171054887     0.000132016115     0.000000655884
       4        0.000062127343    -0.000078494502    -0.000000233602
       5       -0.000005133928     0.000022837949    -0.000000146918
       6        0.000026099086     0.000005416355    -0.000000064987
       7       -0.000128067918    -0.000079922843     0.000000249982
       8       -0.000046306205    -0.000032112005    -0.000000047562
       9        0.000140747192    -0.000134714843     0.000000089396
      10        0.000038304441     0.000008425928    -0.000000083065
      11       -0.000001338482     0.000226510889     0.000000019644
      12       -0.000017173574     0.000011287660    -0.000000067528
      13       -0.000015967261    -0.000044724147    -0.000000099670

  **** Optimization is complete! (in 5 steps) ****
    Final optimized geometry and variables:
    Molecular point group: c1

    Geometry (in Angstrom), charge = 0, multiplicity = 1:

    H           -4.387799840847    -0.448816762424    -0.000003834004
    O           -3.941093941851     0.378425025433     0.000000168521
    C           -2.605217344678     0.210801268831     0.000005009776
    C           -2.011216884550    -1.036941067590     0.000004077594
    C           -1.816324729394     1.348973055348     0.000004084954
    H           -2.616335865807    -1.924863262046     0.000001903883
    C           -0.632998153729    -1.149004730853     0.000004498935
    H           -2.287661865816     2.311646755448     0.000001994799
    C           -0.443552957664     1.235481929957     0.000003489158
    H           -0.176775902524    -2.118338682912     0.000002143512
    C            0.145281230084    -0.014321815666     0.000003373020
    H            0.164486163616     2.117575198054     0.000000635907
    BR           2.037330045392    -0.166367564196    -0.000003800930

  Mulliken Charges: (a.u.)
   Center  Symbol    Alpha    Beta     Spin     Total
       1     H     0.38655  0.38655  0.00000  0.22689
       2     O     4.17031  4.17031  0.00000 -0.34061
       3     C     2.85780  2.85780  0.00000  0.28440
       4     C     3.11926  3.11926  0.00000 -0.23851
       5     C     3.09375  3.09375  0.00000 -0.18750
       6     H     0.43095  0.43095  0.00000  0.13810
       7     C     3.08420  3.08420  0.00000 -0.16840
       8     H     0.41607  0.41607  0.00000  0.16787
       9     C     3.07664  3.07664  0.00000 -0.15329
      10     H     0.41058  0.41058  0.00000  0.17884
      11     C     2.97621  2.97621  0.00000  0.04759
      12     H     0.41066  0.41066  0.00000  0.17868
      13    BR    17.56703 17.56703  0.00000 -0.13407

   Total alpha = 42.00000, Total beta = 42.00000, Total charge = -0.00000

*** Psi4 exiting successfully. Buy a developer a beer!
