  ==> Input File <==

--------------------------------------------------------------------------
set {
	reference rhf
	basis cc-pvtz
}

set_num_threads( 4 )
memory 2 gb

molecule MOL {
0 1

H	 -2.498963	 -0.741158	 -0.729149
O	 -2.346257	 -0.289210	 0.080372
C	 -1.183935	 0.486039	 -0.009831
C	 0.062853	 -0.375310	 0.027457
H	 -1.178881	 1.094526	 -0.908634
H	 -1.184406	 1.155156	 0.838676
O	 1.016632	 0.200509	 -0.803319
H	 -0.173787	 -1.387211	 -0.305640
H	 0.425903	 -0.445185	 1.050632
C	 2.232110	 -0.471984	 -0.843155
H	 2.111805	 -1.488959	 -1.209984
H	 2.885754	 0.065052	 -1.514741
H	 2.695734	 -0.513190	 0.139634

	symmetry c1
}
set optking {
	frozen_dihedral = ("
		8 4 3 5
	")
}

ee = optimize('scf')
oeprop('DIPOLE', 'QUADRUPOLE', 'MULLIKEN_CHARGES')
f=open( 'psi4out.xyz', 'w' )
f.write( "13  " )
f.write( str(ee) + "\n" )
f.write( MOL.save_string_xyz() )
f.close()
--------------------------------------------------------------------------

    Molecular point group: c1
  Charge       = 0
  Multiplicity = 1
  Basis Set: CC-PVTZ
  Basis Set:
  @DF-RHF Final Energy:  -268.05821458924618
    Total Energy =                       -268.0582145892461767
    Molecular point group: c1
  Basis Set: CC-PVTZ
  Basis Set:
  Basis Set: CC-PVTZ
  Basis Set:
  @DF-RHF Final Energy:  -268.05864622763249
    Total Energy =                       -268.0586462276324369
  Basis Set: CC-PVTZ
  Basis Set:
  Basis Set: CC-PVTZ
  Basis Set:
  @DF-RHF Final Energy:  -268.05878949959731
    Total Energy =                       -268.0587894995973102
  Basis Set: CC-PVTZ
  Basis Set:
  Basis Set: CC-PVTZ
  Basis Set:
  @DF-RHF Final Energy:  -268.05879304605634
    Total Energy =                       -268.0587930460563371
  Basis Set: CC-PVTZ
  Basis Set:
  Charge       = 0
  Multiplicity = 1
  Basis Set: CC-PVTZ
  Basis Set:

    Orbital Energies (a.u.)
    -----------------------

    Doubly Occupied:

       1A    -20.557052     2A    -20.552037     3A    -11.269969
       4A    -11.268256     5A    -11.267451     6A     -1.392581
       7A     -1.368843     8A     -1.017871     9A     -0.915318
      10A     -0.843935    11A     -0.709456    12A     -0.679689
      13A     -0.661588    14A     -0.632845    15A     -0.609175
      16A     -0.568058    17A     -0.541640    18A     -0.493327
      19A     -0.484617    20A     -0.440922    21A     -0.423153

  @DF-RHF Final Energy:  -268.05879347732071

   => Energetics <=

    Nuclear Repulsion Energy =            190.3502663357710105
    One-Electron Energy =                -743.4225567267210408
    Two-Electron Energy =                 285.0134969136295240
    DFT Exchange-Correlation Energy =       0.0000000000000000
    Empirical Dispersion Energy =           0.0000000000000000
    PCM Polarization Energy =               0.0000000000000000
    EFP Energy =                            0.0000000000000000
    Total Energy =                       -268.0587934773204779
    Molecular point group: c1
  Basis Set: CC-PVTZ
  Basis Set:

  -Total Gradient:
     Atom            X                  Y                   Z
    ------   -----------------  -----------------  -----------------
       1       -0.000012040311    -0.000003642660    -0.000001579732
       2        0.000016322486     0.000004837368    -0.000022141394
       3       -0.002657749010    -0.003831774290    -0.001481181335
       4        0.001352769324     0.002047423563    -0.004280376160
       5        0.002026544669     0.002885084863     0.001976738190
       6        0.000010401367     0.000001467421     0.000003294239
       7        0.000012831178    -0.000013009821     0.000004133772
       8       -0.000774381301    -0.001106941355     0.003817543237
       9        0.000006527032     0.000017540014    -0.000014391486
      10        0.000010266602    -0.000003156049     0.000007579010
      11        0.000003698346     0.000000395740    -0.000007077167
      12       -0.000002533994    -0.000000294273    -0.000003505729
      13        0.000007343613     0.000002069481     0.000000964554

  **** Optimization is complete! (in 5 steps) ****
    Final optimized geometry and variables:
    Molecular point group: c1

    Geometry (in Angstrom), charge = 0, multiplicity = 1:

    H           -2.470936878276    -0.643435748182    -0.343680149707
    O           -2.304755012103    -0.152564607125     0.440482749243
    C           -1.125764691656     0.586080385142     0.301964588609
    C            0.124225605524    -0.290039398139     0.303339129562
    H           -1.117856037789     1.195702657754    -0.595211169089
    H           -1.100847443388     1.268611797999     1.139963322955
    O            1.089829286307     0.293587984629    -0.508653574445
    H           -0.135054371231    -1.292564423844    -0.036359468064
    H            0.503994775566    -0.403805176706     1.317211587636
    C            2.315852718604    -0.360954425773    -0.508724944099
    H            2.219120837453    -1.386106180171    -0.859411172946
    H            2.976249560572     0.174116173713    -1.175258750515
    H            2.757775216849    -0.377749244996     0.484719348678

  Mulliken Charges: (a.u.)
   Center  Symbol    Alpha    Beta     Spin     Total
       1     H     0.39335  0.39335  0.00000  0.21331
       2     O     4.20266  4.20266  0.00000 -0.40532
       3     C     2.97088  2.97088  0.00000  0.05825
       4     C     2.96596  2.96596  0.00000  0.06808
       5     H     0.46528  0.46528  0.00000  0.06944
       6     H     0.45710  0.45710  0.00000  0.08580
       7     O     4.17418  4.17418  0.00000 -0.34836
       8     H     0.47893  0.47893  0.00000  0.04213
       9     H     0.47449  0.47449  0.00000  0.05103
      10     C     3.02987  3.02987  0.00000 -0.05974
      11     H     0.47125  0.47125  0.00000  0.05749
      12     H     0.44611  0.44611  0.00000  0.10778
      13     H     0.46995  0.46995  0.00000  0.06011

   Total alpha = 21.00000, Total beta = 21.00000, Total charge = -0.00000
