  ==> Input File <==

--------------------------------------------------------------------------
set {
	reference rhf
	basis 6-31G*
}

set_num_threads( 4 )
memory 2 gb

molecule MOL {
0 1

O	 -0.988096	 -1.408613	 0.050699
C	 -0.676749	 -0.249230	 -0.009274
C	 -1.746085	 0.827156	 -0.009539
N	 0.623947	 0.147590	 -0.102813
H	 -1.701500	 1.431508	 -0.908902
H	 -2.703425	 0.330732	 0.036390
H	 -1.647323	 1.487769	 0.845106
C	 0.997690	 1.437304	 0.443840
C	 1.590343	 -0.448837	 -0.998693
H	 1.975553	 1.363673	 0.906853
H	 0.274491	 1.736902	 1.182193
H	 1.042830	 2.197576	 -0.332929
H	 2.574406	 -0.388805	 -0.549187
H	 1.376353	 -1.490635	 -1.177017
H	 1.627527	 0.065732	 -1.957154

	symmetry c1
}
set optking {
	frozen_dihedral = ("
		8 4 2 3
	")
}

ee = optimize('scf')
oeprop('DIPOLE', 'QUADRUPOLE', 'MULLIKEN_CHARGES')
f=open( 'psi4out.xyz', 'w' )
f.write( "15  " )
f.write( str(ee) + "\n" )
f.write( MOL.save_string_xyz() )
f.close()
--------------------------------------------------------------------------

    Molecular point group: c1
  Charge       = 0
  Multiplicity = 1
  Basis Set: 6-31G*
  Basis Set:
  @DF-RHF Final Energy:  -286.01333053710550
    Total Energy =                       -286.0133305371055599
    Molecular point group: c1
  Basis Set: 6-31G*
  Basis Set:
  Basis Set: 6-31G*
  Basis Set:
  @DF-RHF Final Energy:  -286.01823252748102
    Total Energy =                       -286.0182325274810182
  Basis Set: 6-31G*
  Basis Set:
  Basis Set: 6-31G*
  Basis Set:
  @DF-RHF Final Energy:  -286.02005131011538
    Total Energy =                       -286.0200513101155479
  Basis Set: 6-31G*
  Basis Set:
  Basis Set: 6-31G*
  Basis Set:
  @DF-RHF Final Energy:  -286.02097900441004
    Total Energy =                       -286.0209790044098099
  Basis Set: 6-31G*
  Basis Set:
  @DF-RHF Final Energy:  -286.02311212735333
    Total Energy =                       -286.0231121273535564
  @DF-RHF Final Energy:  -286.02512715168962
    Total Energy =                       -286.0251271516895031
  @DF-RHF Final Energy:  -286.02620488938351
    Total Energy =                       -286.0262048893835640
  @DF-RHF Final Energy:  -286.02773804495985
    Total Energy =                       -286.0277380449597899
  @DF-RHF Final Energy:  -286.02851095092183
    Total Energy =                       -286.0285109509218842
  @DF-RHF Final Energy:  -286.02883479638768
    Total Energy =                       -286.0288347963876276
  @DF-RHF Final Energy:  -286.02899623926857
    Total Energy =                       -286.0289962392686220
  @DF-RHF Final Energy:  -286.02903677596493
    Total Energy =                       -286.0290367759649257
  @DF-RHF Final Energy:  -286.02905190265471
    Total Energy =                       -286.0290519026548282
  @DF-RHF Final Energy:  -286.02905556679696
    Total Energy =                       -286.0290555667968420
  @DF-RHF Final Energy:  -286.02905811157626
    Total Energy =                       -286.0290581115761483
  @DF-RHF Final Energy:  -286.02905313303017
    Total Energy =                       -286.0290531330302883
  Basis Set: 6-31G*
  Basis Set:
  @DF-RHF Final Energy:  -286.02905733934250
    Total Energy =                       -286.0290573393422164
  Basis Set: 6-31G*
  Basis Set:
  Basis Set: 6-31G*
  Basis Set:
  @DF-RHF Final Energy:  -286.02905956979521
    Total Energy =                       -286.0290595697953222
  Basis Set: 6-31G*
  Basis Set:
  Basis Set: 6-31G*
  Basis Set:
  @DF-RHF Final Energy:  -286.02906077457681
    Total Energy =                       -286.0290607745768057
  Basis Set: 6-31G*
  Basis Set:
  Charge       = 0
  Multiplicity = 1
  Basis Set: 6-31G*
  Basis Set:

    Orbital Energies (a.u.)
    -----------------------

    Doubly Occupied:

       1A    -20.520156     2A    -15.582175     3A    -11.341845
       4A    -11.265758     5A    -11.247004     6A    -11.228602
       7A     -1.388540     8A     -1.242832     9A     -1.013963
      10A     -0.971126    11A     -0.916320    12A     -0.737035
      13A     -0.680762    14A     -0.658466    15A     -0.651062
      16A     -0.591301    17A     -0.577406    18A     -0.568883
      19A     -0.561212    20A     -0.544031    21A     -0.528470
      22A     -0.501433    23A     -0.414007    24A     -0.370624

  @DF-RHF Final Energy:  -286.02906112294619

   => Energetics <=

    Nuclear Repulsion Energy =            252.6489764372202558
    One-Electron Energy =                -889.1500521573896094
    Two-Electron Energy =                 350.4720145972230512
    DFT Exchange-Correlation Energy =       0.0000000000000000
    Empirical Dispersion Energy =           0.0000000000000000
    PCM Polarization Energy =               0.0000000000000000
    EFP Energy =                            0.0000000000000000
    Total Energy =                       -286.0290611229463593
    Molecular point group: c1
  Basis Set: 6-31G*
  Basis Set:

  -Total Gradient:
     Atom            X                  Y                   Z
    ------   -----------------  -----------------  -----------------
       1        0.000163361994    -0.000012171105     0.000064873337
       2        0.001268185696    -0.000902902494     0.003733276718
       3       -0.000669602561     0.000220744777    -0.001880951736
       4       -0.001843051835     0.001895462349    -0.003508216823
       5        0.000023218555     0.000011719672    -0.000028185313
       6        0.000019053256    -0.000014409126     0.000019700020
       7       -0.000033926783     0.000007106134     0.000003518980
       8        0.001097421323    -0.001161996250     0.001651778190
       9        0.000035285664    -0.000147474899     0.000060829809
      10        0.000005597227    -0.000038655913    -0.000019634249
      11       -0.000000502252    -0.000015045555    -0.000001284390
      12       -0.000008952257     0.000064939206    -0.000028252249
      13       -0.000026725245     0.000066276266    -0.000009947166
      14       -0.000010284770    -0.000012148835    -0.000110099289
      15       -0.000019078009     0.000038555778     0.000052594162

  **** Optimization is complete! (in 20 steps) ****
    Final optimized geometry and variables:
    Molecular point group: c1

    Geometry (in Angstrom), charge = 0, multiplicity = 1:

    O           -0.826594828468    -1.482980012394    -0.068554249115
    C           -0.641424919408    -0.305551972020     0.071493565460
    C           -1.762518163804     0.597960990649     0.548230762313
    N            0.549859903910     0.282937967300    -0.262259592868
    H           -1.885083690146     1.456192757885    -0.102093246990
    H           -2.670476461546     0.013788977958     0.552573230977
    H           -1.578110918168     0.959646000449     1.554727072813
    C            1.004321151451     1.503112138470     0.374749180683
    C            1.613751457002    -0.605520574162    -0.694925141145
    H            1.482763709509     1.308886849986     1.333391409244
    H            0.188369706790     2.191714040320     0.531256466904
    H            1.725900877348     1.991303170464    -0.268339101408
    H            2.110880078857    -1.084309667646     0.145692739740
    H            1.209379693350    -1.372577601375    -1.334253491350
    H            2.345487100268    -0.029047855689    -1.247693845395

  Mulliken Charges: (a.u.)
   Center  Symbol    Alpha    Beta     Spin     Total
       1     O     4.29880  4.29880  0.00000 -0.59759
       2     C     2.62914  2.62914  0.00000  0.74173
       3     C     3.29698  3.29698  0.00000 -0.59396
       4     N     3.81793  3.81793  0.00000 -0.63585
       5     H     0.40594  0.40594  0.00000  0.18812
       6     H     0.39109  0.39109  0.00000  0.21781
       7     H     0.40700  0.40700  0.00000  0.18600
       8     C     3.14653  3.14653  0.00000 -0.29306
       9     C     3.14265  3.14265  0.00000 -0.28529
      10     H     0.41745  0.41745  0.00000  0.16510
      11     H     0.40725  0.40725  0.00000  0.18551
      12     H     0.40955  0.40955  0.00000  0.18091
      13     H     0.41894  0.41894  0.00000  0.16213
      14     H     0.39209  0.39209  0.00000  0.21583
      15     H     0.41868  0.41868  0.00000  0.16264

   Total alpha = 24.00000, Total beta = 24.00000, Total charge = -0.00000
