                              Psi4 1.0.54 Driver

  ==> Input File <==

--------------------------------------------------------------------------
set {
	reference rhf
	basis cc-pvtz
}

set_num_threads( 4 )
memory 2 gb

molecule MOL {
0 1

H	 -2.691051	 0.359216	 0.641196
O	 -2.041679	 -0.058866	 0.103463
C	 -0.959304	 0.780994	 -0.094939
C	 0.354905	 0.037902	 -0.006215
H	 -0.985899	 1.279578	 -1.057596
H	 -0.969809	 1.529522	 0.682889
F	 0.412060	 -0.931028	 -0.902708
F	 1.359641	 0.856111	 -0.239961
F	 0.545380	 -0.506387	 1.171682

	symmetry c1
}
set optking {
	frozen_dihedral = ("
		1 2 3 5
	")
}

ee,wfn = optimize('scf', return_wfn=True)
oeprop( wfn, 'DIPOLE', 'QUADRUPOLE', 'MULLIKEN_CHARGES')
f=open( 'psi4out.xyz', 'w' )
f.write( "9  " )
f.write( str(ee) + "\n" )
f.write( MOL.save_string_xyz() )
f.close()
--------------------------------------------------------------------------

    Molecular point group: c1
  Charge       = 0
  Multiplicity = 1
  Basis Set: CC-PVTZ
  Basis Set:
  @DF-RHF Final Energy:  -450.84301126238233
    Total Energy =                       -450.8430112623822197
    Molecular point group: c1
  Basis Set: CC-PVTZ
  Basis Set:
  Basis Set: CC-PVTZ
  Basis Set:
  @DF-RHF Final Energy:  -450.82131612412508
    Total Energy =                       -450.8213161241252465
  Basis Set: CC-PVTZ
  Basis Set:
  Basis Set: CC-PVTZ
  Basis Set:
  @DF-RHF Final Energy:  -450.84413160649632
    Total Energy =                       -450.8441316064963189
  Basis Set: CC-PVTZ
  Basis Set:
  Basis Set: CC-PVTZ
  Basis Set:
  @DF-RHF Final Energy:  -450.84441822420530
    Total Energy =                       -450.8444182242052420
  Basis Set: CC-PVTZ
  Basis Set:
  Basis Set: CC-PVTZ
  Basis Set:
  @DF-RHF Final Energy:  -450.84443047139138
    Total Energy =                       -450.8444304713912061
  Basis Set: CC-PVTZ
  Basis Set:
  Charge       = 0
  Multiplicity = 1
  Basis Set: CC-PVTZ
  Basis Set:

    Orbital Energies (a.u.)
    -----------------------

    Doubly Occupied:

       1A    -26.333792     2A    -26.330759     3A    -26.330047
       4A    -20.582419     5A    -11.489989     6A    -11.310214
       7A     -1.741840     8A     -1.638236     9A     -1.636721
      10A     -1.405929    11A     -1.050473    12A     -0.923905
      13A     -0.833010    14A     -0.831449    15A     -0.790326
      16A     -0.741422    17A     -0.713546    18A     -0.703770
      19A     -0.671062    20A     -0.657848    21A     -0.642592
      22A     -0.640551    23A     -0.600429    24A     -0.533261
      25A     -0.483039

  @DF-RHF Final Energy:  -450.84443303641297

   => Energetics <=

    Nuclear Repulsion Energy =            277.6533258077037090
    One-Electron Energy =               -1177.7622582582866926
    Two-Electron Energy =                 449.2644994141699044
    DFT Exchange-Correlation Energy =       0.0000000000000000
    Empirical Dispersion Energy =           0.0000000000000000
    PCM Polarization Energy =               0.0000000000000000
    EFP Energy =                            0.0000000000000000
    Total Energy =                       -450.8444330364130792
    Molecular point group: c1
  Basis Set: CC-PVTZ
  Basis Set:

  -Total Gradient:
     Atom            X                  Y                   Z
    ------   -----------------  -----------------  -----------------
       1       -0.000133581566     0.000061014903    -0.000005736098
       2        0.000152300533     0.000026335011     0.000079574425
       3        0.000046066807    -0.000156246955    -0.000097338741
       4        0.000173694230     0.000128000988     0.000142405904
       5       -0.000056852592     0.000039544405     0.000059337555
       6       -0.000058968321    -0.000027091063     0.000017771890
       7       -0.000060034405    -0.000160844085    -0.000183428388
       8        0.000041117118     0.000088923482     0.000006343390
       9       -0.000103741805     0.000000363311    -0.000018929931

  **** Optimization is complete! (in 6 steps) ****
    Final optimized geometry and variables:
    Molecular point group: c1

    Geometry (in Angstrom), charge = 0, multiplicity = 1:

    H           -2.562400528733    -0.223696830905     1.013911973943
    O           -1.948211512543    -0.367680278729     0.319242093051
    C           -1.015466751711     0.658324454849     0.265009520524
    C            0.339559884110     0.075699339406    -0.061286761583
    H           -1.257233901969     1.376273158094    -0.509871787938
    H           -0.915559122794     1.183162324949     1.206985324062
    F            0.335707271793    -0.574628377307    -1.201222527799
    F            1.226586109249     1.048154402255    -0.157399117183
    F            0.756038601429    -0.751511847505     0.870404958621

  Mulliken Charges: (a.u.)
   Center  Symbol    Alpha    Beta     Spin     Total
       1     H     0.38711  0.38711  0.00000  0.22577
       2     O     4.18912  4.18912  0.00000 -0.37824
       3     C     2.98735  2.98735  0.00000  0.02530
       4     C     2.67658  2.67658  0.00000  0.64683
       5     H     0.46256  0.46256  0.00000  0.07487
       6     H     0.46404  0.46404  0.00000  0.07191
       7     F     4.60830  4.60830  0.00000 -0.21661
       8     F     4.61453  4.61453  0.00000 -0.22906
       9     F     4.61040  4.61040  0.00000 -0.22079

   Total alpha = 25.00000, Total beta = 25.00000, Total charge =  0.00000

*** Psi4 exiting successfully. Buy a developer a beer!
