  ==> Input File <==

--------------------------------------------------------------------------
set {
	reference rhf
	basis cc-pvtz
}

set_num_threads( 4 )
memory 2 gb

molecule MOL {
0 1

H	 -2.123894	 -0.667238	 -0.609809
O	 -2.041679	 -0.058866	 0.103463
C	 -0.959304	 0.780994	 -0.094939
C	 0.354905	 0.037902	 -0.006215
H	 -0.985899	 1.279578	 -1.057596
H	 -0.969809	 1.529522	 0.682889
F	 0.164747	 -1.268330	 -0.064440
F	 1.137575	 0.371297	 -1.011139
F	 1.000407	 0.290647	 1.107077

	symmetry c1
}
set optking {
	frozen_dihedral = ("
		7 4 3 5
	")
}

ee = optimize('scf')
oeprop('DIPOLE', 'QUADRUPOLE', 'MULLIKEN_CHARGES')
f=open( 'psi4out.xyz', 'w' )
f.write( "9  " )
f.write( str(ee) + "\n" )
f.write( MOL.save_string_xyz() )
f.close()
--------------------------------------------------------------------------

    Molecular point group: c1
  Charge       = 0
  Multiplicity = 1
  Basis Set: CC-PVTZ
  Basis Set:
  @DF-RHF Final Energy:  -450.84014491549937
    Total Energy =                       -450.8401449154993088
    Molecular point group: c1
  Basis Set: CC-PVTZ
  Basis Set:
  Basis Set: CC-PVTZ
  Basis Set:
  @DF-RHF Final Energy:  -450.84066138959219
    Total Energy =                       -450.8406613895922419
  Basis Set: CC-PVTZ
  Basis Set:
  Basis Set: CC-PVTZ
  Basis Set:
  @DF-RHF Final Energy:  -450.84113064788966
    Total Energy =                       -450.8411306478897131
  Basis Set: CC-PVTZ
  Basis Set:
  Basis Set: CC-PVTZ
  Basis Set:
  @DF-RHF Final Energy:  -450.84115682496082
    Total Energy =                       -450.8411568249606489
  Basis Set: CC-PVTZ
  Basis Set:
  Basis Set: CC-PVTZ
  Basis Set:
  @DF-RHF Final Energy:  -450.84115997533934
    Total Energy =                       -450.8411599753395649
  Basis Set: CC-PVTZ
  Basis Set:
  Charge       = 0
  Multiplicity = 1
  Basis Set: CC-PVTZ
  Basis Set:

    Orbital Energies (a.u.)
    -----------------------

    Doubly Occupied:

       1A    -26.340402     2A    -26.338998     3A    -26.334751
       4A    -20.583200     5A    -11.495934     6A    -11.309818
       7A     -1.748385     8A     -1.645806     9A     -1.641442
      10A     -1.406738    11A     -1.045789    12A     -0.930457
      13A     -0.836839    14A     -0.835744    15A     -0.815058
      16A     -0.728888    17A     -0.718830    18A     -0.705890
      19A     -0.671066    20A     -0.666703    21A     -0.648596
      22A     -0.631185    23A     -0.617647    24A     -0.529395
      25A     -0.483999

  @DF-RHF Final Energy:  -450.84116040471662

   => Energetics <=

    Nuclear Repulsion Energy =            276.7345494677126112
    One-Electron Energy =               -1175.7282987863177368
    Two-Electron Energy =                 448.1525889138884509
    DFT Exchange-Correlation Energy =       0.0000000000000000
    Empirical Dispersion Energy =           0.0000000000000000
    PCM Polarization Energy =               0.0000000000000000
    EFP Energy =                            0.0000000000000000
    Total Energy =                       -450.8411604047166179
    Molecular point group: c1
  Basis Set: CC-PVTZ
  Basis Set:

  -Total Gradient:
     Atom            X                  Y                   Z
    ------   -----------------  -----------------  -----------------
       1       -0.000026764051    -0.000006378797     0.000002807499
       2        0.000038687836    -0.000015464541    -0.000024994490
       3       -0.002360184337    -0.004325989697    -0.001035308156
       4        0.000800997689     0.000860841594    -0.004470605060
       5        0.001856931171     0.003497476530     0.001834651303
       6        0.000016983652     0.000009504952    -0.000003865031
       7       -0.000363011890    -0.000056381633     0.003666686718
       8        0.000006999705     0.000015158613    -0.000045683700
       9        0.000029360231     0.000021232977     0.000076310917

  **** Optimization is complete! (in 6 steps) ****
    Final optimized geometry and variables:
    Molecular point group: c1

    Geometry (in Angstrom), charge = 0, multiplicity = 1:

    H           -2.136892651586    -0.694045855145    -0.546541912358
    O           -2.076509259225    -0.019446778974     0.106235345838
    C           -0.972774515553     0.782549756720    -0.110616038100
    C            0.359789060005     0.029860093718    -0.016687650280
    H           -0.993585481062     1.299671614708    -1.062747848774
    H           -0.968018551544     1.533990633732     0.663740295579
    F            0.196234324327    -1.272653100560    -0.097583844533
    F            1.179143929590     0.392264390484    -0.982997555583
    F            0.977450075904     0.270114917092     1.121709456276

  Mulliken Charges: (a.u.)
   Center  Symbol    Alpha    Beta     Spin     Total
       1     H     0.38696  0.38696  0.00000  0.22607
       2     O     4.18575  4.18575  0.00000 -0.37151
       3     C     3.00564  3.00564  0.00000 -0.01128
       4     C     2.67743  2.67743  0.00000  0.64514
       5     H     0.46227  0.46227  0.00000  0.07546
       6     H     0.44867  0.44867  0.00000  0.10266
       7     F     4.61155  4.61155  0.00000 -0.22310
       8     F     4.61124  4.61124  0.00000 -0.22248
       9     F     4.61049  4.61049  0.00000 -0.22097

   Total alpha = 25.00000, Total beta = 25.00000, Total charge =  0.00000
