  ==> Input File <==

--------------------------------------------------------------------------
set {
	reference rhf
	basis 6-31G*
}

set_num_threads( 4 )
memory 2 gb

molecule MOL {
0 1

H	 -2.646374	 -0.642757	 1.268656
C	 -2.083525	 -0.384536	 0.393091
O	 -0.807605	 -0.127164	 0.768327
F	 -2.118945	 -1.383102	 -0.486752
F	 -2.621877	 0.670592	 -0.209486
C	 0.171903	 -1.023338	 0.380871
C	 1.027530	 -1.305424	 1.609077
Cl	 1.159958	 -0.352149	 -0.926978
H	 -0.239530	 -1.955078	 0.033944
F	 1.979466	 -2.166401	 1.318087
F	 0.265756	 -1.838005	 2.543687
F	 1.575734	 -0.216669	 2.090802

	symmetry c1
}
set optking {
	frozen_dihedral = ("
		6 3 2 4
	")
}

ee = optimize('scf')
oeprop('DIPOLE', 'QUADRUPOLE', 'MULLIKEN_CHARGES')
f=open( 'psi4out.xyz', 'w' )
f.write( "12  " )
f.write( str(ee) + "\n" )
f.write( MOL.save_string_xyz() )
f.close()
--------------------------------------------------------------------------

    Molecular point group: c1
  Charge       = 0
  Multiplicity = 1
  Basis Set: 6-31G*
  Basis Set:
  @DF-RHF Final Energy: -1146.30564850660676
    Total Energy =                      -1146.3056485066067580
    Molecular point group: c1
  Basis Set: 6-31G*
  Basis Set:
  Basis Set: 6-31G*
  Basis Set:
  @DF-RHF Final Energy: -1146.30677214336674
    Total Energy =                      -1146.3067721433671977
  Basis Set: 6-31G*
  Basis Set:
  Basis Set: 6-31G*
  Basis Set:
  @DF-RHF Final Energy: -1146.30826308515248
    Total Energy =                      -1146.3082630851531576
  Basis Set: 6-31G*
  Basis Set:
  Basis Set: 6-31G*
  Basis Set:
  @DF-RHF Final Energy: -1146.30841960534781
    Total Energy =                      -1146.3084196053482628
  Basis Set: 6-31G*
  Basis Set:
  @DF-RHF Final Energy: -1146.30847079156888
    Total Energy =                      -1146.3084707915697891
  @DF-RHF Final Energy: -1146.30849240743100
    Total Energy =                      -1146.3084924074303217
  @DF-RHF Final Energy: -1146.30850679768901
    Total Energy =                      -1146.3085067976880964
  @DF-RHF Final Energy: -1146.30851912833032
    Total Energy =                      -1146.3085191283305448
  Basis Set: 6-31G*
  Basis Set:
  @DF-RHF Final Energy: -1146.30854361862839
    Total Energy =                      -1146.3085436186283914
  Basis Set: 6-31G*
  Basis Set:
  Basis Set: 6-31G*
  Basis Set:
  @DF-RHF Final Energy: -1146.30854678449532
    Total Energy =                      -1146.3085467844950927
  Basis Set: 6-31G*
  Basis Set:
  Basis Set: 6-31G*
  Basis Set:
  @DF-RHF Final Energy: -1146.30854854998506
    Total Energy =                      -1146.3085485499855167
  Basis Set: 6-31G*
  Basis Set:
  Charge       = 0
  Multiplicity = 1
  Basis Set: 6-31G*
  Basis Set:

    Orbital Energies (a.u.)
    -----------------------

    Doubly Occupied:

       1A   -104.841634     2A    -26.361259     3A    -26.360714
       4A    -26.358518     5A    -26.355759     6A    -26.341589
       7A    -20.645852     8A    -11.528930     9A    -11.492505
      10A    -11.402756    11A    -10.576447    12A     -8.045784
      13A     -8.042275    14A     -8.042168    15A     -1.762453
      16A     -1.720365    17A     -1.658840    18A     -1.657675
      19A     -1.642938    20A     -1.482258    21A     -1.177231
      22A     -1.053441    23A     -0.987068    24A     -0.922051
      25A     -0.859321    26A     -0.849592    27A     -0.845016
      28A     -0.830825    29A     -0.818662    30A     -0.792301
      31A     -0.730052    32A     -0.726857    33A     -0.702101
      34A     -0.699090    35A     -0.680371    36A     -0.675865
      37A     -0.662486    38A     -0.659405    39A     -0.642585
      40A     -0.634336    41A     -0.610690    42A     -0.574477
      43A     -0.512822    44A     -0.474304    45A     -0.468004

  @DF-RHF Final Energy: -1146.30854895132688

   => Energetics <=

    Nuclear Repulsion Energy =            731.9018603617713552
    One-Electron Energy =               -3046.6014715032488311
    Two-Electron Energy =                1168.3910621901504783
    DFT Exchange-Correlation Energy =       0.0000000000000000
    Empirical Dispersion Energy =           0.0000000000000000
    PCM Polarization Energy =               0.0000000000000000
    EFP Energy =                            0.0000000000000000
    Total Energy =                      -1146.3085489513268840
    Molecular point group: c1
  Basis Set: 6-31G*
  Basis Set:

  -Total Gradient:
     Atom            X                  Y                   Z
    ------   -----------------  -----------------  -----------------
       1       -0.000001783246    -0.000001220992    -0.000002159961
       2       -0.000266739163    -0.001074439654     0.000989771547
       3        0.000330567857     0.001008937722    -0.001100265080
       4        0.000136094433     0.000594330289    -0.000489468477
       5       -0.000006197660     0.000003541860    -0.000005585011
       6       -0.000185174180    -0.000529559688     0.000606995888
       7        0.000007236661    -0.000006802970     0.000017816211
       8       -0.000002961314    -0.000003856361     0.000007138773
       9        0.000003169175    -0.000001673636     0.000001486281
      10       -0.000001091867    -0.000000643969    -0.000016349245
      11       -0.000010769041    -0.000002533628    -0.000004081393
      12       -0.000002351688     0.000013921026    -0.000005299509

  **** Optimization is complete! (in 12 steps) ****
    Final optimized geometry and variables:
    Molecular point group: c1

    Geometry (in Angstrom), charge = 0, multiplicity = 1:

    H           -2.781192363968     0.046561287582     0.524372201382
    C           -2.107432599291     0.386561960939    -0.241635399218
    O           -0.836670124741     0.499416670641     0.247724245332
    F           -2.150556936179    -0.454287867634    -1.270734149036
    F           -2.492455557235     1.573902965079    -0.668680787751
    C            0.168352045553    -0.341226609698    -0.165744539790
    C            1.096355602053    -0.516866167571     1.029537065189
    CL           1.056385180527     0.324556653157    -1.552347295475
    H           -0.193025283509    -1.311040939285    -0.457303158669
    F            2.085512440184    -1.329557094482     0.725584855041
    F            0.412006775925    -1.062075740293     2.018064580479
    F            1.595556527150     0.619080929434     1.447954585512

  Mulliken Charges: (a.u.)
   Center  Symbol    Alpha    Beta     Spin     Total
       1     H     0.41167  0.41167  0.00000  0.17666
       2     C     2.56105  2.56105  0.00000  0.87790
       3     O     4.30937  4.30937  0.00000 -0.61874
       4     F     4.68306  4.68306  0.00000 -0.36613
       5     F     4.67131  4.67131  0.00000 -0.34261
       6     C     3.03569  3.03569  0.00000 -0.07138
       7     C     2.43299  2.43299  0.00000  1.13402
       8    CL     8.50471  8.50471  0.00000 -0.00942
       9     H     0.36984  0.36984  0.00000  0.26033
      10     F     4.67419  4.67419  0.00000 -0.34837
      11     F     4.67905  4.67905  0.00000 -0.35809
      12     F     4.66708  4.66708  0.00000 -0.33416

   Total alpha = 45.00000, Total beta = 45.00000, Total charge = -0.00000
