                              Psi4 1.0.54 Driver

  ==> Input File <==

--------------------------------------------------------------------------
set {
	reference rhf
	basis cc-pvtz
}

set_num_threads( 4 )
memory 2 gb

molecule MOL {
0 1

H	 -3.162190	 0.493205	 -0.000107
C	 -2.363908	 -0.234727	 0.000005
O	 -1.158738	 0.454634	 -0.000087
H	 -2.464314	 -0.863616	 -0.882153
H	 -2.464327	 -0.863359	 0.882345
C	 -1.247277	 1.770889	 0.447072
C	 0.126733	 2.408157	 0.398304
H	 -1.636459	 1.794480	 1.465217
H	 -1.943861	 2.331582	 -0.176656
C	 0.114139	 3.856435	 0.874416
H	 0.802236	 1.819868	 1.009480
H	 0.497245	 2.352743	 -0.619342
H	 -0.230883	 3.932420	 1.900220
H	 1.107130	 4.286503	 0.829340
H	 -0.537668	 4.468912	 0.260342

	symmetry c1
}
set optking {
	frozen_dihedral = ("
		6 3 2 4
	")
}

ee,wfn = optimize('scf', return_wfn=True)
oeprop( wfn, 'DIPOLE', 'QUADRUPOLE', 'MULLIKEN_CHARGES')
f=open( 'psi4out.xyz', 'w' )
f.write( "15  " )
f.write( str(ee) + "\n" )
f.write( MOL.save_string_xyz() )
f.close()
--------------------------------------------------------------------------

    Molecular point group: c1
  Charge       = 0
  Multiplicity = 1
  Basis Set: CC-PVTZ
  Basis Set:
  @DF-RHF Final Energy:  -232.22449025371236
    Total Energy =                       -232.2244902537123608
    Molecular point group: c1
  Basis Set: CC-PVTZ
  Basis Set:
  Basis Set: CC-PVTZ
  Basis Set:
  @DF-RHF Final Energy:  -232.22527079541328
    Total Energy =                       -232.2252707954131665
  Basis Set: CC-PVTZ
  Basis Set:
  Basis Set: CC-PVTZ
  Basis Set:
  @DF-RHF Final Energy:  -232.22550114025918
    Total Energy =                       -232.2255011402591549
  Basis Set: CC-PVTZ
  Basis Set:
  Charge       = 0
  Multiplicity = 1
  Basis Set: CC-PVTZ
  Basis Set:

    Orbital Energies (a.u.)
    -----------------------

    Doubly Occupied:

       1A    -20.544849     2A    -11.264779     3A    -11.261358
       4A    -11.212338     5A    -11.210514     6A     -1.378161
       7A     -1.058138     8A     -0.956108     9A     -0.877407
      10A     -0.809299    11A     -0.674406    12A     -0.654299
      13A     -0.631327    14A     -0.608940    15A     -0.563589
      16A     -0.545081    17A     -0.503082    18A     -0.488855
      19A     -0.479104    20A     -0.462187    21A     -0.412808

  @DF-RHF Final Energy:  -232.22550260267167

   => Energetics <=

    Nuclear Repulsion Energy =            189.7610155831345082
    One-Electron Energy =                -690.7797839740917425
    Two-Electron Energy =                 268.7932657882854528
    DFT Exchange-Correlation Energy =       0.0000000000000000
    Empirical Dispersion Energy =           0.0000000000000000
    PCM Polarization Energy =               0.0000000000000000
    EFP Energy =                            0.0000000000000000
    Total Energy =                       -232.2255026026717815
    Molecular point group: c1
  Basis Set: CC-PVTZ
  Basis Set:

  -Total Gradient:
     Atom            X                  Y                   Z
    ------   -----------------  -----------------  -----------------
       1       -0.000020856850     0.000001188431    -0.000001806706
       2        0.001333855690    -0.001903360941     0.000739273554
       3        0.000170006554    -0.000528477558     0.002410212851
       4       -0.001077682245     0.001896185019    -0.001223075151
       5        0.000003982370    -0.000033563897     0.000008274926
       6       -0.000419273121     0.000657196849    -0.001886512114
       7        0.000015309457    -0.000041050842    -0.000021636958
       8        0.000000855048    -0.000029097467    -0.000021021476
       9       -0.000005908508    -0.000033790628    -0.000009621840
      10       -0.000006810314     0.000006532087     0.000008578524
      11        0.000002379359     0.000003608430    -0.000002794484
      12        0.000004292858    -0.000000184783     0.000000951958
      13       -0.000000635885     0.000002868347    -0.000000426852
      14       -0.000000833904     0.000000675267     0.000000362857
      15        0.000001319489     0.000001271687    -0.000000759091

  **** Optimization is complete! (in 4 steps) ****
    Final optimized geometry and variables:
    Molecular point group: c1

    Geometry (in Angstrom), charge = 0, multiplicity = 1:

    H           -2.287431739317    -1.234162442597    -0.343097622664
    C           -1.421778496384    -1.890423722973    -0.332814827002
    O           -0.230070198862    -1.169999220120    -0.334168629656
    H           -1.461675257089    -2.498665006881    -1.227056258220
    H           -1.489818266960    -2.531114404655     0.541118060969
    C           -0.318261384289     0.147839380548     0.111072757019
    C            1.056134001354     0.783277366088     0.051852391841
    H           -0.699781345684     0.179058208090     1.131856828744
    H           -1.016551930004     0.705871600974    -0.511841200907
    C            1.046173533758     2.235863557019     0.515189577828
    H            1.733818940812     0.200102271149     0.665574594885
    H            1.422685821215     0.718284841363    -0.966747024540
    H            0.704725084775     2.321289086680     1.541495664352
    H            2.039308869427     2.664989028574     0.462894814527
    H            0.392641937551     2.843342976886    -0.102125954373

  Mulliken Charges: (a.u.)
   Center  Symbol    Alpha    Beta     Spin     Total
       1     H     0.47436  0.47436  0.00000  0.05128
       2     C     3.02979  3.02979  0.00000 -0.05958
       3     O     4.17546  4.17546  0.00000 -0.35092
       4     H     0.45309  0.45309  0.00000  0.09381
       5     H     0.46245  0.46245  0.00000  0.07509
       6     C     2.95557  2.95557  0.00000  0.08887
       7     C     3.08170  3.08170  0.00000 -0.16340
       8     H     0.47638  0.47638  0.00000  0.04724
       9     H     0.47499  0.47499  0.00000  0.05002
      10     C     3.15588  3.15588  0.00000 -0.31176
      11     H     0.45104  0.45104  0.00000  0.09792
      12     H     0.45124  0.45124  0.00000  0.09753
      13     H     0.45584  0.45584  0.00000  0.08832
      14     H     0.44628  0.44628  0.00000  0.10744
      15     H     0.45593  0.45593  0.00000  0.08815

   Total alpha = 21.00000, Total beta = 21.00000, Total charge = -0.00000

*** Psi4 exiting successfully. Buy a developer a beer!
