  ==> Input File <==

--------------------------------------------------------------------------
set {
	reference rhf
	basis 6-31G*
}

set_num_threads( 4 )
memory 2 gb

molecule MOL {
0 1

H	 2.716378	 -0.656173	 0.709549
N	 2.332695	 -0.069570	 0.000000
C	 0.936681	 -0.007078	 0.000000
H	 2.782487	 0.820634	 -0.001546
C	 0.227108	 -0.002120	 -1.198267
C	 0.227108	 -0.002120	 1.198267
H	 0.761569	 -0.014657	 -2.132680
C	 -1.156334	 0.010459	 -1.192360
H	 0.761569	 -0.014657	 2.132680
C	 -1.156334	 0.010459	 1.192360
H	 -1.684791	 0.014915	 -2.129421
C	 -1.862085	 0.017996	 0.000000
H	 -1.684791	 0.014915	 2.129421
H	 -2.936703	 0.028387	 0.000000

	symmetry c1
}
set optking {
	frozen_dihedral = ("
		1 2 3 5
	")
}

ee = optimize('scf')
oeprop('DIPOLE', 'QUADRUPOLE', 'MULLIKEN_CHARGES')
f=open( 'psi4out.xyz', 'w' )
f.write( "14  " )
f.write( str(ee) + "\n" )
f.write( MOL.save_string_xyz() )
f.close()
--------------------------------------------------------------------------

    Molecular point group: c1
  Charge       = 0
  Multiplicity = 1
  Basis Set: 6-31G*
  Basis Set:
  @DF-RHF Final Energy:  -285.72395372544167
    Total Energy =                       -285.7239537254417314
    Molecular point group: c1
  Basis Set: 6-31G*
  Basis Set:
  Basis Set: 6-31G*
  Basis Set:
  @DF-RHF Final Energy:  -285.72488435349550
    Total Energy =                       -285.7248843534953266
  Basis Set: 6-31G*
  Basis Set:
  Basis Set: 6-31G*
  Basis Set:
  @DF-RHF Final Energy:  -285.72507265516174
    Total Energy =                       -285.7250726551612843
  Basis Set: 6-31G*
  Basis Set:
  Basis Set: 6-31G*
  Basis Set:
  @DF-RHF Final Energy:  -285.72512148530080
    Total Energy =                       -285.7251214853007468
  Basis Set: 6-31G*
  Basis Set:
  Basis Set: 6-31G*
  Basis Set:
  @DF-RHF Final Energy:  -285.72512492577118
    Total Energy =                       -285.7251249257710697
  Basis Set: 6-31G*
  Basis Set:
  Charge       = 0
  Multiplicity = 1
  Basis Set: 6-31G*
  Basis Set:

    Orbital Energies (a.u.)
    -----------------------

    Doubly Occupied:

       1A    -15.547181     2A    -11.259963     3A    -11.229312
       4A    -11.227555     5A    -11.224718     6A    -11.224371
       7A    -11.219817     8A     -1.205804     9A     -1.125812
      10A     -1.010899    11A     -0.985149    12A     -0.826019
      13A     -0.806423    14A     -0.700825    15A     -0.664668
      16A     -0.645563    17A     -0.621513    18A     -0.589910
      19A     -0.581594    20A     -0.505441    21A     -0.496521
      22A     -0.490486    23A     -0.411029    24A     -0.330566
      25A     -0.318261

  @DF-RHF Final Energy:  -285.72512537378850

   => Energetics <=

    Nuclear Repulsion Energy =            272.3871223825184416
    One-Electron Energy =                -925.7256895691414229
    Two-Electron Energy =                 367.6134418128343668
    DFT Exchange-Correlation Energy =       0.0000000000000000
    Empirical Dispersion Energy =           0.0000000000000000
    PCM Polarization Energy =               0.0000000000000000
    EFP Energy =                            0.0000000000000000
    Total Energy =                       -285.7251253737886145
    Molecular point group: c1
  Basis Set: 6-31G*
  Basis Set:

  -Total Gradient:
     Atom            X                  Y                   Z
    ------   -----------------  -----------------  -----------------
       1       -0.000106863648    -0.001880119453    -0.001516145318
       2        0.000096496008     0.001495223730     0.001921905989
       3        0.000047558245     0.002242400122    -0.000438755652
       4       -0.000004594470     0.000001321928     0.000007754325
       5       -0.000096385164    -0.001870546066     0.000016371315
       6        0.000037564170     0.000024532628     0.000014453116
       7        0.000000119362     0.000002997659     0.000002167896
       8        0.000056167493     0.000022866627    -0.000008134344
       9       -0.000005925548    -0.000008335420    -0.000006520181
      10       -0.000010919013    -0.000028212385    -0.000016692730
      11       -0.000003765076    -0.000004464632    -0.000004703157
      12       -0.000011203919    -0.000007115239     0.000024785883
      13       -0.000004201522     0.000007455250     0.000005009482
      14        0.000005953079     0.000001995250    -0.000001496622

  **** Optimization is complete! (in 6 steps) ****
    Final optimized geometry and variables:
    Molecular point group: c1

    Geometry (in Angstrom), charge = 0, multiplicity = 1:

    H            2.730636974267    -0.652415977771     0.663429581509
    N            2.355109473824    -0.056930787334    -0.047004200891
    C            0.928651367652    -0.010737903972     0.000346337531
    H            2.764770653156     0.851572180492     0.048995796957
    C            0.225531816675    -0.011881001973    -1.196611895321
    C            0.221371684463    -0.000503071519     1.196427048665
    H            0.777347394159    -0.043827361495    -2.117997880227
    C           -1.159183973208     0.021471541256    -1.198248621255
    H            0.757770332482    -0.004890265163     2.130097765334
    C           -1.164240368127     0.015240825157     1.195300309582
    H           -1.690873692893     0.025078448654    -2.133276533444
    C           -1.859717939987     0.032355314679    -0.002517288711
    H           -1.698007270769     0.019571952540     2.129172766194
    H           -2.934898004466     0.048859701171    -0.004173541826

  Mulliken Charges: (a.u.)
   Center  Symbol    Alpha    Beta     Spin     Total
       1     H     0.32511  0.32511  0.00000  0.34977
       2     N     3.94245  3.94245  0.00000 -0.88491
       3     C     2.89761  2.89761  0.00000  0.20478
       4     H     0.32258  0.32258  0.00000  0.35485
       5     C     3.10001  3.10001  0.00000 -0.20002
       6     C     3.11280  3.11280  0.00000 -0.22559
       7     H     0.39394  0.39394  0.00000  0.21212
       8     C     3.09903  3.09903  0.00000 -0.19806
       9     H     0.40347  0.40347  0.00000  0.19306
      10     C     3.09865  3.09865  0.00000 -0.19730
      11     H     0.39982  0.39982  0.00000  0.20035
      12     C     3.10370  3.10370  0.00000 -0.20739
      13     H     0.40018  0.40018  0.00000  0.19965
      14     H     0.40066  0.40066  0.00000  0.19869

   Total alpha = 25.00000, Total beta = 25.00000, Total charge = -0.00000
