  ==> Input File <==

--------------------------------------------------------------------------
set {
	reference rhf
	basis 6-31G*
}

set_num_threads( 1 )
memory 2 gb

molecule MOL {
0 1

H	 -2.774551	 -1.371323	 0.866436
O	 -1.947751	 -1.048673	 0.537691
C	 -2.026376	 0.340750	 0.341611
C	 -0.673256	 0.843270	 -0.132153
H	 -2.786120	 0.576436	 -0.401476
H	 -2.305909	 0.842150	 1.267415
C	 0.486613	 -0.083066	 0.235839
H	 -0.715586	 0.970948	 -1.210718
H	 -0.508072	 1.829858	 0.297090
C	 1.840406	 0.433480	 -0.254303
H	 0.300215	 -1.068318	 -0.178947
H	 0.519509	 -0.203625	 1.318070
C	 3.000220	 -0.489290	 0.118523
H	 1.809207	 0.553576	 -1.335192
H	 2.021860	 1.424500	 0.157276
H	 2.864959	 -1.479103	 -0.307933
H	 3.946603	 -0.099227	 -0.243630
H	 3.080049	 -0.602997	 1.196117

	symmetry c1
}
set optking {
	frozen_dihedral = ("
		14 10 7 11,
		10 7 4 8,
		1 2 3 4
	")
}

ee = energy('scf')
oeprop('DIPOLE', 'QUADRUPOLE', 'MULLIKEN_CHARGES')
f=open( 'psi4out.xyz', 'w' )
f.write( "18  " )
f.write( str(ee) + "\n" )
f.write( MOL.save_string_xyz() )
f.close()
--------------------------------------------------------------------------

    Molecular point group: c1

    Geometry (in Angstrom), charge = 0, multiplicity = 1:

       Center              X                  Y                   Z               Mass
    ------------   -----------------  -----------------  -----------------  -----------------
           H         -2.841211000054    -1.338990980233     0.710341489513     1.007825032070
           O         -2.014411000054    -1.016340980233     0.381596489513    15.994914619560
           C         -2.093036000054     0.373082019767     0.185516489513    12.000000000000
           C         -0.739916000054     0.875602019767    -0.288247510487    12.000000000000
           H         -2.852780000054     0.608768019767    -0.557570510487     1.007825032070
           H         -2.372569000054     0.874482019767     1.111320489513     1.007825032070
           C          0.419952999946    -0.050733980233     0.079744489513    12.000000000000
           H         -0.782246000054     1.003280019767    -1.366812510487     1.007825032070
           H         -0.574732000054     1.862190019767     0.140995489513     1.007825032070
           C          1.773745999946     0.465812019767    -0.410397510487    12.000000000000
           H          0.233554999946    -1.035985980233    -0.335041510487     1.007825032070
           H          0.452848999946    -0.171292980233     1.161975489513     1.007825032070
           C          2.933559999946    -0.456957980233    -0.037571510487    12.000000000000
           H          1.742546999946     0.585908019767    -1.491286510487     1.007825032070
           H          1.955199999946     1.456832019767     0.001181489513     1.007825032070
           H          2.798298999946    -1.446770980233    -0.464027510487     1.007825032070
           H          3.879942999946    -0.066894980233    -0.399724510487     1.007825032070
           H          3.013388999946    -0.570664980233     1.040022489513     1.007825032070

  Charge       = 0
  Multiplicity = 1
  Basis Set: 6-31G*
  Basis Set:

    Orbital Energies (a.u.)
    -----------------------

    Doubly Occupied:

       1A    -20.552824     2A    -11.267502     3A    -11.210479
       4A    -11.207260     5A    -11.202001     6A    -11.201587
       7A     -1.360602     8A     -1.071131     9A     -1.007040
      10A     -0.912512    11A     -0.816120    12A     -0.779542
      13A     -0.699083    14A     -0.655226    15A     -0.616345
      16A     -0.580768    17A     -0.570236    18A     -0.551333
      19A     -0.516099    20A     -0.500971    21A     -0.491263
      22A     -0.462139    23A     -0.454968    24A     -0.443357
      25A     -0.425297

  @DF-RHF Final Energy:  -271.17267717215111

   => Energetics <=

    Nuclear Repulsion Energy =            251.1475306061102231
    One-Electron Energy =                -865.5291076253713527
    Two-Electron Energy =                 343.2088998471107288
    DFT Exchange-Correlation Energy =       0.0000000000000000
    Empirical Dispersion Energy =           0.0000000000000000
    PCM Polarization Energy =               0.0000000000000000
    EFP Energy =                            0.0000000000000000
    Total Energy =                       -271.1726771721504292

  Mulliken Charges: (a.u.)
   Center  Symbol    Alpha    Beta     Spin     Total
       1     H     0.28064  0.28064  0.00000  0.43872
       2     O     4.37123  4.37123  0.00000 -0.74246
       3     C     2.99111  2.99111  0.00000  0.01777
       4     C     3.17301  3.17301  0.00000 -0.34603
       5     H     0.42925  0.42925  0.00000  0.14149
       6     H     0.43156  0.43156  0.00000  0.13687
       7     C     3.14429  3.14429  0.00000 -0.28858
       8     H     0.41991  0.41991  0.00000  0.16017
       9     H     0.42176  0.42176  0.00000  0.15648
      10     C     3.15208  3.15208  0.00000 -0.30416
      11     H     0.40711  0.40711  0.00000  0.18578
      12     H     0.42327  0.42327  0.00000  0.15345
      13     C     3.23843  3.23843  0.00000 -0.47686
      14     H     0.42498  0.42498  0.00000  0.15004
      15     H     0.42641  0.42641  0.00000  0.14717
      16     H     0.42136  0.42136  0.00000  0.15729
      17     H     0.42120  0.42120  0.00000  0.15760
      18     H     0.42238  0.42238  0.00000  0.15524

   Total alpha = 25.00000, Total beta = 25.00000, Total charge =  0.00000
