  ==> Input File <==

--------------------------------------------------------------------------
set {
	reference rhf
	basis 6-31G*
}

set_num_threads( 4 )
memory 2 gb

molecule MOL {
0 1

O	 3.225979	 0.970355	 -0.599647
C	 2.701189	 0.057885	 -0.047330
C	 1.245376	 -0.013843	 0.345420
O	 3.347903	 -1.046386	 0.304773
C	 0.295441	 0.192578	 -0.832345
H	 1.092779	 -0.973664	 0.827757
H	 1.081433	 0.735055	 1.116114
C	 -1.183795	 0.227218	 -0.433403
H	 0.460006	 -0.589757	 -1.567185
H	 0.552464	 1.124266	 -1.324605
C	 -1.737396	 -1.094083	 0.107707
H	 -1.762085	 0.513586	 -1.308788
H	 -1.342381	 1.013721	 0.302989
C	 -3.240642	 -1.039240	 0.387425
H	 -1.533955	 -1.887664	 -0.609691
H	 -1.219757	 -1.370139	 1.023576
C	 -3.803870	 -2.352529	 0.933481
H	 -3.767598	 -0.776388	 -0.528250
H	 -3.445999	 -0.238847	 1.096579
C	 -5.306302	 -2.290563	 1.206532
H	 -3.598643	 -3.153613	 0.226523
H	 -3.281365	 -2.614689	 1.851109
H	 -5.675680	 -3.235644	 1.592524
H	 -5.860499	 -2.064422	 0.299934
H	 -5.540729	 -1.520916	 1.936574
C	 4.728119	 -1.109107	 -0.004993
H	 4.882018	 -1.033965	 -1.071845
H	 5.068212	 -2.067527	 0.355250
H	 5.265056	 -0.311663	 0.488280

	symmetry c1
}
set optking {
	frozen_dihedral = ("
		6 3 2 1
	")
}

ee = optimize('scf')
oeprop('DIPOLE', 'QUADRUPOLE', 'MULLIKEN_CHARGES')
f=open( 'psi4out.xyz', 'w' )
f.write( "29  " )
f.write( str(ee) + "\n" )
f.write( MOL.save_string_xyz() )
f.close()
--------------------------------------------------------------------------

    Molecular point group: c1
  Charge       = 0
  Multiplicity = 1
  Basis Set: 6-31G*
  Basis Set:
  @DF-RHF Final Energy:  -501.04217740313459
    Total Energy =                       -501.0421774031342466
    Molecular point group: c1
  Basis Set: 6-31G*
  Basis Set:
  Basis Set: 6-31G*
  Basis Set:
  @DF-RHF Final Energy:  -501.04256611604194
    Total Energy =                       -501.0425661160422806
  Basis Set: 6-31G*
  Basis Set:
  Basis Set: 6-31G*
  Basis Set:
  @DF-RHF Final Energy:  -501.04169835473863
    Total Energy =                       -501.0416983547391965
  Basis Set: 6-31G*
  Basis Set:
  Basis Set: 6-31G*
  Basis Set:
  @DF-RHF Final Energy:  -501.04277434187497
    Total Energy =                       -501.0427743418752016
  Basis Set: 6-31G*
  Basis Set:
  Basis Set: 6-31G*
  Basis Set:
  @DF-RHF Final Energy:  -501.04277319061066
    Total Energy =                       -501.0427731906110012
  Basis Set: 6-31G*
  Basis Set:
  Basis Set: 6-31G*
  Basis Set:
  @DF-RHF Final Energy:  -501.04277302554556
    Total Energy =                       -501.0427730255455572
  Basis Set: 6-31G*
  Basis Set:
  Basis Set: 6-31G*
  Basis Set:
  @DF-RHF Final Energy:  -501.04277887123908
    Total Energy =                       -501.0427788712386246
  Basis Set: 6-31G*
  Basis Set:
  Charge       = 0
  Multiplicity = 1
  Basis Set: 6-31G*
  Basis Set:

    Orbital Energies (a.u.)
    -----------------------

    Doubly Occupied:

       1A    -20.605746     2A    -20.542021     3A    -11.371283
       4A    -11.280624     5A    -11.233086     6A    -11.225075
       7A    -11.219625     8A    -11.217000     9A    -11.216474
      10A    -11.215242    11A    -11.209522    12A     -1.469379
      13A     -1.361118    14A     -1.099415    15A     -1.067329
      16A     -1.019200    17A     -0.977293    18A     -0.929856
      19A     -0.862706    20A     -0.799474    21A     -0.790859
      22A     -0.769408    23A     -0.699046    24A     -0.679248
      25A     -0.672829    26A     -0.651878    27A     -0.626778
      28A     -0.606177    29A     -0.594524    30A     -0.580364
      31A     -0.561339    32A     -0.560169    33A     -0.534574
      34A     -0.528381    35A     -0.517910    36A     -0.515220
      37A     -0.495821    38A     -0.479151    39A     -0.470722
      40A     -0.463493    41A     -0.459770    42A     -0.454959
      43A     -0.442143    44A     -0.432125

  @DF-RHF Final Energy:  -501.04277883962766

   => Energetics <=

    Nuclear Repulsion Energy =            610.9797719855049536
    One-Electron Energy =               -1893.0283859903997836
    Two-Electron Energy =                 781.0058351652676265
    DFT Exchange-Correlation Energy =       0.0000000000000000
    Empirical Dispersion Energy =           0.0000000000000000
    PCM Polarization Energy =               0.0000000000000000
    EFP Energy =                            0.0000000000000000
    Total Energy =                       -501.0427788396270898
    Molecular point group: c1
  Basis Set: 6-31G*
  Basis Set:

  -Total Gradient:
     Atom            X                  Y                   Z
    ------   -----------------  -----------------  -----------------
       1        0.000158037735     0.000266480660     0.000647012938
       2       -0.000209647509    -0.000304852713    -0.000792420716
       3       -0.000126131705    -0.000217987769    -0.000478639746
       4        0.000041656814    -0.000021067198     0.000001463483
       5       -0.000000975799    -0.000007814406     0.000001941978
       6        0.000148602924     0.000280300475     0.000613957748
       7       -0.000005317712     0.000003238490     0.000002096419
       8       -0.000011247967    -0.000006856674    -0.000016007307
       9       -0.000001282029     0.000002662019    -0.000009464630
      10        0.000005795677    -0.000001274531     0.000011795558
      11        0.000011185991     0.000009987098     0.000019570713
      12       -0.000013001297    -0.000002716945     0.000003432618
      13        0.000005005337    -0.000001590574    -0.000001644167
      14       -0.000001612474     0.000001681752    -0.000007441771
      15        0.000006468582     0.000008488988     0.000005267691
      16        0.000001658910    -0.000001074395     0.000004002276
      17       -0.000001132261    -0.000001753054    -0.000006922644
      18       -0.000002613360     0.000004211138    -0.000000945508
      19        0.000000403082    -0.000003996679     0.000001029610
      20       -0.000000080928    -0.000000380413     0.000000104098
      21       -0.000000953648    -0.000001544451     0.000000292636
      22        0.000000514683     0.000001037589    -0.000001114104
      23       -0.000000215486     0.000000064707     0.000000576139
      24        0.000000429881    -0.000000320396     0.000000309989
      25       -0.000000055499     0.000000371073    -0.000000038057
      26       -0.000014694595    -0.000004420984     0.000000349967
      27        0.000004541650    -0.000000651959    -0.000000359017
      28        0.000002486047    -0.000000693634     0.000000766612
      29        0.000002174939     0.000000472782     0.000001027195

  **** Optimization is complete! (in 8 steps) ****
    Final optimized geometry and variables:
    Molecular point group: c1

    Geometry (in Angstrom), charge = 0, multiplicity = 1:

    O            3.101589548106     1.668993560078    -0.700412725585
    C            2.633349561933     0.718031869777    -0.159684863912
    C            1.184439192259     0.601704083152     0.251584890841
    O            3.341057045351    -0.356726765630     0.156494992749
    C            0.243075193866     0.831053301853    -0.938130323166
    H            1.022692934910    -0.358677363547     0.720519488956
    H            1.012100377850     1.369841348267     1.000867959144
    C           -1.238590467039     0.889627622734    -0.553523938359
    H            0.395134475035     0.043870017943    -1.673663485643
    H            0.524929285206     1.762194685593    -1.416286034181
    C           -1.816846202102    -0.420494909993    -0.011750237610
    H           -1.803806876480     1.182145923322    -1.435476173856
    H           -1.388232599857     1.681975658055     0.177998927688
    C           -3.321331354441    -0.340746715531     0.255023978033
    H           -1.619847860204    -1.220420025278    -0.723907282217
    H           -1.310509772299    -0.700155235663     0.909106014670
    C           -3.909530494378    -1.642989817072     0.801192667422
    H           -3.836588783459    -0.073081325454    -0.665920669079
    H           -3.519873858242     0.465421863646     0.959501625537
    C           -5.412821424305    -1.556091209010     1.062436943879
    H           -3.711675731446    -2.449765300179     0.098608582611
    H           -3.398262454757    -1.910118685343     1.723665759163
    H           -5.800079192240    -2.493750789940     1.448974144719
    H           -5.956438780304    -1.324534609937     0.150813707320
    H           -5.640505860478    -0.780131948477     1.787888539838
    C            4.717828157469    -0.338339643745    -0.175718971644
    H            4.849060297736    -0.232027680942    -1.242855193078
    H            5.114380737236    -1.284446602507     0.158227205143
    H            5.218395580117     0.476746386209     0.326658315112

  Mulliken Charges: (a.u.)
   Center  Symbol    Alpha    Beta     Spin     Total
       1     O     4.28726  4.28726  0.00000 -0.57453
       2     C     2.60782  2.60782  0.00000  0.78436
       3     C     3.20671  3.20671  0.00000 -0.41341
       4     O     4.30351  4.30351  0.00000 -0.60701
       5     C     3.16362  3.16362  0.00000 -0.32725
       6     H     0.39846  0.39846  0.00000  0.20308
       7     H     0.40182  0.40182  0.00000  0.19636
       8     C     3.15577  3.15577  0.00000 -0.31155
       9     H     0.41764  0.41764  0.00000  0.16472
      10     H     0.40088  0.40088  0.00000  0.19824
      11     C     3.15490  3.15490  0.00000 -0.30979
      12     H     0.41818  0.41818  0.00000  0.16365
      13     H     0.42183  0.42183  0.00000  0.15634
      14     C     3.15053  3.15053  0.00000 -0.30106
      15     H     0.42300  0.42300  0.00000  0.15401
      16     H     0.42253  0.42253  0.00000  0.15493
      17     C     3.15148  3.15148  0.00000 -0.30296
      18     H     0.42340  0.42340  0.00000  0.15319
      19     H     0.42364  0.42364  0.00000  0.15272
      20     C     3.23939  3.23939  0.00000 -0.47878
      21     H     0.42289  0.42289  0.00000  0.15423
      22     H     0.42320  0.42320  0.00000  0.15360
      23     H     0.41914  0.41914  0.00000  0.16171
      24     H     0.42157  0.42157  0.00000  0.15685
      25     H     0.42167  0.42167  0.00000  0.15666
      26     C     3.09359  3.09359  0.00000 -0.18719
      27     H     0.40854  0.40854  0.00000  0.18292
      28     H     0.40846  0.40846  0.00000  0.18307
      29     H     0.40855  0.40855  0.00000  0.18289

   Total alpha = 44.00000, Total beta = 44.00000, Total charge = -0.00000
