                              Psi4 1.0.54 Driver

  ==> Input File <==

--------------------------------------------------------------------------
set {
	reference rhf
	basis cc-pvtz
}

set_num_threads( 4 )
memory 2 gb

molecule MOL {
0 1

H	 -4.340537	 -0.784487	 0.000000
O	 -3.958786	 0.074640	 0.000000
C	 -2.613554	 0.009900	 0.000000
C	 -1.993621	 -0.440351	 1.153747
C	 -1.850809	 0.371728	 -1.093702
H	 -2.595172	 -0.718377	 1.996184
C	 -0.620200	 -0.526415	 1.208546
H	 -2.324538	 0.721968	 -1.992301
C	 -0.471704	 0.284696	 -1.037001
H	 -0.142503	 -0.874940	 2.101912
C	 0.138121	 -0.163289	 0.111866
H	 0.115696	 0.566340	 -1.887495
Br	 2.030966	 -0.283762	 0.192489

	symmetry c1
}
set optking {
	frozen_dihedral = ("
		4 3 2 1
	")
}

ee,wfn = optimize('scf', return_wfn=True)
oeprop( wfn, 'DIPOLE', 'QUADRUPOLE', 'MULLIKEN_CHARGES')
f=open( 'psi4out.xyz', 'w' )
f.write( "13  " )
f.write( str(ee) + "\n" )
f.write( MOL.save_string_xyz() )
f.close()
--------------------------------------------------------------------------

    Molecular point group: c1
  Charge       = 0
  Multiplicity = 1
  Basis Set: CC-PVTZ
  Basis Set:
  @DF-RHF Final Energy: -2877.54196049182610
    Total Energy =                      -2877.5419604918265577
    Molecular point group: c1
  Basis Set: CC-PVTZ
  Basis Set:
  Basis Set: CC-PVTZ
  Basis Set:
  @DF-RHF Final Energy: -2877.54319486314716
    Total Energy =                      -2877.5431948631467094
  Basis Set: CC-PVTZ
  Basis Set:
  Basis Set: CC-PVTZ
  Basis Set:
  @DF-RHF Final Energy: -2877.54326763212111
    Total Energy =                      -2877.5432676321233885
  Basis Set: CC-PVTZ
  Basis Set:
  Basis Set: CC-PVTZ
  Basis Set:
  @DF-RHF Final Energy: -2877.54327559029571
    Total Energy =                      -2877.5432755902966164
  Basis Set: CC-PVTZ
  Basis Set:
  Charge       = 0
  Multiplicity = 1
  Basis Set: CC-PVTZ
  Basis Set:

    Orbital Energies (a.u.)
    -----------------------

    Doubly Occupied:

       1A   -490.020665     2A    -65.160998     3A    -58.516222
       4A    -58.514856     5A    -58.514842     6A    -20.584179
       7A    -11.303894     8A    -11.293350     9A    -11.252368
      10A    -11.251671    11A    -11.242787    12A    -11.240785
      13A     -9.834801    14A     -7.446423    15A     -7.439640
      16A     -7.439614    17A     -3.190116    18A     -3.186571
      19A     -3.186430    20A     -3.177793    21A     -3.177789
      22A     -1.412293    23A     -1.180686    24A     -1.067647
      25A     -1.041828    26A     -0.970615    27A     -0.863027
      28A     -0.826614    29A     -0.753460    30A     -0.679845
      31A     -0.661763    32A     -0.645834    33A     -0.610391
      34A     -0.600720    35A     -0.550577    36A     -0.531409
      37A     -0.502551    38A     -0.490882    39A     -0.434056
      40A     -0.415488    41A     -0.359056    42A     -0.327983

  @DF-RHF Final Energy: -2877.54327756038128

   => Energetics <=

    Nuclear Repulsion Energy =            525.1712911643583084
    One-Electron Energy =               -5041.6240928580127729
    Two-Electron Energy =                1638.9095241332734076
    DFT Exchange-Correlation Energy =       0.0000000000000000
    Empirical Dispersion Energy =           0.0000000000000000
    PCM Polarization Energy =               0.0000000000000000
    EFP Energy =                            0.0000000000000000
    Total Energy =                      -2877.5432775603812843
    Molecular point group: c1
  Basis Set: CC-PVTZ
  Basis Set:

  -Total Gradient:
     Atom            X                  Y                   Z
    ------   -----------------  -----------------  -----------------
       1        0.000051963282    -0.000021284811    -0.001604813375
       2       -0.000155692687     0.000593689383     0.002209077732
       3        0.000106386844    -0.001617445372    -0.001130397539
       4        0.000038955554     0.001079252310     0.000452733183
       5       -0.000151295168    -0.000008633767     0.000015940737
       6        0.000045012843     0.000009317966    -0.000020920908
       7       -0.000075964621    -0.000027753589     0.000047596686
       8       -0.000051127829    -0.000003193389     0.000030813429
       9        0.000182428175    -0.000069017107     0.000087365571
      10        0.000054052563     0.000006275827    -0.000009475584
      11        0.000004251654     0.000074003668    -0.000133152085
      12       -0.000017780044    -0.000000529382     0.000014803506
      13       -0.000031191192    -0.000014681754     0.000040428665

  **** Optimization is complete! (in 5 steps) ****
    Final optimized geometry and variables:
    Molecular point group: c1

    Geometry (in Angstrom), charge = 0, multiplicity = 1:

    H           -4.373788948990    -0.586280997593    -0.146688704780
    O           -3.958883843580     0.258367525206    -0.158387886254
    C           -2.602692485062     0.133586120650    -0.103449095396
    C           -1.977871104023    -0.299267337878     1.050657877372
    C           -1.848811783569     0.508693273954    -1.197068511460
    H           -2.568661797933    -0.565181890419     1.905868062226
    C           -0.600162299304    -0.378517544214     1.104649853794
    H           -2.345701034885     0.857253948451    -2.080807185810
    C           -0.469791338411     0.440242761304    -1.144453476925
    H           -0.114899628987    -0.716962003515     1.997652237661
    C            0.145369590845    -0.007716795438     0.005166759487
    H            0.115668724719     0.731653273585    -1.992801953918
    BR           2.039191204411    -0.109164836215     0.079406338315

  Mulliken Charges: (a.u.)
   Center  Symbol    Alpha    Beta     Spin     Total
       1     H     0.38596  0.38596  0.00000  0.22809
       2     O     4.18702  4.18702  0.00000 -0.37404
       3     C     2.88053  2.88053  0.00000  0.23895
       4     C     3.10018  3.10018  0.00000 -0.20036
       5     C     3.08970  3.08970  0.00000 -0.17939
       6     H     0.41630  0.41630  0.00000  0.16740
       7     C     3.08824  3.08824  0.00000 -0.17648
       8     H     0.41293  0.41293  0.00000  0.17414
       9     C     3.08668  3.08668  0.00000 -0.17336
      10     H     0.41025  0.41025  0.00000  0.17950
      11     C     2.96769  2.96769  0.00000  0.06462
      12     H     0.41014  0.41014  0.00000  0.17973
      13    BR    17.56439 17.56439  0.00000 -0.12878

   Total alpha = 42.00000, Total beta = 42.00000, Total charge = -0.00000

*** Psi4 exiting successfully. Buy a developer a beer!
