                              Psi4 1.0.54 Driver

  ==> Input File <==

--------------------------------------------------------------------------
set {
	reference rhf
	basis cc-pvtz
}

set_num_threads( 4 )
memory 2 gb

molecule MOL {
0 1

H	 -3.643020	 -1.988537	 1.106922
O	 -3.161408	 -1.540200	 0.436669
C	 -1.921016	 -1.114995	 0.935717
C	 -1.175688	 -0.398187	 -0.171891
H	 -2.060397	 -0.445617	 1.782050
H	 -1.338758	 -1.965749	 1.283599
C	 0.196029	 0.106276	 0.266738
H	 -1.785348	 0.431651	 -0.515259
H	 -1.072380	 -1.077305	 -1.012155
C	 1.330220	 -0.826136	 -0.155230
H	 0.359542	 1.097229	 -0.145561
H	 0.212134	 0.218135	 1.348778
C	 2.719700	 -0.407669	 0.328325
H	 1.339388	 -0.911200	 -1.239363
H	 1.119001	 -1.821953	 0.224128
C	 3.241564	 0.893452	 -0.276737
H	 3.418299	 -1.204729	 0.093035
H	 2.711776	 -0.323368	 1.411960
H	 3.254204	 0.841071	 -1.360784
H	 2.634460	 1.745075	 0.005842
H	 4.254264	 1.092401	 0.054971

	symmetry c1
}
set optking {
	frozen_dihedral = ("
		8 4 7 10
	")
}

ee,wfn = optimize('scf', return_wfn=True)
oeprop( wfn, 'DIPOLE', 'QUADRUPOLE', 'MULLIKEN_CHARGES')
f=open( 'psi4out.xyz', 'w' )
f.write( "21  " )
f.write( str(ee) + "\n" )
f.write( MOL.save_string_xyz() )
f.close()
--------------------------------------------------------------------------

    Molecular point group: c1
  Charge       = 0
  Multiplicity = 1
  Basis Set: CC-PVTZ
  Basis Set:
  @DF-RHF Final Energy:  -310.32903627964276
    Total Energy =                       -310.3290362796428781
    Molecular point group: c1
  Basis Set: CC-PVTZ
  Basis Set:
  Basis Set: CC-PVTZ
  Basis Set:
  @DF-RHF Final Energy:  -310.32928974270169
    Total Energy =                       -310.3292897427019739
  Basis Set: CC-PVTZ
  Basis Set:
  Basis Set: CC-PVTZ
  Basis Set:
  @DF-RHF Final Energy:  -310.32932549280912
    Total Energy =                       -310.3293254928091187
  Basis Set: CC-PVTZ
  Basis Set:
  Basis Set: CC-PVTZ
  Basis Set:
  @DF-RHF Final Energy:  -310.32933112091553
    Total Energy =                       -310.3293311209157537
  Basis Set: CC-PVTZ
  Basis Set:
  Basis Set: CC-PVTZ
  Basis Set:
  @DF-RHF Final Energy:  -310.32933946075843
    Total Energy =                       -310.3293394607583195
  Basis Set: CC-PVTZ
  Basis Set:
  Charge       = 0
  Multiplicity = 1
  Basis Set: CC-PVTZ
  Basis Set:

    Orbital Energies (a.u.)
    -----------------------

    Doubly Occupied:

       1A    -20.545617     2A    -11.265461     3A    -11.213440
       4A    -11.213157     5A    -11.211854     6A    -11.208729
       7A    -11.206112     8A     -1.363667     9A     -1.086794
      10A     -1.033203    11A     -0.953848    12A     -0.879815
      13A     -0.809712    14A     -0.777792    15A     -0.698094
      16A     -0.652243    17A     -0.629583    18A     -0.609588
      19A     -0.590805    20A     -0.561705    21A     -0.547160
      22A     -0.518055    23A     -0.510542    24A     -0.495146
      25A     -0.475791    26A     -0.460464    27A     -0.452808
      28A     -0.448936    29A     -0.432788

  @DF-RHF Final Energy:  -310.32933956086879

   => Energetics <=

    Nuclear Repulsion Energy =            314.8321964284244814
    One-Electron Energy =               -1044.6172595373623153
    Two-Electron Energy =                 419.4557235480693862
    DFT Exchange-Correlation Energy =       0.0000000000000000
    Empirical Dispersion Energy =           0.0000000000000000
    PCM Polarization Energy =               0.0000000000000000
    EFP Energy =                            0.0000000000000000
    Total Energy =                       -310.3293395608684477
    Molecular point group: c1
  Basis Set: CC-PVTZ
  Basis Set:

  -Total Gradient:
     Atom            X                  Y                   Z
    ------   -----------------  -----------------  -----------------
       1        0.000013915463    -0.000000757363     0.000001701920
       2        0.000006040834     0.000011822951    -0.000010038914
       3        0.000003017954     0.000001015563     0.000009179270
       4       -0.001041994090     0.000875764756     0.002479458564
       5       -0.000001964392     0.000001580173    -0.000001842432
       6       -0.000005918753    -0.000001753187    -0.000002033525
       7       -0.000004318070    -0.001422725626     0.001733599268
       8        0.000860581131    -0.000407998728    -0.002518954254
       9       -0.000001816652    -0.000000615120    -0.000002500711
      10        0.000169697870     0.000950416692    -0.001689971552
      11       -0.000001810054    -0.000005445372     0.000001758973
      12        0.000003560447     0.000001426501    -0.000000705369
      13        0.000001687392    -0.000001998573     0.000004340914
      14       -0.000003517338     0.000000211635    -0.000000670575
      15        0.000004696054     0.000003550827     0.000001867535
      16       -0.000001564559    -0.000001453551    -0.000005084261
      17        0.000001593667     0.000000613195     0.000000460089
      18       -0.000003849213    -0.000001030222     0.000000735449
      19       -0.000000333022     0.000001953585    -0.000002368810
      20        0.000002494212    -0.000002120573     0.000001616446
      21       -0.000000198882    -0.000002457561    -0.000000548026

  **** Optimization is complete! (in 6 steps) ****
    Final optimized geometry and variables:
    Molecular point group: c1

    Geometry (in Angstrom), charge = 0, multiplicity = 1:

    H           -3.729940200412    -1.514594455815     0.941284712857
    O           -3.257809884193    -1.075642994965     0.258220050536
    C           -2.036355256723    -0.591913851589     0.748573807802
    C           -1.312652871987     0.124201873393    -0.374044462394
    H           -2.202477914415     0.095409885323     1.575303280473
    H           -1.424518341576    -1.410559065839     1.122320334208
    C            0.086829140087     0.614655782562     0.030172690312
    H           -1.925283978985     0.949016710393    -0.718574255149
    H           -1.237111377059    -0.557006849825    -1.215254371284
    C            1.206225862329    -0.335902447357    -0.396569793430
    H            0.260798061633     1.588686736850    -0.410564226012
    H            0.129393833707     0.763848027601     1.106843610838
    C            2.600358884298     0.046500185368     0.102354472363
    H            1.218180527495    -0.399362691563    -1.481767169459
    H            0.976198103970    -1.336231674153    -0.039312119975
    C            3.142465302127     1.357601754379    -0.462090216935
    H            3.287881543639    -0.753366594580    -0.155175709528
    H            2.590815134878     0.098769304942     1.188037964240
    H            3.153403554971     1.339245657220    -1.547246640354
    H            2.549070676594     2.209209658698    -0.151998421621
    H            4.158455280234     1.529667195120    -0.125553910652

  Mulliken Charges: (a.u.)
   Center  Symbol    Alpha    Beta     Spin     Total
       1     H     0.39734  0.39734  0.00000  0.20533
       2     O     4.19437  4.19437  0.00000 -0.38874
       3     C     2.95974  2.95974  0.00000  0.08052
       4     C     3.09179  3.09179  0.00000 -0.18358
       5     H     0.47421  0.47421  0.00000  0.05159
       6     H     0.47505  0.47505  0.00000  0.04991
       7     C     3.11431  3.11431  0.00000 -0.22862
       8     H     0.44580  0.44580  0.00000  0.10841
       9     H     0.45183  0.45183  0.00000  0.09635
      10     C     3.09310  3.09310  0.00000 -0.18619
      11     H     0.44332  0.44332  0.00000  0.11336
      12     H     0.45608  0.45608  0.00000  0.08783
      13     C     3.09024  3.09024  0.00000 -0.18047
      14     H     0.45225  0.45225  0.00000  0.09550
      15     H     0.44931  0.44931  0.00000  0.10137
      16     C     3.15276  3.15276  0.00000 -0.30551
      17     H     0.44869  0.44869  0.00000  0.10261
      18     H     0.45516  0.45516  0.00000  0.08969
      19     H     0.45453  0.45453  0.00000  0.09094
      20     H     0.45365  0.45365  0.00000  0.09271
      21     H     0.44650  0.44650  0.00000  0.10700

   Total alpha = 29.00000, Total beta = 29.00000, Total charge = -0.00000

*** Psi4 exiting successfully. Buy a developer a beer!
