  ==> Input File <==

--------------------------------------------------------------------------
set {
	reference rhf
	basis 6-31G*
}

set_num_threads( 4 )
memory 2 gb

molecule MOL {
0 1

O	 0.621555	 1.345177	 0.112753
C	 0.486307	 0.169203	 0.000779
C	 1.608116	 -0.841643	 0.000302
O	 -0.692628	 -0.419810	 -0.143381
C	 2.990107	 -0.200498	 -0.000684
H	 1.468623	 -1.481519	 -0.865924
H	 1.469683	 -1.481289	 0.866878
H	 3.129736	 0.423364	 -0.875135
H	 3.757882	 -0.966877	 -0.001197
H	 3.130964	 0.423383	 0.873533
C	 -1.846694	 0.413970	 -0.161954
C	 -3.052794	 -0.484346	 -0.337061
H	 -1.755802	 1.123700	 -0.972884
H	 -1.894126	 0.971111	 0.763753
H	 -2.987517	 -1.039367	 -1.265958
H	 -3.958578	 0.112994	 -0.356778
H	 -3.126729	 -1.192803	 0.480177

	symmetry c1
}
set optking {
	frozen_dihedral = ("
		4 2 3 6
	")
}

ee = optimize('scf')
oeprop('DIPOLE', 'QUADRUPOLE', 'MULLIKEN_CHARGES')
f=open( 'psi4out.xyz', 'w' )
f.write( "17  " )
f.write( str(ee) + "\n" )
f.write( MOL.save_string_xyz() )
f.close()
--------------------------------------------------------------------------

    Molecular point group: c1
  Charge       = 0
  Multiplicity = 1
  Basis Set: 6-31G*
  Basis Set:
  @DF-RHF Final Energy:  -344.91192732272413
    Total Energy =                       -344.9119273227240683
    Molecular point group: c1
  Basis Set: 6-31G*
  Basis Set:
  Basis Set: 6-31G*
  Basis Set:
  @DF-RHF Final Energy:  -344.91189558125410
    Total Energy =                       -344.9118955812543277
  Basis Set: 6-31G*
  Basis Set:
  Basis Set: 6-31G*
  Basis Set:
  @DF-RHF Final Energy:  -344.91192798102787
    Total Energy =                       -344.9119279810277021
  Basis Set: 6-31G*
  Basis Set:
  Basis Set: 6-31G*
  Basis Set:
  @DF-RHF Final Energy:  -344.91194422551837
    Total Energy =                       -344.9119442255185390
  Basis Set: 6-31G*
  Basis Set:
  Charge       = 0
  Multiplicity = 1
  Basis Set: 6-31G*
  Basis Set:

    Orbital Energies (a.u.)
    -----------------------

    Doubly Occupied:

       1A    -20.600957     2A    -20.544204     3A    -11.371294
       4A    -11.284793     5A    -11.237530     6A    -11.222332
       7A    -11.215884     8A     -1.467557     9A     -1.361869
      10A     -1.069993    11A     -1.031819    12A     -0.910749
      13A     -0.847408    14A     -0.772832    15A     -0.695441
      16A     -0.689659    17A     -0.664378    18A     -0.629638
      19A     -0.582256    20A     -0.572347    21A     -0.558388
      22A     -0.523529    23A     -0.519465    24A     -0.514376
      25A     -0.504617    26A     -0.492473    27A     -0.452616
      28A     -0.436040

  @DF-RHF Final Energy:  -344.91194405903866

   => Energetics <=

    Nuclear Repulsion Energy =            314.6835546065624385
    One-Electron Energy =               -1093.6421110035480524
    Two-Electron Energy =                 434.0466123379471810
    DFT Exchange-Correlation Energy =       0.0000000000000000
    Empirical Dispersion Energy =           0.0000000000000000
    PCM Polarization Energy =               0.0000000000000000
    EFP Energy =                            0.0000000000000000
    Total Energy =                       -344.9119440590384329
    Molecular point group: c1
  Basis Set: 6-31G*
  Basis Set:

  -Total Gradient:
     Atom            X                  Y                   Z
    ------   -----------------  -----------------  -----------------
       1        0.000001166504    -0.000001896283    -0.000027972112
       2       -0.000067599646    -0.000071596598     0.000412126852
       3        0.000238365136     0.000271547403    -0.000237646988
       4        0.000030375332     0.000021852715    -0.000342406522
       5       -0.000004739389    -0.000002717500    -0.000049374047
       6       -0.000189890664    -0.000194412710     0.000174934888
       7       -0.000000774173    -0.000016102820    -0.000003202007
       8        0.000005017560     0.000003147488     0.000005245694
       9       -0.000000890477    -0.000000896079    -0.000000114502
      10       -0.000007084545    -0.000003973577     0.000003647240
      11       -0.000013998572    -0.000021101051     0.000210390077
      12        0.000004133175     0.000006096054    -0.000060967638
      13        0.000025856243     0.000006097567    -0.000038494685
      14       -0.000020629217     0.000003106199    -0.000041147904
      15       -0.000015303365    -0.000013333065    -0.000002018489
      16        0.000000405583     0.000000479050    -0.000005960594
      17        0.000015590512     0.000013703203     0.000002960737

  **** Optimization is complete! (in 5 steps) ****
    Final optimized geometry and variables:
    Molecular point group: c1

    Geometry (in Angstrom), charge = 0, multiplicity = 1:

    O            0.619133224548     1.342234476535     0.179792765732
    C            0.483669090274     0.166183391304     0.068698275152
    C            1.605241592098    -0.844935854454     0.074884280478
    O           -0.695687573626    -0.422997747436    -0.071019890104
    C            2.987513593010    -0.204382331376     0.084051173423
    H            1.470601127103    -1.493557962340    -0.784665302258
    H            1.460573639137    -1.476466719193     0.947300167479
    H            3.138468318524     0.410559812814    -0.795233253651
    H            3.754883022198    -0.970982529164     0.099599736646
    H            3.117377296069     0.428055790420     0.953401643412
    C           -1.850489348573     0.409893121889    -0.076282048722
    C           -3.056656323992    -0.487806217993    -0.254176574769
    H           -1.763827599194     1.127039815973    -0.881081952082
    H           -1.894173189399     0.958575053781     0.854638497110
    H           -2.995111290113    -1.034388470586    -1.188352773117
    H           -3.962993872522     0.108938591187    -0.264495462719
    H           -3.126395701355    -1.203694756789     0.556902630925

  Mulliken Charges: (a.u.)
   Center  Symbol    Alpha    Beta     Spin     Total
       1     O     4.28643  4.28643  0.00000 -0.57286
       2     C     2.60553  2.60553  0.00000  0.78893
       3     C     3.20516  3.20516  0.00000 -0.41033
       4     O     4.31321  4.31321  0.00000 -0.62642
       5     C     3.23894  3.23894  0.00000 -0.47788
       6     H     0.40090  0.40090  0.00000  0.19819
       7     H     0.40062  0.40062  0.00000  0.19877
       8     H     0.41135  0.41135  0.00000  0.17729
       9     H     0.41814  0.41814  0.00000  0.16372
      10     H     0.40848  0.40848  0.00000  0.18305
      11     C     3.00216  3.00216  0.00000 -0.00432
      12     C     3.24843  3.24843  0.00000 -0.49686
      13     H     0.41006  0.41006  0.00000  0.17988
      14     H     0.41052  0.41052  0.00000  0.17895
      15     H     0.41186  0.41186  0.00000  0.17628
      16     H     0.41630  0.41630  0.00000  0.16740
      17     H     0.41190  0.41190  0.00000  0.17620

   Total alpha = 28.00000, Total beta = 28.00000, Total charge = -0.00000
