  ==> Input File <==

--------------------------------------------------------------------------
set {
	reference rhf
	basis 6-31G*
}

set_num_threads( 4 )
memory 2 gb

molecule MOL {
0 1

H	 -3.161837	 0.500524	 -0.000234
C	 -2.367097	 -0.232926	 -0.000000
O	 -1.158440	 0.455814	 -0.000122
H	 -2.468853	 -0.861886	 -0.882833
H	 -2.468942	 -0.861421	 0.883154
C	 -0.172373	 -0.114773	 0.806088
C	 1.085818	 0.730923	 0.714344
H	 0.033212	 -1.135809	 0.481868
H	 -0.517459	 -0.169230	 1.839460
C	 2.225122	 0.178222	 1.569558
H	 1.389932	 0.783736	 -0.326514
H	 0.843192	 1.743550	 1.021621
H	 2.500182	 -0.826826	 1.261916
H	 3.109504	 0.800850	 1.485605
H	 1.949304	 0.139121	 2.619701

	symmetry c1
}
set optking {
	frozen_dihedral = ("
		6 3 2 4
	")
}

ee = optimize('scf')
oeprop('DIPOLE', 'QUADRUPOLE', 'MULLIKEN_CHARGES')
f=open( 'psi4out.xyz', 'w' )
f.write( "15  " )
f.write( str(ee) + "\n" )
f.write( MOL.save_string_xyz() )
f.close()
--------------------------------------------------------------------------

    Molecular point group: c1
  Charge       = 0
  Multiplicity = 1
  Basis Set: 6-31G*
  Basis Set:
  @DF-RHF Final Energy:  -232.13633852894122
    Total Energy =                       -232.1363385289411667
    Molecular point group: c1
  Basis Set: 6-31G*
  Basis Set:
  Basis Set: 6-31G*
  Basis Set:
  @DF-RHF Final Energy:  -232.13651692308261
    Total Energy =                       -232.1365169230824677
  Basis Set: 6-31G*
  Basis Set:
  Basis Set: 6-31G*
  Basis Set:
  @DF-RHF Final Energy:  -232.13656044904127
    Total Energy =                       -232.1365604490412125
  Basis Set: 6-31G*
  Basis Set:
  Charge       = 0
  Multiplicity = 1
  Basis Set: 6-31G*
  Basis Set:

    Orbital Energies (a.u.)
    -----------------------

    Doubly Occupied:

       1A    -20.550513     2A    -11.266624     3A    -11.263488
       4A    -11.213832     5A    -11.212728     6A     -1.374278
       7A     -1.056952     8A     -0.955393     9A     -0.877221
      10A     -0.808783    11A     -0.671796    12A     -0.652171
      13A     -0.629849    14A     -0.607315    15A     -0.564435
      16A     -0.544632    17A     -0.502118    18A     -0.488656
      19A     -0.478649    20A     -0.460630    21A     -0.409222

  @DF-RHF Final Energy:  -232.13656079397373

   => Energetics <=

    Nuclear Repulsion Energy =            189.4579457467579005
    One-Electron Energy =                -690.0104422074263084
    Two-Electron Energy =                 268.4159356666947360
    DFT Exchange-Correlation Energy =       0.0000000000000000
    Empirical Dispersion Energy =           0.0000000000000000
    PCM Polarization Energy =               0.0000000000000000
    EFP Energy =                            0.0000000000000000
    Total Energy =                       -232.1365607939736719
    Molecular point group: c1
  Basis Set: 6-31G*
  Basis Set:

  -Total Gradient:
     Atom            X                  Y                   Z
    ------   -----------------  -----------------  -----------------
       1       -0.000012686322    -0.000003221645     0.000000308684
       2        0.001196016243    -0.002154848726     0.002463028865
       3        0.000584926337    -0.001208447913    -0.002853952665
       4       -0.001150613403     0.002132731625    -0.001346915907
       5        0.000001082220    -0.000001913640     0.000006375240
       6       -0.000653488882     0.001233510371     0.001691399773
       7       -0.000004361112    -0.000013254822     0.000016898429
       8       -0.000006035422     0.000006973073     0.000011854212
       9       -0.000008856256     0.000006941305    -0.000022388132
      10        0.000041937989     0.000021646318     0.000016036542
      11       -0.000015832134    -0.000010456035     0.000009854259
      12        0.000005313251    -0.000003240335    -0.000003009218
      13       -0.000000174531     0.000004360165    -0.000001692750
      14        0.000021432128    -0.000007402078     0.000015758247
      15        0.000001339894    -0.000003377664    -0.000003555578

  **** Optimization is complete! (in 4 steps) ****
    Final optimized geometry and variables:
    Molecular point group: c1

    Geometry (in Angstrom), charge = 0, multiplicity = 1:

    H           -3.065583096972     0.321788995809    -0.637672655190
    C           -2.272786822076    -0.416574341832    -0.618981185382
    O           -1.049440142472     0.254786513950    -0.605401806738
    H           -2.366158313926    -1.031422237613    -1.510316893113
    H           -2.405694679042    -1.040999498653     0.259758794282
    C           -0.056270923165    -0.314974310607     0.194747595392
    C            1.195338554046     0.539587144586     0.097207091363
    H            0.157867128981    -1.333718288901    -0.130469907132
    H           -0.395684387703    -0.370924711365     1.229092232699
    C            2.341157623404    -0.002181303940     0.950990770569
    H            1.496252608031     0.592236746652    -0.944556568117
    H            0.945364674074     1.551054398555     0.402442434840
    H            2.623108314819    -1.005877551169     0.645167103309
    H            3.220743137006     0.626758389571     0.863309374250
    H            2.068398677282    -0.040917913096     2.001976395605

  Mulliken Charges: (a.u.)
   Center  Symbol    Alpha    Beta     Spin     Total
       1     H     0.41667  0.41667  0.00000  0.16667
       2     C     3.07670  3.07670  0.00000 -0.15340
       3     O     4.30945  4.30945  0.00000 -0.61889
       4     H     0.42507  0.42507  0.00000  0.14987
       5     H     0.43028  0.43028  0.00000  0.13944
       6     C     2.98142  2.98142  0.00000  0.03716
       7     C     3.15996  3.15996  0.00000 -0.31993
       8     H     0.43357  0.43357  0.00000  0.13285
       9     H     0.43289  0.43289  0.00000  0.13421
      10     C     3.24793  3.24793  0.00000 -0.49585
      11     H     0.41436  0.41436  0.00000  0.17128
      12     H     0.41438  0.41438  0.00000  0.17124
      13     H     0.42090  0.42090  0.00000  0.15820
      14     H     0.41543  0.41543  0.00000  0.16913
      15     H     0.42099  0.42099  0.00000  0.15801

   Total alpha = 21.00000, Total beta = 21.00000, Total charge = -0.00000
