  ==> Input File <==

--------------------------------------------------------------------------
set {
	reference rhf
	basis cc-pvtz
}

set_num_threads( 4 )
memory 2 gb

molecule MOL {
0 1

H	 0.873961	 3.061909	 -2.006470
O	 1.574654	 2.666436	 -1.519283
C	 1.139575	 1.625168	 -0.787814
C	 2.074736	 0.948465	 -0.017964
C	 -0.178894	 1.222706	 -0.783227
H	 3.094659	 1.277985	 -0.036128
C	 1.687380	 -0.124942	 0.750868
H	 -0.921062	 1.726154	 -1.367201
C	 -0.532034	 0.141680	 0.000000
H	 2.417017	 -0.641853	 1.342629
C	 0.368857	 -0.548019	 0.772006
N	 -1.937041	 -0.281114	 0.000000
H	 0.053693	 -1.379381	 1.363808
O	 -2.159542	 -1.446261	 0.000000
O	 -2.764978	 0.565773	 0.000000

	symmetry c1
}
set optking {
	frozen_dihedral = ("
		11 9 12 14
	")
}

ee = optimize('scf')
oeprop('DIPOLE', 'QUADRUPOLE', 'MULLIKEN_CHARGES')
f=open( 'psi4out.xyz', 'w' )
f.write( "15  " )
f.write( str(ee) + "\n" )
f.write( MOL.save_string_xyz() )
f.close()
--------------------------------------------------------------------------

    Molecular point group: c1
  Charge       = 0
  Multiplicity = 1
  Basis Set: CC-PVTZ
  Basis Set:
  @DF-RHF Final Energy:  -509.21594969853800
    Total Energy =                       -509.2159496985382248
    Molecular point group: c1
  Basis Set: CC-PVTZ
  Basis Set:
  Basis Set: CC-PVTZ
  Basis Set:
  @DF-RHF Final Energy:  -509.20921313252813
    Total Energy =                       -509.2092131325276796
  Basis Set: CC-PVTZ
  Basis Set:
  Basis Set: CC-PVTZ
  Basis Set:
  @DF-RHF Final Energy:  -509.21607137960893
    Total Energy =                       -509.2160713796092750
  Basis Set: CC-PVTZ
  Basis Set:
  Basis Set: CC-PVTZ
  Basis Set:
  @DF-RHF Final Energy:  -509.21630103125784
    Total Energy =                       -509.2163010312576716
  Basis Set: CC-PVTZ
  Basis Set:
  Charge       = 0
  Multiplicity = 1
  Basis Set: CC-PVTZ
  Basis Set:

    Orbital Energies (a.u.)
    -----------------------

    Doubly Occupied:

       1A    -20.609407     2A    -20.597159     3A    -20.596588
       4A    -15.850241     5A    -11.329086     6A    -11.310830
       7A    -11.264172     8A    -11.263652     9A    -11.258867
      10A    -11.254512    11A     -1.645156    12A     -1.442153
      13A     -1.428122    14A     -1.203776    15A     -1.096450
      16A     -1.049143    17A     -0.967017    18A     -0.884000
      19A     -0.832589    20A     -0.794344    21A     -0.762624
      22A     -0.740994    23A     -0.725745    24A     -0.711824
      25A     -0.675466    26A     -0.636325    27A     -0.622631
      28A     -0.597811    29A     -0.563277    30A     -0.548486
      31A     -0.528258    32A     -0.494894    33A     -0.491867
      34A     -0.459369    35A     -0.378573    36A     -0.346528

  @DF-RHF Final Energy:  -509.21630144297711

   => Energetics <=

    Nuclear Repulsion Energy =            504.5971329514774766
    One-Electron Energy =               -1695.7029914423364971
    Two-Electron Energy =                 681.8895570478819081
    DFT Exchange-Correlation Energy =       0.0000000000000000
    Empirical Dispersion Energy =           0.0000000000000000
    PCM Polarization Energy =               0.0000000000000000
    EFP Energy =                            0.0000000000000000
    Total Energy =                       -509.2163014429770556
    Molecular point group: c1
  Basis Set: CC-PVTZ
  Basis Set:

  -Total Gradient:
     Atom            X                  Y                   Z
    ------   -----------------  -----------------  -----------------
       1        0.000001615625    -0.000006152043    -0.000014025874
       2       -0.000006799988     0.000025984162     0.000004150688
       3       -0.000009744768    -0.000021681736     0.000033856875
       4        0.000006350057    -0.000015962993    -0.000043214176
       5       -0.000011378419    -0.000024912762     0.000005082477
       6       -0.000002895817     0.000002333396     0.000009277325
       7       -0.000011291672    -0.000004739376     0.000012137555
       8       -0.000005134051     0.000007345270    -0.000004444967
       9        0.000867223909    -0.003547860130    -0.005780570792
      10       -0.000001572689    -0.000004400144    -0.000000948832
      11       -0.000635609465     0.002443760121     0.002905541508
      12       -0.000362625782     0.001465230183     0.007207258452
      13        0.000009201072     0.000001786871    -0.000008649281
      14       -0.000004299909    -0.000298309176    -0.004347125154
      15        0.000166961903    -0.000022421645     0.000021674194

  **** Optimization is complete! (in 5 steps) ****
    Final optimized geometry and variables:
    Molecular point group: c1

    Geometry (in Angstrom), charge = 0, multiplicity = 1:

    H            1.015138297455     2.574430663733    -1.818016771923
    O            1.716893881486     2.173399367888    -1.337007759709
    C            1.282584114475     1.133379103748    -0.604791397400
    C            2.217160005686     0.460436866471     0.169566442074
    C           -0.037595275880     0.733236711811    -0.595539318740
    H            3.235367617405     0.795033860278     0.156295126695
    C            1.830629829019    -0.611519338606     0.940751223719
    H           -0.786701225462     1.252287058512    -1.158829346325
    C           -0.379812585333    -0.362675265494     0.167870679967
    H            2.558277795738    -1.117837478044     1.544108947863
    C            0.515472421745    -1.046771808979     0.948205854621
    N           -1.786231793270    -0.766580627080     0.194792296404
    H            0.201140905401    -1.886934025505     1.530428725970
    O           -2.017199526102    -1.928190361492     0.227228378100
    O           -2.600644284938     0.094387493709     0.153448744463

  Mulliken Charges: (a.u.)
   Center  Symbol    Alpha    Beta     Spin     Total
       1     H     0.38437  0.38437  0.00000  0.23125
       2     O     4.16777  4.16777  0.00000 -0.33554
       3     C     2.84424  2.84424  0.00000  0.31151
       4     C     3.10031  3.10031  0.00000 -0.20062
       5     C     3.13940  3.13940  0.00000 -0.27880
       6     H     0.41354  0.41354  0.00000  0.17292
       7     C     3.05469  3.05469  0.00000 -0.10938
       8     H     0.41439  0.41439  0.00000  0.17121
       9     C     2.94448  2.94448  0.00000  0.11103
      10     H     0.41615  0.41615  0.00000  0.16771
      11     C     3.10454  3.10454  0.00000 -0.20909
      12     N     3.26926  3.26926  0.00000  0.46148
      13     H     0.40593  0.40593  0.00000  0.18813
      14     O     4.16882  4.16882  0.00000 -0.33764
      15     O     4.17209  4.17209  0.00000 -0.34418

   Total alpha = 36.00000, Total beta = 36.00000, Total charge =  0.00000
