  ==> Input File <==

--------------------------------------------------------------------------
set {
	reference rhf
	basis 6-31G*
}

set_num_threads( 1 )
memory 2 gb

molecule MOL {
0 1

H	 3.089270	 -1.380733	 0.000000
O	 2.178328	 -1.639175	 0.000000
C	 1.368216	 -0.558384	 0.000000
C	 0.040020	 -0.623917	 -0.401128
C	 1.905653	 0.646048	 0.419448
H	 -0.376268	 -1.562222	 -0.727198
C	 -0.749153	 0.513859	 -0.382590
H	 2.931426	 0.698049	 0.729545
C	 1.108751	 1.780405	 0.434989
H	 -1.775608	 0.450784	 -0.695302
C	 -0.220318	 1.721748	 0.035108
C	 1.679800	 3.077607	 0.884478
H	 -0.831499	 2.606752	 0.050305
O	 2.802707	 3.231262	 1.245055
H	 0.981674	 3.919919	 0.865034

	symmetry c1
}
set optking {
	frozen_dihedral = ("
		11 9 12 14
	")
}

ee = energy('scf')
oeprop('DIPOLE', 'QUADRUPOLE', 'MULLIKEN_CHARGES')
f=open( 'psi4out.xyz', 'w' )
f.write( "15  " )
f.write( str(ee) + "\n" )
f.write( MOL.save_string_xyz() )
f.close()
--------------------------------------------------------------------------

    Molecular point group: c1

    Geometry (in Angstrom), charge = 0, multiplicity = 1:

       Center              X                  Y                   Z               Mass
    ------------   -----------------  -----------------  -----------------  -----------------
           H          1.898503560704    -2.273277604069    -0.262399030299     1.007825032070
           O          0.987561560704    -2.531719604069    -0.262399030299    15.994914619560
           C          0.177449560704    -1.450928604069    -0.262399030299    12.000000000000
           C         -1.150746439296    -1.516461604069    -0.663527030299    12.000000000000
           C          0.714886560704    -0.246496604069     0.157048969701    12.000000000000
           H         -1.567034439296    -2.454766604069    -0.989597030299     1.007825032070
           C         -1.939919439296    -0.378685604069    -0.644989030299    12.000000000000
           H          1.740659560704    -0.194495604069     0.467145969701     1.007825032070
           C         -0.082015439296     0.887860395931     0.172589969701    12.000000000000
           H         -2.966374439296    -0.441760604069    -0.957701030299     1.007825032070
           C         -1.411084439296     0.829203395931    -0.227291030299    12.000000000000
           C          0.489033560704     2.185062395931     0.622078969701    12.000000000000
           H         -2.022265439296     1.714207395931    -0.212094030299     1.007825032070
           O          1.611940560704     2.338717395931     0.982655969701    15.994914619560
           H         -0.209092439296     3.027374395931     0.602634969701     1.007825032070

  Charge       = 0
  Multiplicity = 1
  Basis Set: 6-31G*
  Basis Set:

    Orbital Energies (a.u.)
    -----------------------

    Doubly Occupied:

       1A    -20.598226     2A    -20.567276     3A    -11.335297
       4A    -11.312661     5A    -11.253676     6A    -11.252555
       7A    -11.247859     8A    -11.247493     9A    -11.243767
      10A     -1.419663    11A     -1.408221    12A     -1.170314
      13A     -1.049916    14A     -1.026337    15A     -0.900813
      16A     -0.853012    17A     -0.797907    18A     -0.753721
      19A     -0.703123    20A     -0.670099    21A     -0.660069
      22A     -0.630763    23A     -0.615763    24A     -0.604677
      25A     -0.568941    26A     -0.552889    27A     -0.532922
      28A     -0.518512    29A     -0.486758    30A     -0.425639
      31A     -0.354082    32A     -0.328081

  @DF-RHF Final Energy:  -418.28488883614295

   => Energetics <=

    Nuclear Repulsion Energy =            403.4948113894167818
    One-Electron Energy =               -1369.3773732458794257
    Two-Electron Energy =                 547.5976730203218494
    DFT Exchange-Correlation Energy =       0.0000000000000000
    Empirical Dispersion Energy =           0.0000000000000000
    PCM Polarization Energy =               0.0000000000000000
    EFP Energy =                            0.0000000000000000
    Total Energy =                       -418.2848888361407944

  Mulliken Charges: (a.u.)
   Center  Symbol    Alpha    Beta     Spin     Total
       1     H     0.26734  0.26734  0.00000  0.46532
       2     O     4.38110  4.38110  0.00000 -0.76220
       3     C     2.78677  2.78677  0.00000  0.42647
       4     C     3.11619  3.11619  0.00000 -0.23237
       5     C     3.13766  3.13766  0.00000 -0.27533
       6     H     0.38668  0.38668  0.00000  0.22663
       7     C     3.09589  3.09589  0.00000 -0.19179
       8     H     0.38174  0.38174  0.00000  0.23651
       9     C     3.04683  3.04683  0.00000 -0.09367
      10     H     0.39183  0.39183  0.00000  0.21634
      11     C     3.11440  3.11440  0.00000 -0.22880
      12     C     2.83221  2.83221  0.00000  0.33558
      13     H     0.39284  0.39284  0.00000  0.21432
      14     O     4.24748  4.24748  0.00000 -0.49497
      15     H     0.42103  0.42103  0.00000  0.15795

   Total alpha = 32.00000, Total beta = 32.00000, Total charge = -0.00000
