                              Psi4 1.0.54 Driver

  ==> Input File <==

--------------------------------------------------------------------------
set {
	reference rhf
	basis cc-pvtz
}

set_num_threads( 4 )
memory 2 gb

molecule MOL {
0 1

H	 -3.436473	 1.252944	 -1.023892
O	 -3.458596	 0.315260	 -0.960865
C	 -3.176635	 -0.080824	 0.355601
C	 -1.763371	 0.265266	 0.799691
H	 -3.321825	 -1.153438	 0.379502
H	 -3.895468	 0.357385	 1.043382
C	 -0.935355	 0.971709	 -0.269725
H	 -1.815707	 0.885516	 1.693232
H	 -1.268649	 -0.655677	 1.098861
C	 0.468140	 1.341013	 0.203334
H	 -1.457252	 1.865448	 -0.593404
H	 -0.863270	 0.328123	 -1.143285
C	 1.293304	 2.043202	 -0.873274
H	 0.388412	 1.974535	 1.081504
H	 0.990056	 0.441278	 0.522613
C	 2.735084	 2.361823	 -0.473777
H	 0.791967	 2.962843	 -1.166142
H	 1.313026	 1.415014	 -1.759621
C	 2.874907	 3.393714	 0.642822
H	 3.261295	 2.726127	 -1.350795
H	 3.236977	 1.443477	 -0.180238
H	 2.376965	 4.321558	 0.379694
H	 3.918645	 3.621204	 0.827488
H	 2.449204	 3.043073	 1.575256

	symmetry c1
}
set optking {
	frozen_dihedral = ("
		7 4 3 2
	")
}

ee,wfn = optimize('scf', return_wfn=True)
oeprop( wfn, 'DIPOLE', 'QUADRUPOLE', 'MULLIKEN_CHARGES')
f=open( 'psi4out.xyz', 'w' )
f.write( "24  " )
f.write( str(ee) + "\n" )
f.write( MOL.save_string_xyz() )
f.close()
--------------------------------------------------------------------------

    Molecular point group: c1
  Charge       = 0
  Multiplicity = 1
  Basis Set: CC-PVTZ
  Basis Set:
  @DF-RHF Final Energy:  -349.37017487509252
    Total Energy =                       -349.3701748750922889
    Molecular point group: c1
  Basis Set: CC-PVTZ
  Basis Set:
  Basis Set: CC-PVTZ
  Basis Set:
  @DF-RHF Final Energy:  -349.37073374615323
    Total Energy =                       -349.3707337461534053
  Basis Set: CC-PVTZ
  Basis Set:
  Basis Set: CC-PVTZ
  Basis Set:
  @DF-RHF Final Energy:  -349.37173909222844
    Total Energy =                       -349.3717390922279264
  Basis Set: CC-PVTZ
  Basis Set:
  Basis Set: CC-PVTZ
  Basis Set:
  @DF-RHF Final Energy:  -349.37181342856564
    Total Energy =                       -349.3718134285654742
  Basis Set: CC-PVTZ
  Basis Set:
  Basis Set: CC-PVTZ
  Basis Set:
  @DF-RHF Final Energy:  -349.37181746974409
    Total Energy =                       -349.3718174697441441
  Basis Set: CC-PVTZ
  Basis Set:
  Charge       = 0
  Multiplicity = 1
  Basis Set: CC-PVTZ
  Basis Set:

    Orbital Energies (a.u.)
    -----------------------

    Doubly Occupied:

       1A    -20.545697     2A    -11.265806     3A    -11.213724
       4A    -11.212733     5A    -11.212349     6A    -11.210868
       7A    -11.210250     8A    -11.205926     9A     -1.363363
      10A     -1.089832    11A     -1.046884    12A     -0.984879
      13A     -0.918813    14A     -0.853498    15A     -0.794491
      16A     -0.777795    17A     -0.691873    18A     -0.649380
      19A     -0.626629    20A     -0.612901    21A     -0.602970
      22A     -0.587989    23A     -0.557894    24A     -0.544083
      25A     -0.516800    26A     -0.511688    27A     -0.496292
      28A     -0.480418    29A     -0.462241    30A     -0.457594
      31A     -0.453487    32A     -0.449240    33A     -0.423264

  @DF-RHF Final Energy:  -349.37181787026367

   => Energetics <=

    Nuclear Repulsion Energy =            385.5612484972088509
    One-Electron Energy =               -1237.8028465150662214
    Two-Electron Energy =                 502.8697801475940992
    DFT Exchange-Correlation Energy =       0.0000000000000000
    Empirical Dispersion Energy =           0.0000000000000000
    PCM Polarization Energy =               0.0000000000000000
    EFP Energy =                            0.0000000000000000
    Total Energy =                       -349.3718178702632144
    Molecular point group: c1
  Basis Set: CC-PVTZ
  Basis Set:

  -Total Gradient:
     Atom            X                  Y                   Z
    ------   -----------------  -----------------  -----------------
       1        0.000002225869    -0.000017654527    -0.000019612518
       2        0.000151088761    -0.000310238702    -0.000180915049
       3       -0.000182531888     0.000654349392     0.000248884383
       4        0.000152630722    -0.000656621949    -0.000155416856
       5        0.000020728232     0.000007636222     0.000032200454
       6        0.000046738023    -0.000014762147     0.000007858984
       7       -0.000182220385     0.000389881113     0.000082879493
       8       -0.000000554254    -0.000011318270     0.000005223044
       9       -0.000029017618    -0.000006232051    -0.000001513414
      10        0.000023065829    -0.000038313431    -0.000007534963
      11       -0.000000308121    -0.000025771048    -0.000004050983
      12        0.000015267483     0.000017808695     0.000009103888
      13        0.000002114658     0.000048102215    -0.000001034604
      14       -0.000037296839    -0.000031213794    -0.000052271496
      15        0.000000025251    -0.000002630532     0.000017638276
      16        0.000002106419    -0.000046147934     0.000026080325
      17        0.000000494553    -0.000004940640     0.000010229785
      18        0.000012368297     0.000024629831     0.000000921673
      19       -0.000008593669     0.000023942306     0.000000532771
      20       -0.000011846476    -0.000022218600     0.000003179596
      21       -0.000011852533     0.000006477991     0.000004239471
      22        0.000000265550    -0.000003503662     0.000013930933
      23       -0.000005512287     0.000005932933    -0.000013330041
      24        0.000040614420     0.000012806590    -0.000027223156

  **** Optimization is complete! (in 6 steps) ****
    Final optimized geometry and variables:
    Molecular point group: c1

    Geometry (in Angstrom), charge = 0, multiplicity = 1:

    H           -3.334959307756    -0.129624682006    -1.028051281976
    O           -3.251454742172    -1.054947007336    -0.891910903115
    C           -2.933906049883    -1.325037908605     0.447881245801
    C           -1.503617626282    -0.922744293538     0.881502485527
    H           -3.060147540515    -2.392560382984     0.556935669617
    H           -3.661949566506    -0.854115651198     1.101327762473
    C           -0.638358368539    -0.289073358477    -0.206654548326
    H           -1.566243052029    -0.235088266332     1.719539918330
    H           -0.993832641848    -1.803510846993     1.257914958264
    C            0.771163021659     0.032675420193     0.284345108083
    H           -1.102348352185     0.627169086554    -0.562968408197
    H           -0.584214396953    -0.952032169093    -1.062237683134
    C            1.641699669018     0.679681892430    -0.791287936772
    H            0.705684458347     0.683800708301     1.150567341559
    H            1.248559821707    -0.882925989463     0.626177431188
    C            3.091551521556     0.936972171625    -0.376924198814
    H            1.188556682828     1.617785900288    -1.104340160322
    H            1.643333821801     0.037978130456    -1.667942753195
    C            3.265594706349     1.980210233835     0.724238541699
    H            3.645821355207     1.260778082062    -1.252508427162
    H            3.545308094323     0.001131636877    -0.061449876495
    H            2.813091584131     2.925092655084     0.440349266223
    H            4.316441266419     2.163648164044     0.917217078416
    H            2.814508230768     1.664845118698     1.657267433971

  Mulliken Charges: (a.u.)
   Center  Symbol    Alpha    Beta     Spin     Total
       1     H     0.39337  0.39337  0.00000  0.21327
       2     O     4.20108  4.20108  0.00000 -0.40217
       3     C     2.97318  2.97318  0.00000  0.05363
       4     C     3.11861  3.11861  0.00000 -0.23722
       5     H     0.45417  0.45417  0.00000  0.09167
       6     H     0.46401  0.46401  0.00000  0.07198
       7     C     3.08437  3.08437  0.00000 -0.16873
       8     H     0.45266  0.45266  0.00000  0.09469
       9     H     0.45204  0.45204  0.00000  0.09592
      10     C     3.09306  3.09306  0.00000 -0.18611
      11     H     0.46289  0.46289  0.00000  0.07423
      12     H     0.44182  0.44182  0.00000  0.11636
      13     C     3.09442  3.09442  0.00000 -0.18884
      14     H     0.45398  0.45398  0.00000  0.09204
      15     H     0.45437  0.45437  0.00000  0.09127
      16     C     3.09055  3.09055  0.00000 -0.18110
      17     H     0.45504  0.45504  0.00000  0.08993
      18     H     0.44899  0.44899  0.00000  0.10203
      19     C     3.15252  3.15252  0.00000 -0.30504
      20     H     0.44854  0.44854  0.00000  0.10292
      21     H     0.45474  0.45474  0.00000  0.09051
      22     H     0.45532  0.45532  0.00000  0.08936
      23     H     0.44643  0.44643  0.00000  0.10714
      24     H     0.45387  0.45387  0.00000  0.09227

   Total alpha = 33.00000, Total beta = 33.00000, Total charge = -0.00000

*** Psi4 exiting successfully. Buy a developer a beer!
