  ==> Input File <==

--------------------------------------------------------------------------
set {
	reference rhf
	basis cc-pvtz
}

set_num_threads( 4 )
memory 2 gb

molecule MOL {
0 1

H	 -2.644180	 -0.653737	 1.272255
C	 -2.092774	 -0.380414	 0.391915
O	 -0.808934	 -0.154049	 0.752536
F	 -2.163230	 -1.351640	 -0.507133
F	 -2.627232	 0.691260	 -0.169301
C	 0.085006	 0.250800	 -0.215074
C	 1.370439	 -0.548013	 -0.012993
Cl	 0.421658	 1.987697	 -0.091007
H	 -0.272219	 0.063284	 -1.212508
F	 1.171228	 -1.531827	 0.826917
F	 2.287004	 0.239830	 0.497425
F	 1.829239	 -1.038628	 -1.131497

	symmetry c1
}
set optking {
	frozen_dihedral = ("
		10 7 6 9
	")
}

ee = optimize('scf')
oeprop('DIPOLE', 'QUADRUPOLE', 'MULLIKEN_CHARGES')
f=open( 'psi4out.xyz', 'w' )
f.write( "12  " )
f.write( str(ee) + "\n" )
f.write( MOL.save_string_xyz() )
f.close()
--------------------------------------------------------------------------

    Molecular point group: c1
  Charge       = 0
  Multiplicity = 1
  Basis Set: CC-PVTZ
  Basis Set:
  @DF-RHF Final Energy: -1146.60799232057616
    Total Energy =                      -1146.6079923205766136
    Molecular point group: c1
  Basis Set: CC-PVTZ
  Basis Set:
  Basis Set: CC-PVTZ
  Basis Set:
  @DF-RHF Final Energy: -1146.60895925453178
    Total Energy =                      -1146.6089592545304185
  Basis Set: CC-PVTZ
  Basis Set:
  Basis Set: CC-PVTZ
  Basis Set:
  @DF-RHF Final Energy: -1146.61152525272769
    Total Energy =                      -1146.6115252527274606
  Basis Set: CC-PVTZ
  Basis Set:
  Basis Set: CC-PVTZ
  Basis Set:
  @DF-RHF Final Energy: -1146.61171954212750
    Total Energy =                      -1146.6117195421270480
  Basis Set: CC-PVTZ
  Basis Set:
  @DF-RHF Final Energy: -1146.61174308904197
    Total Energy =                      -1146.6117430890412834
  @DF-RHF Final Energy: -1146.61175299831302
    Total Energy =                      -1146.6117529983143868
  Basis Set: CC-PVTZ
  Basis Set:
  @DF-RHF Final Energy: -1146.61176466308052
    Total Energy =                      -1146.6117646630802938
  Basis Set: CC-PVTZ
  Basis Set:
  Basis Set: CC-PVTZ
  Basis Set:
  @DF-RHF Final Energy: -1146.61177240053212
    Total Energy =                      -1146.6117724005323453
  Basis Set: CC-PVTZ
  Basis Set:
  Basis Set: CC-PVTZ
  Basis Set:
  @DF-RHF Final Energy: -1146.61177465951050
    Total Energy =                      -1146.6117746595105018
  Basis Set: CC-PVTZ
  Basis Set:
  Charge       = 0
  Multiplicity = 1
  Basis Set: CC-PVTZ
  Basis Set:

    Orbital Energies (a.u.)
    -----------------------

    Doubly Occupied:

       1A   -104.854943     2A    -26.354913     3A    -26.353172
       4A    -26.351777     5A    -26.343807     6A    -26.343544
       7A    -20.639988     8A    -11.522489     9A    -11.484253
      10A    -11.402274    11A    -10.580545    12A     -8.047318
      13A     -8.045353    14A     -8.045258    15A     -1.768453
      16A     -1.725043    17A     -1.662391    18A     -1.660573
      19A     -1.645165    20A     -1.487477    21A     -1.174919
      22A     -1.048103    23A     -0.991785    24A     -0.924249
      25A     -0.862676    26A     -0.859214    27A     -0.851134
      28A     -0.831854    29A     -0.820238    30A     -0.795859
      31A     -0.734233    32A     -0.732234    33A     -0.711013
      34A     -0.708737    35A     -0.684085    36A     -0.681199
      37A     -0.665524    38A     -0.662607    39A     -0.650326
      40A     -0.634858    41A     -0.598643    42A     -0.578973
      43A     -0.523579    44A     -0.476842    45A     -0.468050

  @DF-RHF Final Energy: -1146.61177507039974

   => Energetics <=

    Nuclear Repulsion Energy =            735.7982074885418342
    One-Electron Energy =               -3054.8406277423264328
    Two-Electron Energy =                1172.4306451833840583
    DFT Exchange-Correlation Energy =       0.0000000000000000
    Empirical Dispersion Energy =           0.0000000000000000
    PCM Polarization Energy =               0.0000000000000000
    EFP Energy =                            0.0000000000000000
    Total Energy =                      -1146.6117750704006539
    Molecular point group: c1
  Basis Set: CC-PVTZ
  Basis Set:

  -Total Gradient:
     Atom            X                  Y                   Z
    ------   -----------------  -----------------  -----------------
       1        0.000005143149     0.000005339102    -0.000000591166
       2        0.000010256453     0.000013969530    -0.000066377783
       3        0.000041014449    -0.000005922683     0.000032863515
       4       -0.000019827292    -0.000023052523     0.000010512383
       5        0.000003722451     0.000017677551     0.000020485572
       6       -0.002611410234    -0.003448965334     0.002491249107
       7       -0.000794375962    -0.001974002836    -0.004014859794
       8       -0.000022929235    -0.000016918571    -0.000000966063
       9        0.002399828852     0.003368196553    -0.001353334057
      10        0.000993784266     0.002083109423     0.002840687177
      11        0.000013110574     0.000001533173     0.000038944547
      12       -0.000018317460    -0.000020963370     0.000001386559

  **** Optimization is complete! (in 10 steps) ****
    Final optimized geometry and variables:
    Molecular point group: c1

    Geometry (in Angstrom), charge = 0, multiplicity = 1:

    H           -2.685693242922    -0.611836601047     1.247582226690
    C           -2.097894033124    -0.387095495405     0.377165830078
    O           -0.851700708509    -0.056905743483     0.782821789584
    F           -2.064211609688    -1.437418502831    -0.431714591452
    F           -2.654015895659     0.598057364333    -0.308995646561
    C            0.069821270344     0.301672583501    -0.173898152718
    C            1.363252998139    -0.546018959518    -0.007448784722
    CL           0.417774114185     2.039693904970    -0.065744552371
    H           -0.282514136387     0.149119834868    -1.177102930643
    F            1.157511083790    -1.557657269644     0.792947966472
    F            2.374213047971     0.128703202309     0.466943104542
    F            1.711972246732    -1.014692973262    -1.184658530341

  Mulliken Charges: (a.u.)
   Center  Symbol    Alpha    Beta     Spin     Total
       1     H     0.45140  0.45140  0.00000  0.09720
       2     C     2.73813  2.73813  0.00000  0.52374
       3     O     4.14986  4.14986  0.00000 -0.29973
       4     F     4.61857  4.61857  0.00000 -0.23713
       5     F     4.61572  4.61572  0.00000 -0.23143
       6     C     2.96140  2.96140  0.00000  0.07719
       7     C     2.66179  2.66179  0.00000  0.67641
       8    CL     8.57004  8.57004  0.00000 -0.14008
       9     H     0.43198  0.43198  0.00000  0.13605
      10     F     4.59874  4.59874  0.00000 -0.19748
      11     F     4.59618  4.59618  0.00000 -0.19235
      12     F     4.60619  4.60619  0.00000 -0.21238

   Total alpha = 45.00000, Total beta = 45.00000, Total charge = -0.00000
