  ==> Input File <==

--------------------------------------------------------------------------
set {
	reference rhf
	basis cc-pvtz
}

set_num_threads( 4 )
memory 2 gb

molecule MOL {
0 1

H	 2.701421	 -0.939386	 -0.290211
N	 2.326826	 -0.066186	 0.000000
C	 0.934676	 -0.005420	 0.000000
H	 2.753208	 0.247058	 0.840892
C	 0.226436	 -0.001077	 -1.195129
C	 0.226436	 -0.001077	 1.195129
H	 0.759091	 -0.011439	 -2.128123
C	 -1.153391	 0.009141	 -1.189028
H	 0.759091	 -0.011439	 2.128123
C	 -1.153391	 0.009141	 1.189028
H	 -1.680905	 0.012964	 -2.124348
C	 -1.857876	 0.014675	 0.000000
H	 -1.680905	 0.012964	 2.124348
H	 -2.930222	 0.022904	 0.000000

	symmetry c1
}
set optking {
	frozen_dihedral = ("
		1 2 3 5
	")
}

ee = optimize('scf')
oeprop('DIPOLE', 'QUADRUPOLE', 'MULLIKEN_CHARGES')
f=open( 'psi4out.xyz', 'w' )
f.write( "14  " )
f.write( str(ee) + "\n" )
f.write( MOL.save_string_xyz() )
f.close()
--------------------------------------------------------------------------

    Molecular point group: c1
  Charge       = 0
  Multiplicity = 1
  Basis Set: CC-PVTZ
  Basis Set:
  @DF-RHF Final Energy:  -285.82899946675093
    Total Energy =                       -285.8289994667509291
    Molecular point group: c1
  Basis Set: CC-PVTZ
  Basis Set:
  Basis Set: CC-PVTZ
  Basis Set:
  @DF-RHF Final Energy:  -285.83050444474480
    Total Energy =                       -285.8305044447448608
  Basis Set: CC-PVTZ
  Basis Set:
  Basis Set: CC-PVTZ
  Basis Set:
  @DF-RHF Final Energy:  -285.83075278161664
    Total Energy =                       -285.8307527816167521
  Basis Set: CC-PVTZ
  Basis Set:
  Basis Set: CC-PVTZ
  Basis Set:
  @DF-RHF Final Energy:  -285.83076715312927
    Total Energy =                       -285.8307671531291021
  Basis Set: CC-PVTZ
  Basis Set:
  Charge       = 0
  Multiplicity = 1
  Basis Set: CC-PVTZ
  Basis Set:

    Orbital Energies (a.u.)
    -----------------------

    Doubly Occupied:

       1A    -15.551083     2A    -11.265885     3A    -11.228240
       4A    -11.227419     5A    -11.220511     6A    -11.217661
       7A    -11.217537     8A     -1.219639     9A     -1.131983
      10A     -1.015122    11A     -0.989576    12A     -0.832316
      13A     -0.812197    14A     -0.706772    15A     -0.677148
      16A     -0.651343    17A     -0.612820    18A     -0.594752
      19A     -0.584435    20A     -0.519124    21A     -0.505591
      22A     -0.491331    23A     -0.439160    24A     -0.336707
      25A     -0.308679

  @DF-RHF Final Energy:  -285.83076841400060

   => Energetics <=

    Nuclear Repulsion Energy =            273.3681599892523195
    One-Electron Energy =                -927.6837848936384034
    Two-Electron Energy =                 368.4848564903852548
    DFT Exchange-Correlation Energy =       0.0000000000000000
    Empirical Dispersion Energy =           0.0000000000000000
    PCM Polarization Energy =               0.0000000000000000
    EFP Energy =                            0.0000000000000000
    Total Energy =                       -285.8307684140008860
    Molecular point group: c1
  Basis Set: CC-PVTZ
  Basis Set:

  -Total Gradient:
     Atom            X                  Y                   Z
    ------   -----------------  -----------------  -----------------
       1        0.000152159489    -0.001392840698     0.003302345314
       2       -0.000214557597     0.003030952876    -0.004194540100
       3        0.000017708913    -0.004335293864     0.000485561533
       4        0.000052528712    -0.000004182214     0.000081222629
       5        0.000151242320     0.002725901643     0.000184674663
       6       -0.000186218223    -0.000012677354     0.000126877478
       7       -0.000001297700     0.000002572442    -0.000025663994
       8       -0.000175986412    -0.000060524681     0.000137804672
       9        0.000005690160     0.000020788195    -0.000002381838
      10        0.000205857281    -0.000045533920     0.000108074516
      11        0.000023143940     0.000013202379     0.000003112788
      12       -0.000005810375     0.000053864761    -0.000223077239
      13       -0.000019705095     0.000001273651    -0.000012040163
      14       -0.000004755412     0.000002496785     0.000028029742

  **** Optimization is complete! (in 5 steps) ****
    Final optimized geometry and variables:
    Molecular point group: c1

    Geometry (in Angstrom), charge = 0, multiplicity = 1:

    H            2.729068438072    -0.850070161784    -0.372707959338
    N            2.342553167794     0.002682252212    -0.027362086187
    C            0.929772817987    -0.024852654985     0.003048144800
    H            2.727093941006     0.165725586832     0.877338032048
    C            0.227433992180    -0.008632788180    -1.194142093640
    C            0.221659514208     0.005800963604     1.193498566289
    H            0.771907911322     0.003716163166    -2.119023388541
    C           -1.151780754375     0.001600571413    -1.194763897314
    H            0.751691222561     0.002038157713     2.128206752335
    C           -1.160863997559     0.039750564274     1.187122545441
    H           -1.678857121429     0.006454630687    -2.130109010393
    C           -1.856860151163     0.029878985571    -0.004446998443
    H           -1.692115025865     0.066331505937     2.119749426468
    H           -2.929388126246     0.050045470108    -0.007972894758

  Mulliken Charges: (a.u.)
   Center  Symbol    Alpha    Beta     Spin     Total
       1     H     0.42038  0.42038  0.00000  0.15923
       2     N     3.68472  3.68472  0.00000 -0.36944
       3     C     2.89017  2.89017  0.00000  0.21966
       4     H     0.42650  0.42650  0.00000  0.14699
       5     C     3.11164  3.11164  0.00000 -0.22328
       6     C     3.11490  3.11490  0.00000 -0.22981
       7     H     0.42395  0.42395  0.00000  0.15209
       8     C     3.06207  3.06207  0.00000 -0.12414
       9     H     0.43268  0.43268  0.00000  0.13463
      10     C     3.06571  3.06571  0.00000 -0.13143
      11     H     0.42392  0.42392  0.00000  0.15216
      12     C     3.09470  3.09470  0.00000 -0.18940
      13     H     0.42418  0.42418  0.00000  0.15163
      14     H     0.42445  0.42445  0.00000  0.15109

   Total alpha = 25.00000, Total beta = 25.00000, Total charge = -0.00000
