  ==> Input File <==

--------------------------------------------------------------------------
set {
	reference rhf
	basis 6-31G*
}

set_num_threads( 4 )
memory 2 gb

molecule MOL {
0 1

H	 -2.261324	 -1.055180	 -0.472179
O	 -2.347518	 -0.290803	 0.079804
C	 -1.184022	 0.487508	 -0.006784
C	 0.062599	 -0.378592	 0.031606
H	 -1.176523	 1.099369	 -0.904519
H	 -1.187323	 1.153111	 0.844927
O	 1.171513	 0.459272	 -0.058250
H	 0.050699	 -1.089204	 -0.797170
H	 0.078739	 -0.954914	 0.954740
C	 2.397842	 -0.198080	 -0.002151
H	 2.508049	 -0.905315	 -0.822092
H	 3.173794	 0.550865	 -0.078850
H	 2.517602	 -0.735921	 0.936026

	symmetry c1
}
set optking {
	frozen_dihedral = ("
		1 2 3 5
	")
}

ee = optimize('scf')
oeprop('DIPOLE', 'QUADRUPOLE', 'MULLIKEN_CHARGES')
f=open( 'psi4out.xyz', 'w' )
f.write( "13  " )
f.write( str(ee) + "\n" )
f.write( MOL.save_string_xyz() )
f.close()
--------------------------------------------------------------------------

    Molecular point group: c1
  Charge       = 0
  Multiplicity = 1
  Basis Set: 6-31G*
  Basis Set:
  @DF-RHF Final Energy:  -267.94905637957879
    Total Energy =                       -267.9490563795789058
    Molecular point group: c1
  Basis Set: 6-31G*
  Basis Set:
  Basis Set: 6-31G*
  Basis Set:
  @DF-RHF Final Energy:  -267.94912052378641
    Total Energy =                       -267.9491205237861777
  Basis Set: 6-31G*
  Basis Set:
  Charge       = 0
  Multiplicity = 1
  Basis Set: 6-31G*
  Basis Set:

    Orbital Energies (a.u.)
    -----------------------

    Doubly Occupied:

       1A    -20.566214     2A    -20.559252     3A    -11.277009
       4A    -11.272983     5A    -11.268554     6A     -1.392726
       7A     -1.364569     8A     -1.020880     9A     -0.915201
      10A     -0.848551    11A     -0.703002    12A     -0.678299
      13A     -0.668227    14A     -0.632307    15A     -0.598633
      16A     -0.578229    17A     -0.545818    18A     -0.495578
      19A     -0.475517    20A     -0.439958    21A     -0.425880

  @DF-RHF Final Energy:  -267.94913219790737

   => Energetics <=

    Nuclear Repulsion Energy =            190.3523818243252208
    One-Electron Energy =                -743.1482547533869365
    Two-Electron Energy =                 284.8467407311540001
    DFT Exchange-Correlation Energy =       0.0000000000000000
    Empirical Dispersion Energy =           0.0000000000000000
    PCM Polarization Energy =               0.0000000000000000
    EFP Energy =                            0.0000000000000000
    Total Energy =                       -267.9491321979077156
    Molecular point group: c1
  Basis Set: 6-31G*
  Basis Set:

  -Total Gradient:
     Atom            X                  Y                   Z
    ------   -----------------  -----------------  -----------------
       1        0.001173079746    -0.001620729166     0.002287618466
       2       -0.001820939345     0.002524410486    -0.002461724965
       3        0.002028138739    -0.002815689558    -0.001196746825
       4        0.000098009531    -0.000157362089    -0.000049265712
       5       -0.001238692326     0.001939562647     0.001414592947
       6       -0.000069961707     0.000019068306    -0.000012876525
       7        0.000026546743     0.000068385442     0.000043508822
       8       -0.000042865507    -0.000025930604    -0.000058149550
       9        0.000015723885     0.000082076933     0.000015792597
      10       -0.000159114825    -0.000011134738     0.000023476238
      11        0.000000817306    -0.000009275106    -0.000014190105
      12       -0.000026596621     0.000017485600    -0.000003152775
      13        0.000015854386    -0.000010868155     0.000011117387

  **** Optimization is complete! (in 3 steps) ****
    Final optimized geometry and variables:
    Molecular point group: c1

    Geometry (in Angstrom), charge = 0, multiplicity = 1:

    H           -2.293597209461    -1.041959974754    -0.482660602929
    O           -2.357916388730    -0.280210099314     0.076594579309
    C           -1.185323047158     0.484537213100    -0.013187606487
    C            0.063795764125    -0.376767656434     0.029406042816
    H           -1.185446099365     1.103431059293    -0.906001916196
    H           -1.186652210898     1.151761301915     0.837824390872
    O            1.169345800612     0.462912165121    -0.061276411464
    H            0.057446055026    -1.090019638339    -0.798731473367
    H            0.081486321091    -0.950135324748     0.954907576648
    C            2.397470183878    -0.192095414577    -0.005508978715
    H            2.508027265256    -0.898840885532    -0.825689452488
    H            3.170863458558     0.559148757683    -0.083267039243
    H            2.518916647104    -0.728946119741     0.932992399768

  Mulliken Charges: (a.u.)
   Center  Symbol    Alpha    Beta     Spin     Total
       1     H     0.28251  0.28251  0.00000  0.43499
       2     O     4.37305  4.37305  0.00000 -0.74609
       3     C     2.99345  2.99345  0.00000  0.01310
       4     C     3.00596  3.00596  0.00000 -0.01192
       5     H     0.42139  0.42139  0.00000  0.15723
       6     H     0.40973  0.40973  0.00000  0.18055
       7     O     4.30573  4.30573  0.00000 -0.61146
       8     H     0.43801  0.43801  0.00000  0.12399
       9     H     0.42352  0.42352  0.00000  0.15296
      10     C     3.08095  3.08095  0.00000 -0.16189
      11     H     0.42871  0.42871  0.00000  0.14257
      12     H     0.40960  0.40960  0.00000  0.18081
      13     H     0.42741  0.42741  0.00000  0.14518

   Total alpha = 21.00000, Total beta = 21.00000, Total charge = -0.00000
