  ==> Input File <==

--------------------------------------------------------------------------
set {
	reference rhf
	basis cc-pvtz
}

set_num_threads( 4 )
memory 2 gb

molecule MOL {
0 1

H	 3.161096	 -0.051866	 0.528681
N	 2.433987	 -0.362316	 -0.080024
C	 1.263552	 0.494993	 0.021953
H	 2.212269	 -1.300568	 0.180477
C	 -0.016533	 -0.325589	 -0.026925
H	 1.280915	 1.180773	 -0.818522
H	 1.263064	 1.106893	 0.925038
C	 -1.280353	 0.525521	 0.047747
H	 -0.016686	 -0.912532	 -0.939714
H	 -0.014099	 -1.037598	 0.796369
C	 -2.560681	 -0.301323	 -0.007747
H	 -1.279957	 1.241025	 -0.770189
H	 -1.270445	 1.110526	 0.963468
H	 -2.617064	 -0.872870	 -0.928010
H	 -3.439525	 0.331102	 0.043462
H	 -2.609427	 -1.002736	 0.818585

	symmetry c1
}
set optking {
	frozen_dihedral = ("
		1 2 3 6
	")
}

ee = optimize('scf')
oeprop('DIPOLE', 'QUADRUPOLE', 'MULLIKEN_CHARGES')
f=open( 'psi4out.xyz', 'w' )
f.write( "16  " )
f.write( str(ee) + "\n" )
f.write( MOL.save_string_xyz() )
f.close()
--------------------------------------------------------------------------

    Molecular point group: c1
  Charge       = 0
  Multiplicity = 1
  Basis Set: CC-PVTZ
  Basis Set:
  @DF-RHF Final Energy:  -212.39707332049119
    Total Energy =                       -212.3970733204913017
    Molecular point group: c1
  Basis Set: CC-PVTZ
  Basis Set:
  Basis Set: CC-PVTZ
  Basis Set:
  @DF-RHF Final Energy:  -212.39731954760987
    Total Energy =                       -212.3973195476099249
  Basis Set: CC-PVTZ
  Basis Set:
  Basis Set: CC-PVTZ
  Basis Set:
  @DF-RHF Final Energy:  -212.39735998635410
    Total Energy =                       -212.3973599863539903
  Basis Set: CC-PVTZ
  Basis Set:
  Basis Set: CC-PVTZ
  Basis Set:
  @DF-RHF Final Energy:  -212.39736121074108
    Total Energy =                       -212.3973612107409963
  Basis Set: CC-PVTZ
  Basis Set:
  Charge       = 0
  Multiplicity = 1
  Basis Set: CC-PVTZ
  Basis Set:

    Orbital Energies (a.u.)
    -----------------------

    Doubly Occupied:

       1A    -15.524847     2A    -11.237801     3A    -11.215690
       4A    -11.213447     5A    -11.208207     6A     -1.176760
       7A     -1.063335     8A     -0.961254     9A     -0.846520
      10A     -0.797430    11A     -0.657608    12A     -0.645694
      13A     -0.599884    14A     -0.580227    15A     -0.571458
      16A     -0.520198    17A     -0.511093    18A     -0.472638
      19A     -0.469857    20A     -0.462607    21A     -0.382481

  @DF-RHF Final Energy:  -212.39736134170352

   => Energetics <=

    Nuclear Repulsion Energy =            186.6559727975643455
    One-Electron Energy =                -655.8685959979580957
    Two-Electron Energy =                 256.8152618586901781
    DFT Exchange-Correlation Energy =       0.0000000000000000
    Empirical Dispersion Energy =           0.0000000000000000
    PCM Polarization Energy =               0.0000000000000000
    EFP Energy =                            0.0000000000000000
    Total Energy =                       -212.3973613417035722
    Molecular point group: c1
  Basis Set: CC-PVTZ
  Basis Set:

  -Total Gradient:
     Atom            X                  Y                   Z
    ------   -----------------  -----------------  -----------------
       1       -0.000975378005    -0.001730958552     0.002062672327
       2        0.000878725708     0.001772118797    -0.002913499599
       3        0.001485119076     0.001625772759     0.002293996762
       4       -0.000002207931     0.000000789461    -0.000009108525
       5        0.000007734001    -0.000002053116     0.000016100931
       6       -0.001377741071    -0.001676090088    -0.001426807013
       7       -0.000008032914     0.000005863804    -0.000004705128
       8       -0.000001040395     0.000005561509    -0.000022193261
       9       -0.000005206729     0.000002912801    -0.000000872657
      10        0.000005673736    -0.000001961463    -0.000005941012
      11       -0.000005377152    -0.000000961834     0.000013587079
      12        0.000004091762     0.000001999266     0.000000465373
      13       -0.000002716613    -0.000002064783    -0.000000334184
      14        0.000000297172     0.000002738453    -0.000002607191
      15       -0.000002751288    -0.000001494184     0.000002239547
      16       -0.000001189359    -0.000002172830    -0.000002993448

  **** Optimization is complete! (in 5 steps) ****
    Final optimized geometry and variables:
    Molecular point group: c1

    Geometry (in Angstrom), charge = 0, multiplicity = 1:

    H            3.189495880959    -0.049601410467     0.490400359936
    N            2.449486929499    -0.347031534051    -0.108047651717
    C            1.267875060851     0.498249251135     0.043925049975
    H            2.243243979544    -1.288503713418     0.151270696262
    C           -0.014771677144    -0.320760482503    -0.008196998257
    H            1.244230736400     1.214175673898    -0.771663845785
    H            1.290893791754     1.065348997228     0.971540396607
    C           -1.277922778296     0.533200707932     0.034503181887
    H           -0.010140906857    -0.917277945601    -0.916955908149
    H           -0.024956784054    -1.021866459264     0.824026673202
    C           -2.558832709252    -0.293216401762    -0.012401189640
    H           -1.268527510536     1.229243005180    -0.799275323985
    H           -1.273628686617     1.138238454037     0.937061182903
    H           -2.609689031180    -0.884046684528    -0.920808138439
    H           -3.436689211146     0.341739188828     0.018570360284
    H           -2.615158655728    -0.976451799349     0.828513039539

  Mulliken Charges: (a.u.)
   Center  Symbol    Alpha    Beta     Spin     Total
       1     H     0.43096  0.43096  0.00000  0.13808
       2     N     3.68883  3.68883  0.00000 -0.37765
       3     C     3.01727  3.01727  0.00000 -0.03455
       4     H     0.43201  0.43201  0.00000  0.13597
       5     C     3.08717  3.08717  0.00000 -0.17433
       6     H     0.46292  0.46292  0.00000  0.07417
       7     H     0.46635  0.46635  0.00000  0.06729
       8     C     3.08871  3.08871  0.00000 -0.17742
       9     H     0.45031  0.45031  0.00000  0.09938
      10     H     0.45977  0.45977  0.00000  0.08047
      11     C     3.14911  3.14911  0.00000 -0.29822
      12     H     0.45311  0.45311  0.00000  0.09377
      13     H     0.45539  0.45539  0.00000  0.08923
      14     H     0.45437  0.45437  0.00000  0.09126
      15     H     0.44831  0.44831  0.00000  0.10337
      16     H     0.45541  0.45541  0.00000  0.08918

   Total alpha = 21.00000, Total beta = 21.00000, Total charge =  0.00000
