  ==> Input File <==

--------------------------------------------------------------------------
set {
	reference rhf
	basis 6-31G*
}

set_num_threads( 4 )
memory 2 gb

molecule MOL {
0 1

O	 0.888359	 0.152864	 0.864761
C	 1.705091	 0.115954	 0.001797
C	 1.739592	 1.009887	 -1.213752
O	 2.721346	 -0.737485	 -0.000216
C	 0.591988	 2.014108	 -1.260541
H	 2.703019	 1.512366	 -1.219980
H	 1.736194	 0.366980	 -2.089753
C	 0.652062	 2.906745	 -2.500965
H	 0.615420	 2.625878	 -0.364228
H	 -0.352358	 1.479394	 -1.236039
C	 -0.491411	 3.920851	 -2.563569
H	 1.602795	 3.437476	 -2.521642
H	 0.630612	 2.287304	 -3.396350
C	 -0.431539	 4.811642	 -3.803794
H	 -0.469822	 4.542138	 -1.671001
H	 -1.441804	 3.392170	 -2.543881
H	 0.493633	 5.380279	 -3.834188
H	 -1.254767	 5.519100	 -3.819578
H	 -0.485617	 4.221070	 -4.714074
C	 4.024888	 -0.184556	 -0.001949
H	 4.179030	 0.422472	 -0.882452
H	 4.701782	 -1.024608	 -0.003642
H	 4.181981	 0.421185	 0.878906

	symmetry c1
}
set optking {
	frozen_dihedral = ("
		1 2 4 20
	")
}

ee = optimize('scf')
oeprop('DIPOLE', 'QUADRUPOLE', 'MULLIKEN_CHARGES')
f=open( 'psi4out.xyz', 'w' )
f.write( "23  " )
f.write( str(ee) + "\n" )
f.write( MOL.save_string_xyz() )
f.close()
--------------------------------------------------------------------------

    Molecular point group: c1
  Charge       = 0
  Multiplicity = 1
  Basis Set: 6-31G*
  Basis Set:
  @DF-RHF Final Energy:  -422.95077332364701
    Total Energy =                       -422.9507733236472404
    Molecular point group: c1
  Basis Set: 6-31G*
  Basis Set:
  Basis Set: 6-31G*
  Basis Set:
  @DF-RHF Final Energy:  -422.95070931431593
    Total Energy =                       -422.9507093143163274
  Basis Set: 6-31G*
  Basis Set:
  Basis Set: 6-31G*
  Basis Set:
  @DF-RHF Final Energy:  -422.95466939267465
    Total Energy =                       -422.9546693926746457
  Basis Set: 6-31G*
  Basis Set:
  Basis Set: 6-31G*
  Basis Set:
  @DF-RHF Final Energy:  -422.95555015000002
    Total Energy =                       -422.9555501500002492
  Basis Set: 6-31G*
  Basis Set:
  @DF-RHF Final Energy:  -422.95576437916617
    Total Energy =                       -422.9557643791661121
  @DF-RHF Final Energy:  -422.95580430882160
    Total Energy =                       -422.9558043088219392
  Basis Set: 6-31G*
  Basis Set:
  @DF-RHF Final Energy:  -422.95581020202803
    Total Energy =                       -422.9558102020278056
  Basis Set: 6-31G*
  Basis Set:
  Basis Set: 6-31G*
  Basis Set:
  @DF-RHF Final Energy:  -422.95581163123029
    Total Energy =                       -422.9558116312301763
  Basis Set: 6-31G*
  Basis Set:
  Basis Set: 6-31G*
  Basis Set:
  @DF-RHF Final Energy:  -422.95581325348701
    Total Energy =                       -422.9558132534872357
  Basis Set: 6-31G*
  Basis Set:
  Charge       = 0
  Multiplicity = 1
  Basis Set: 6-31G*
  Basis Set:

    Orbital Energies (a.u.)
    -----------------------

    Doubly Occupied:

       1A    -20.589095     2A    -20.552918     3A    -11.374648
       4A    -11.294539     5A    -11.242131     6A    -11.223228
       7A    -11.221239     8A    -11.218928     9A    -11.211783
      10A     -1.458987    11A     -1.367494    12A     -1.095602
      13A     -1.041423    14A     -0.981542    15A     -0.948527
      16A     -0.852612    17A     -0.798445    18A     -0.765505
      19A     -0.696963    20A     -0.680765    21A     -0.674376
      22A     -0.652543    23A     -0.618929    24A     -0.606569
      25A     -0.580296    26A     -0.569991    27A     -0.556433
      28A     -0.539545    29A     -0.511035    30A     -0.498794
      31A     -0.485884    32A     -0.478157    33A     -0.470799
      34A     -0.468348    35A     -0.449517    36A     -0.431572

  @DF-RHF Final Energy:  -422.95581366211292

   => Energetics <=

    Nuclear Repulsion Energy =            453.4629957723881830
    One-Electron Energy =               -1474.4192895974897510
    Two-Electron Energy =                 598.0004801629886515
    DFT Exchange-Correlation Energy =       0.0000000000000000
    Empirical Dispersion Energy =           0.0000000000000000
    PCM Polarization Energy =               0.0000000000000000
    EFP Energy =                            0.0000000000000000
    Total Energy =                       -422.9558136621128597
    Molecular point group: c1
  Basis Set: 6-31G*
  Basis Set:

  -Total Gradient:
     Atom            X                  Y                   Z
    ------   -----------------  -----------------  -----------------
       1        0.001862441554     0.001726513612     0.001409413607
       2       -0.002731508609    -0.002399408181    -0.000821377932
       3        0.000009679555    -0.000007902733    -0.000007182488
       4        0.000849561276     0.000657163404    -0.003009253059
       5        0.000003781833     0.000018321547     0.000011924354
       6       -0.000013373730    -0.000003008901     0.000007322170
       7       -0.000001692458    -0.000000730165     0.000001911863
       8       -0.000002077987     0.000001308520    -0.000005344303
       9        0.000009303019    -0.000003141039     0.000003196692
      10       -0.000004413802     0.000003289514    -0.000001970904
      11       -0.000012171990    -0.000015423265    -0.000008374146
      12       -0.000000062284     0.000004123552    -0.000000727941
      13        0.000002690417    -0.000002977519     0.000002550509
      14        0.000008216503     0.000003681056     0.000004838293
      15       -0.000000795717    -0.000004126188    -0.000000635269
      16       -0.000003997041    -0.000001434320    -0.000003086058
      17        0.000003179588    -0.000000368510    -0.000003592789
      18        0.000002432632     0.000001271739     0.000004613537
      19       -0.000003875638    -0.000000364125     0.000001876428
      20        0.000032090667     0.000032044654     0.002413536234
      21       -0.000003458132    -0.000004540685     0.000001268744
      22       -0.000002809041    -0.000002348540     0.000000736802
      23       -0.000003140615    -0.000001943420    -0.000001644349

  **** Optimization is complete! (in 10 steps) ****
    Final optimized geometry and variables:
    Molecular point group: c1

    Geometry (in Angstrom), charge = 0, multiplicity = 1:

    O           -0.305601493182    -1.246113440209     2.052213970884
    C            0.473913309432    -1.338482304162     1.169212490496
    C            0.500361222580    -0.427817266125    -0.039950097660
    O            1.396704812151    -2.323020940247     1.172909603035
    C           -0.712350289599     0.495340083732    -0.128383660470
    H            1.414908599775     0.160162603939    -0.003428615561
    H            0.583857938169    -1.055255271461    -0.923248271220
    C           -0.661461477560     1.404891817086    -1.356811520775
    H           -0.770485107379     1.094060881411     0.774402928447
    H           -1.616241972313    -0.105455413864    -0.151490122552
    C           -1.872803143046     2.332954722867    -1.463057381519
    H            0.247182466147     2.004861858307    -1.328221287068
    H           -0.596176109613     0.797099397942    -2.258035092444
    C           -1.820415262042     3.243853011715    -2.688914873852
    H           -1.939529296335     2.940739569606    -0.563554534575
    H           -2.781056114333     1.735505625842    -1.495283003376
    H           -0.939240671491     3.879037926277    -2.668662570590
    H           -2.691788098209     3.889401661443    -2.735959289584
    H           -1.788331932665     2.664446083621    -3.607346581599
    C            2.765016207502    -1.982696677938     1.169384028770
    H            3.074736833626    -1.568058293574     0.217195623679
    H            3.304126861273    -2.900231281125     1.345805150031
    H            2.990601099272    -1.280736610008     1.963971916441

  Mulliken Charges: (a.u.)
   Center  Symbol    Alpha    Beta     Spin     Total
       1     O     4.25274  4.25274  0.00000 -0.50547
       2     C     2.60928  2.60928  0.00000  0.78143
       3     C     3.22315  3.22315  0.00000 -0.44631
       4     O     4.31176  4.31176  0.00000 -0.62352
       5     C     3.15114  3.15114  0.00000 -0.30229
       6     H     0.40601  0.40601  0.00000  0.18797
       7     H     0.40082  0.40082  0.00000  0.19836
       8     C     3.15348  3.15348  0.00000 -0.30696
       9     H     0.40912  0.40912  0.00000  0.18176
      10     H     0.41109  0.41109  0.00000  0.17781
      11     C     3.15184  3.15184  0.00000 -0.30368
      12     H     0.42501  0.42501  0.00000  0.14998
      13     H     0.42379  0.42379  0.00000  0.15242
      14     C     3.23969  3.23969  0.00000 -0.47938
      15     H     0.42088  0.42088  0.00000  0.15824
      16     H     0.42063  0.42063  0.00000  0.15874
      17     H     0.42200  0.42200  0.00000  0.15600
      18     H     0.41790  0.41790  0.00000  0.16420
      19     H     0.42168  0.42168  0.00000  0.15664
      20     C     3.09346  3.09346  0.00000 -0.18692
      21     H     0.41953  0.41953  0.00000  0.16094
      22     H     0.40022  0.40022  0.00000  0.19957
      23     H     0.41478  0.41478  0.00000  0.17045

   Total alpha = 36.00000, Total beta = 36.00000, Total charge =  0.00000
