  ==> Input File <==

--------------------------------------------------------------------------
set {
	reference rhf
	basis 6-31G*
}

set_num_threads( 1 )
memory 2 gb

molecule MOL {
0 1

H	 -3.161837	 0.500524	 -0.000234
C	 -2.367097	 -0.232926	 -0.000000
O	 -1.158440	 0.455814	 -0.000122
H	 -2.468853	 -0.861886	 -0.882833
H	 -2.468942	 -0.861421	 0.883154
C	 -0.029776	 -0.365156	 0.000148
C	 1.212217	 0.508981	 0.000007
H	 -0.036772	 -1.013236	 -0.877259
H	 -0.036869	 -1.012778	 0.877897
C	 2.245383	 0.056253	 -1.030762
H	 0.911840	 1.533796	 -0.195414
H	 1.644182	 0.493603	 0.995933
H	 1.840195	 0.087639	 -2.038364
H	 3.120646	 0.696781	 -1.008787
H	 2.577289	 -0.960340	 -0.838977

	symmetry c1
}
set optking {
	frozen_dihedral = ("
		6 3 2 4,
		8 6 3 2
	")
}

ee = energy('scf')
oeprop('DIPOLE', 'QUADRUPOLE', 'MULLIKEN_CHARGES')
f=open( 'psi4out.xyz', 'w' )
f.write( "15  " )
f.write( str(ee) + "\n" )
f.write( MOL.save_string_xyz() )
f.close()
--------------------------------------------------------------------------

    Molecular point group: c1

    Geometry (in Angstrom), charge = 0, multiplicity = 1:

       Center              X                  Y                   Z               Mass
    ------------   -----------------  -----------------  -----------------  -----------------
           H         -3.109665407829     0.426431338256     0.208725057012     1.007825032070
           C         -2.314925407829    -0.307018661744     0.208959057012    12.000000000000
           O         -1.106268407829     0.381721338256     0.208837057012    15.994914619560
           H         -2.416681407829    -0.935978661744    -0.673873942988     1.007825032070
           H         -2.416770407829    -0.935513661744     1.092113057012     1.007825032070
           C          0.022395592171    -0.439248661744     0.209107057012    12.000000000000
           C          1.264388592171     0.434888338256     0.208966057012    12.000000000000
           H          0.015399592171    -1.087328661744    -0.668299942988     1.007825032070
           H          0.015302592171    -1.086870661744     1.086856057012     1.007825032070
           C          2.297554592171    -0.017839661744    -0.821802942988    12.000000000000
           H          0.964011592171     1.459703338256     0.013545057012     1.007825032070
           H          1.696353592171     0.419510338256     1.204892057012     1.007825032070
           H          1.892366592171     0.013546338256    -1.829404942988     1.007825032070
           H          3.172817592171     0.622688338256    -0.799827942988     1.007825032070
           H          2.629460592171    -1.034432661744    -0.630017942988     1.007825032070

  Charge       = 0
  Multiplicity = 1
  Basis Set: 6-31G*
  Basis Set:

    Orbital Energies (a.u.)
    -----------------------

    Doubly Occupied:

       1A    -20.553391     2A    -11.264980     3A    -11.263436
       4A    -11.212331     5A    -11.211120     6A     -1.378334
       7A     -1.056437     8A     -0.954126     9A     -0.878439
      10A     -0.808299    11A     -0.671917    12A     -0.657181
      13A     -0.631413    14A     -0.597726    15A     -0.570600
      16A     -0.544086    17A     -0.495192    18A     -0.488781
      19A     -0.478667    20A     -0.461945    21A     -0.411304

  @DF-RHF Final Energy:  -232.13379515872575

   => Energetics <=

    Nuclear Repulsion Energy =            190.3373514820932826
    One-Electron Energy =                -691.7627868045289006
    Two-Electron Energy =                 269.2916401637108379
    DFT Exchange-Correlation Energy =       0.0000000000000000
    Empirical Dispersion Energy =           0.0000000000000000
    PCM Polarization Energy =               0.0000000000000000
    EFP Energy =                            0.0000000000000000
    Total Energy =                       -232.1337951587248085

  Mulliken Charges: (a.u.)
   Center  Symbol    Alpha    Beta     Spin     Total
       1     H     0.41238  0.41238  0.00000  0.17524
       2     C     3.07974  3.07974  0.00000 -0.15949
       3     O     4.30484  4.30484  0.00000 -0.60968
       4     H     0.43048  0.43048  0.00000  0.13905
       5     H     0.43053  0.43053  0.00000  0.13894
       6     C     2.98643  2.98643  0.00000  0.02715
       7     C     3.16515  3.16515  0.00000 -0.33030
       8     H     0.43058  0.43058  0.00000  0.13885
       9     H     0.43136  0.43136  0.00000  0.13729
      10     C     3.24674  3.24674  0.00000 -0.49347
      11     H     0.40372  0.40372  0.00000  0.19255
      12     H     0.41907  0.41907  0.00000  0.16186
      13     H     0.41841  0.41841  0.00000  0.16319
      14     H     0.41803  0.41803  0.00000  0.16395
      15     H     0.42255  0.42255  0.00000  0.15489

   Total alpha = 21.00000, Total beta = 21.00000, Total charge = -0.00000
