                              Psi4 1.0.54 Driver

  ==> Input File <==

--------------------------------------------------------------------------
set {
	reference rhf
	basis cc-pvtz
}

set_num_threads( 4 )
memory 2 gb

molecule MOL {
0 1

H	 2.312618	 2.424073	 0.621252
N	 1.507166	 1.841056	 0.537849
C	 1.860978	 0.530248	 0.016256
H	 0.868395	 2.306827	 -0.072379
C	 0.644130	 -0.381765	 -0.031064
H	 2.604902	 0.099969	 0.678332
H	 2.313669	 0.576210	 -0.975164
C	 -0.678115	 0.376691	 0.025731
H	 0.693998	 -0.977147	 -0.936845
H	 0.693309	 -1.082142	 0.800523
C	 -1.900706	 -0.535531	 -0.022488
H	 -0.725296	 1.079516	 -0.802982
H	 -0.715474	 0.974884	 0.933278
C	 -3.220513	 0.226854	 0.028039
H	 -1.865036	 -1.134397	 -0.928236
H	 -1.857948	 -1.236381	 0.806820
H	 -3.309098	 0.911849	 -0.808725
H	 -4.066838	 -0.449485	 -0.008086
H	 -3.301685	 0.809374	 0.939860

	symmetry c1
}
set optking {
	frozen_dihedral = ("
		6 3 5 9
	")
}

ee,wfn = optimize('scf', return_wfn=True)
oeprop( wfn, 'DIPOLE', 'QUADRUPOLE', 'MULLIKEN_CHARGES')
f=open( 'psi4out.xyz', 'w' )
f.write( "19  " )
f.write( str(ee) + "\n" )
f.write( MOL.save_string_xyz() )
f.close()
--------------------------------------------------------------------------

    Molecular point group: c1
  Charge       = 0
  Multiplicity = 1
  Basis Set: CC-PVTZ
  Basis Set:
  @DF-RHF Final Energy:  -251.43745545270411
    Total Energy =                       -251.4374554527041710
    Molecular point group: c1
  Basis Set: CC-PVTZ
  Basis Set:
  Basis Set: CC-PVTZ
  Basis Set:
  @DF-RHF Final Energy:  -251.43777282932732
    Total Energy =                       -251.4377728293275140
  Basis Set: CC-PVTZ
  Basis Set:
  Basis Set: CC-PVTZ
  Basis Set:
  @DF-RHF Final Energy:  -251.44003424748635
    Total Energy =                       -251.4400342474862100
  Basis Set: CC-PVTZ
  Basis Set:
  Basis Set: CC-PVTZ
  Basis Set:
  @DF-RHF Final Energy:  -251.44024207122672
    Total Energy =                       -251.4402420712267485
  Basis Set: CC-PVTZ
  Basis Set:
  Basis Set: CC-PVTZ
  Basis Set:
  @DF-RHF Final Energy:  -251.44025723986479
    Total Energy =                       -251.4402572398649909
  Basis Set: CC-PVTZ
  Basis Set:
  Basis Set: CC-PVTZ
  Basis Set:
  @DF-RHF Final Energy:  -251.44025896955617
    Total Energy =                       -251.4402589695561687
  Basis Set: CC-PVTZ
  Basis Set:
  Charge       = 0
  Multiplicity = 1
  Basis Set: CC-PVTZ
  Basis Set:

    Orbital Energies (a.u.)
    -----------------------

    Doubly Occupied:

       1A    -15.525854     2A    -11.239271     3A    -11.209402
       4A    -11.208423     5A    -11.205697     6A    -11.203418
       7A     -1.176891     8A     -1.069300     9A     -0.994444
      10A     -0.906351    11A     -0.814326    12A     -0.776540
      13A     -0.666888    14A     -0.648732    15A     -0.613501
      16A     -0.584104    17A     -0.562808    18A     -0.550502
      19A     -0.525652    20A     -0.498799    21A     -0.483934
      22A     -0.462291    23A     -0.459167    24A     -0.444859
      25A     -0.380539

  @DF-RHF Final Energy:  -251.44026122547896

   => Energetics <=

    Nuclear Repulsion Energy =            250.1457812214785861
    One-Electron Energy =                -834.7487065550561738
    Two-Electron Energy =                 333.1626641080986246
    DFT Exchange-Correlation Energy =       0.0000000000000000
    Empirical Dispersion Energy =           0.0000000000000000
    PCM Polarization Energy =               0.0000000000000000
    EFP Energy =                            0.0000000000000000
    Total Energy =                       -251.4402612254789346
    Molecular point group: c1
  Basis Set: CC-PVTZ
  Basis Set:

  -Total Gradient:
     Atom            X                  Y                   Z
    ------   -----------------  -----------------  -----------------
       1        0.000007693151    -0.000007755953    -0.000007078890
       2       -0.000021629893    -0.000007765710     0.000024633723
       3        0.001664778143    -0.003092191583    -0.006291314122
       4       -0.000002176911    -0.000002515197    -0.000004338599
       5        0.003040865944    -0.004517114484     0.004575908911
       6       -0.001862067943     0.003310709937     0.004614353875
       7        0.000006226386    -0.000009810391    -0.000009701526
       8        0.000020992377    -0.000006511647     0.000002117780
       9       -0.002831677343     0.004325824212    -0.002915304493
      10        0.000004574572    -0.000007020738     0.000009092021
      11       -0.000022832860    -0.000004852574     0.000006390618
      12       -0.000002759802     0.000014466777    -0.000017500078
      13       -0.000004773430     0.000012462195     0.000015026174
      14        0.000013123509    -0.000002116386    -0.000001758992
      15        0.000001821620    -0.000002106230    -0.000010141828
      16       -0.000001287957    -0.000006095900     0.000010185271
      17       -0.000001012299     0.000007406160    -0.000012352754
      18       -0.000010384233    -0.000010942423    -0.000000512652
      19        0.000000526972     0.000005929936     0.000012295558

  **** Optimization is complete! (in 7 steps) ****
    Final optimized geometry and variables:
    Molecular point group: c1

    Geometry (in Angstrom), charge = 0, multiplicity = 1:

    H            2.906794458254     1.828730492304     0.468237506554
    N            2.012795138868     1.393887801764     0.384457180009
    C            2.155956060160     0.042250523209    -0.146098835512
    H            1.463592021659     1.969501793241    -0.217391207829
    C            0.849555827240    -0.777248225020    -0.084376592815
    H            2.889807705343    -0.434507875669     0.491715369677
    H            2.542905801611     0.035506277809    -1.163049517157
    C           -0.443887614908     0.039605324621    -0.060408128961
    H            0.803592563981    -1.404315056666    -0.969642268041
    H            0.864911686184    -1.429521845244     0.781387542255
    C           -1.689810119294    -0.842264301497    -0.053922417546
    H           -0.482772131848     0.691553898533    -0.931695157799
    H           -0.454841258192     0.684919975962     0.809223687697
    C           -2.988079302216    -0.042399754936    -0.027260325437
    H           -1.682990737039    -1.487435349080    -0.928468632293
    H           -1.656378237011    -1.501098064466     0.809629311794
    H           -3.069206739450     0.601645594304    -0.896876536534
    H           -3.852935719692    -0.696082634573    -0.019223582394
    H           -3.040953512985     0.587398706783     0.854500458142

  Mulliken Charges: (a.u.)
   Center  Symbol    Alpha    Beta     Spin     Total
       1     H     0.42945  0.42945  0.00000  0.14110
       2     N     3.69065  3.69065  0.00000 -0.38130
       3     C     3.03496  3.03496  0.00000 -0.06993
       4     H     0.42759  0.42759  0.00000  0.14483
       5     C     3.08494  3.08494  0.00000 -0.16989
       6     H     0.45599  0.45599  0.00000  0.08801
       7     H     0.46246  0.46246  0.00000  0.07509
       8     C     3.09416  3.09416  0.00000 -0.18833
       9     H     0.45599  0.45599  0.00000  0.08801
      10     H     0.45381  0.45381  0.00000  0.09239
      11     C     3.08512  3.08512  0.00000 -0.17023
      12     H     0.46044  0.46044  0.00000  0.07911
      13     H     0.44352  0.44352  0.00000  0.11297
      14     C     3.15008  3.15008  0.00000 -0.30017
      15     H     0.45623  0.45623  0.00000  0.08754
      16     H     0.45460  0.45460  0.00000  0.09079
      17     H     0.45641  0.45641  0.00000  0.08718
      18     H     0.44906  0.44906  0.00000  0.10188
      19     H     0.45454  0.45454  0.00000  0.09093

   Total alpha = 25.00000, Total beta = 25.00000, Total charge =  0.00000

*** Psi4 exiting successfully. Buy a developer a beer!
