                              Psi4 1.0.54 Driver

  ==> Input File <==

--------------------------------------------------------------------------
set {
	reference rhf
	basis cc-pvtz
}

set_num_threads( 4 )
memory 2 gb

molecule MOL {
0 1

H	 3.857891	 -0.902121	 -2.891884
C	 3.190815	 -1.233955	 -2.105116
C	 1.917612	 -0.395663	 -2.075570
H	 2.966534	 -2.280438	 -2.282906
H	 3.729717	 -1.167191	 -1.165890
C	 0.950954	 -0.827807	 -0.982962
H	 1.409674	 -0.455207	 -3.031718
H	 2.178479	 0.649783	 -1.928714
N	 -0.255748	 -0.029414	 -0.996147
H	 0.670150	 -1.864564	 -1.142499
H	 1.459079	 -0.791796	 -0.014667
C	 -1.215959	 -0.382435	 0.027143
H	 -0.020601	 0.938036	 -0.918259
C	 -2.451944	 0.502410	 -0.038737
H	 -1.507323	 -1.417026	 -0.127476
H	 -0.786241	 -0.330318	 1.031983
C	 -3.752217	 -0.292550	 0.005776
H	 -2.407325	 1.093801	 -0.946480
H	 -2.431979	 1.206234	 0.790023
H	 -3.817783	 -0.982946	 -0.828547
H	 -4.612613	 0.364348	 -0.042306
H	 -3.830160	 -0.871666	 0.919868

	symmetry c1
}
set optking {
	frozen_dihedral = ("
		15 12 14 18
	")
}

ee,wfn = optimize('scf', return_wfn=True)
oeprop( wfn, 'DIPOLE', 'QUADRUPOLE', 'MULLIKEN_CHARGES')
f=open( 'psi4out.xyz', 'w' )
f.write( "22  " )
f.write( str(ee) + "\n" )
f.write( MOL.save_string_xyz() )
f.close()
--------------------------------------------------------------------------

    Molecular point group: c1
  Charge       = 0
  Multiplicity = 1
  Basis Set: CC-PVTZ
  Basis Set:
  @DF-RHF Final Energy:  -290.48463077456324
    Total Energy =                       -290.4846307745633567
    Molecular point group: c1
  Basis Set: CC-PVTZ
  Basis Set:
  Basis Set: CC-PVTZ
  Basis Set:
  @DF-RHF Final Energy:  -290.48488735823236
    Total Energy =                       -290.4848873582327542
  Basis Set: CC-PVTZ
  Basis Set:
  Basis Set: CC-PVTZ
  Basis Set:
  @DF-RHF Final Energy:  -290.48496311806065
    Total Energy =                       -290.4849631180608185
  Basis Set: CC-PVTZ
  Basis Set:
  Charge       = 0
  Multiplicity = 1
  Basis Set: CC-PVTZ
  Basis Set:

    Orbital Energies (a.u.)
    -----------------------

    Doubly Occupied:

       1A    -15.529148     2A    -11.236164     3A    -11.236119
       4A    -11.211938     5A    -11.211514     6A    -11.207633
       7A    -11.206881     8A     -1.207300     9A     -1.058738
      10A     -1.026069    11A     -0.928205    12A     -0.869340
      13A     -0.812687    14A     -0.794677    15A     -0.664725
      16A     -0.630784    17A     -0.616184    18A     -0.610765
      19A     -0.574111    20A     -0.563286    21A     -0.537033
      22A     -0.527151    23A     -0.512348    24A     -0.487307
      25A     -0.478157    26A     -0.474593    27A     -0.464675
      28A     -0.451347    29A     -0.360805

  @DF-RHF Final Energy:  -290.48496404354046

   => Energetics <=

    Nuclear Repulsion Energy =            313.8390136405973863
    One-Electron Energy =               -1013.6685861911232678
    Two-Electron Energy =                 409.3446085069854803
    DFT Exchange-Correlation Energy =       0.0000000000000000
    Empirical Dispersion Energy =           0.0000000000000000
    PCM Polarization Energy =               0.0000000000000000
    EFP Energy =                            0.0000000000000000
    Total Energy =                       -290.4849640435404012
    Molecular point group: c1
  Basis Set: CC-PVTZ
  Basis Set:

  -Total Gradient:
     Atom            X                  Y                   Z
    ------   -----------------  -----------------  -----------------
       1        0.000012632653    -0.000007445887    -0.000001307441
       2        0.000020369729     0.000004765890    -0.000025915852
       3        0.000026836001    -0.000032114405     0.000002383182
       4       -0.000000010660     0.000003106714     0.000000947691
       5       -0.000004540077     0.000002159236    -0.000002752534
       6        0.000003098280     0.000031482321    -0.000000882615
       7        0.000004522292    -0.000000457381     0.000000434619
       8       -0.000002453409    -0.000004883635     0.000007279189
       9       -0.000010222034    -0.000028885257    -0.000021689964
      10        0.000011064441     0.000006650536    -0.000006597416
      11        0.000005937624    -0.000012830068     0.000002073025
      12        0.000753863245     0.000934839937    -0.003410997335
      13       -0.000003486432    -0.000002602269     0.000017922777
      14       -0.002015575954    -0.002709387270    -0.001078824495
      15       -0.000322763134    -0.000336892678     0.003048712699
      16        0.000009940095     0.000002063637    -0.000032974614
      17       -0.000058750118    -0.000011245739    -0.000004095853
      18        0.001547380313     0.002176587410     0.001515185965
      19       -0.000006703126    -0.000035899360    -0.000013656221
      20        0.000025056307     0.000001313057     0.000020000346
      21        0.000000257233    -0.000001048952    -0.000008272801
      22        0.000003546733     0.000020724166    -0.000006972352

  **** Optimization is complete! (in 4 steps) ****
    Final optimized geometry and variables:
    Molecular point group: c1

    Geometry (in Angstrom), charge = 0, multiplicity = 1:

    H            4.112667356482    -0.500836016939    -1.993004112310
    C            3.442860984653    -0.832589902681    -1.208496727266
    C            2.159110260921    -0.010079348156    -1.198956003940
    H            3.233136756346    -1.883633057459    -1.376877752352
    H            3.972532463750    -0.748963584664    -0.265382818630
    C            1.187662605912    -0.443610667238    -0.111044016734
    H            1.661054933075    -0.085407881335    -2.159141293408
    H            2.405562424393     1.039919998065    -1.059907649450
    N           -0.029338233839     0.338398952033    -0.143972557249
    H            0.921389947317    -1.485488274736    -0.262467250748
    H            1.685540937327    -0.391456956230     0.861772064478
    C           -0.993745854108    -0.022736156459     0.874208982756
    H            0.193101357222     1.309090312316    -0.065594325783
    C           -2.235347196823     0.881467743754     0.840190938134
    H           -1.286416015825    -1.055894532517     0.718819295085
    H           -0.553764510018     0.004306840019     1.874653540878
    C           -3.550690489038     0.114901552853     0.915231706145
    H           -2.203781561010     1.478924588361    -0.063824161762
    H           -2.190463932824     1.588134955060     1.663371844053
    H           -3.657782901702    -0.554086333776     0.068506286435
    H           -4.398735542203     0.789960976777     0.917331557280
    H           -3.603691986838    -0.483772979628     1.818885949519

  Mulliken Charges: (a.u.)
   Center  Symbol    Alpha    Beta     Spin     Total
       1     H     0.44769  0.44769  0.00000  0.10461
       2     C     3.15359  3.15359  0.00000 -0.30718
       3     C     3.08020  3.08020  0.00000 -0.16041
       4     H     0.45473  0.45473  0.00000  0.09055
       5     H     0.45614  0.45614  0.00000  0.08771
       6     C     3.02156  3.02156  0.00000 -0.04312
       7     H     0.44911  0.44911  0.00000  0.10177
       8     H     0.45973  0.45973  0.00000  0.08054
       9     N     3.63654  3.63654  0.00000 -0.27309
      10     H     0.45924  0.45924  0.00000  0.08153
      11     H     0.47415  0.47415  0.00000  0.05170
      12     C     3.02780  3.02780  0.00000 -0.05560
      13     H     0.44474  0.44474  0.00000  0.11052
      14     C     3.08729  3.08729  0.00000 -0.17457
      15     H     0.46018  0.46018  0.00000  0.07964
      16     H     0.47318  0.47318  0.00000  0.05363
      17     C     3.14996  3.14996  0.00000 -0.29991
      18     H     0.45264  0.45264  0.00000  0.09471
      19     H     0.45368  0.45368  0.00000  0.09264
      20     H     0.45252  0.45252  0.00000  0.09496
      21     H     0.44975  0.44975  0.00000  0.10050
      22     H     0.45557  0.45557  0.00000  0.08886

   Total alpha = 29.00000, Total beta = 29.00000, Total charge =  0.00000

*** Psi4 exiting successfully. Buy a developer a beer!
