                              Psi4 1.0.54 Driver

  ==> Input File <==

--------------------------------------------------------------------------
set {
	reference rhf
	basis cc-pvtz
}

set_num_threads( 4 )
memory 2 gb

molecule MOL {
0 1

H	 -1.780513	 -2.499775	 -2.119752
O	 -1.660595	 -2.098905	 -1.272025
C	 -0.573358	 -1.334216	 -1.317876
C	 -0.310616	 -0.658853	 0.000791
O	 0.080972	 -1.229263	 -2.297063
C	 0.926581	 0.227233	 0.000178
H	 -0.236245	 -1.440157	 0.750298
H	 -1.201589	 -0.092671	 0.252429
C	 2.220156	 -0.582071	 -0.000088
H	 0.899945	 0.878221	 -0.866390
H	 0.900542	 0.878581	 0.866486
C	 3.466689	 0.296012	 -0.000457
H	 2.239073	 -1.234095	 -0.869382
H	 2.239505	 -1.233985	 0.869270
H	 3.493549	 0.935857	 -0.875887
H	 4.368821	 -0.304526	 -0.001199
H	 3.494559	 0.935166	 0.875458

	symmetry c1
}
set optking {
	frozen_dihedral = ("
		7 4 6 10
	")
}

ee,wfn = optimize('scf', return_wfn=True)
oeprop( wfn, 'DIPOLE', 'QUADRUPOLE', 'MULLIKEN_CHARGES')
f=open( 'psi4out.xyz', 'w' )
f.write( "17  " )
f.write( str(ee) + "\n" )
f.write( MOL.save_string_xyz() )
f.close()
--------------------------------------------------------------------------

    Molecular point group: c1
  Charge       = 0
  Multiplicity = 1
  Basis Set: CC-PVTZ
  Basis Set:
  @DF-RHF Final Energy:  -345.04777153318099
    Total Energy =                       -345.0477715331807076
    Molecular point group: c1
  Basis Set: CC-PVTZ
  Basis Set:
  Basis Set: CC-PVTZ
  Basis Set:
  @DF-RHF Final Energy:  -345.04796065147332
    Total Energy =                       -345.0479606514734314
  Basis Set: CC-PVTZ
  Basis Set:
  Basis Set: CC-PVTZ
  Basis Set:
  @DF-RHF Final Energy:  -345.04660797348413
    Total Energy =                       -345.0466079734844698
  Basis Set: CC-PVTZ
  Basis Set:
  Basis Set: CC-PVTZ
  Basis Set:
  @DF-RHF Final Energy:  -345.04822298301525
    Total Energy =                       -345.0482229830153074
  Basis Set: CC-PVTZ
  Basis Set:
  Basis Set: CC-PVTZ
  Basis Set:
  @DF-RHF Final Energy:  -345.04825871478295
    Total Energy =                       -345.0482587147828326
  Basis Set: CC-PVTZ
  Basis Set:
  Basis Set: CC-PVTZ
  Basis Set:
  @DF-RHF Final Energy:  -345.04827425905893
    Total Energy =                       -345.0482742590588714
  Basis Set: CC-PVTZ
  Basis Set:
  Basis Set: CC-PVTZ
  Basis Set:
  @DF-RHF Final Energy:  -345.04827648481870
    Total Energy =                       -345.0482764848188708
  Basis Set: CC-PVTZ
  Basis Set:
  Charge       = 0
  Multiplicity = 1
  Basis Set: CC-PVTZ
  Basis Set:

    Orbital Energies (a.u.)
    -----------------------

    Doubly Occupied:

       1A    -20.605008     2A    -20.541313     3A    -11.374570
       4A    -11.239741     5A    -11.221464     6A    -11.215049
       7A    -11.207202     8A     -1.478627     9A     -1.369941
      10A     -1.090843    11A     -1.017024    12A     -0.913453
      13A     -0.828268    14A     -0.785779    15A     -0.706057
      16A     -0.696083    17A     -0.659221    18A     -0.629076
      19A     -0.589019    20A     -0.583914    21A     -0.580128
      22A     -0.530696    23A     -0.520039    24A     -0.489050
      25A     -0.479353    26A     -0.471413    27A     -0.467294
      28A     -0.445526

  @DF-RHF Final Energy:  -345.04827666106610

   => Energetics <=

    Nuclear Repulsion Energy =            310.8288669729463436
    One-Electron Energy =               -1086.2839785019593819
    Two-Electron Energy =                 430.4068348679470546
    DFT Exchange-Correlation Energy =       0.0000000000000000
    Empirical Dispersion Energy =           0.0000000000000000
    PCM Polarization Energy =               0.0000000000000000
    EFP Energy =                            0.0000000000000000
    Total Energy =                       -345.0482766610659837
    Molecular point group: c1
  Basis Set: CC-PVTZ
  Basis Set:

  -Total Gradient:
     Atom            X                  Y                   Z
    ------   -----------------  -----------------  -----------------
       1       -0.000001154083    -0.000000400205     0.000006588255
       2       -0.000031914045    -0.000025403025     0.000009039784
       3       -0.000011631804    -0.000020019249    -0.000003196162
       4       -0.000278068065     0.000418971836     0.000491975091
       5        0.000033596913     0.000028836073    -0.000033602705
       6       -0.000322400466     0.000435221627     0.000307621643
       7        0.000285606711    -0.000395039726    -0.000451021613
       8       -0.000011154965     0.000000933607     0.000002750259
       9        0.000018530969    -0.000003313756     0.000013690306
      10        0.000321374710    -0.000443964864    -0.000360586401
      11        0.000001388544    -0.000004911469     0.000012473812
      12       -0.000006367671    -0.000000561089    -0.000018299351
      13       -0.000005573454     0.000006440176     0.000008154897
      14        0.000000905783    -0.000005847937     0.000017701225
      15        0.000006437821     0.000012398017    -0.000002198068
      16       -0.000001483213    -0.000001095235    -0.000006654577
      17        0.000001906310    -0.000002244780     0.000005563603

  **** Optimization is complete! (in 8 steps) ****
    Final optimized geometry and variables:
    Molecular point group: c1

    Geometry (in Angstrom), charge = 0, multiplicity = 1:

    H           -2.294877351976    -1.787023603076    -1.374804627033
    O           -2.132466458550    -1.434452429676    -0.512738246472
    C           -1.161330746572    -0.530888574142    -0.604043601831
    C           -0.869513187220     0.109782290340     0.728100858624
    O           -0.634406661231    -0.277031232394    -1.632035315490
    C            0.373820138652     0.991777861466     0.738439459661
    H           -0.803723369792    -0.682363472951     1.465160892816
    H           -1.755314703601     0.683287002400     0.982344549718
    C            1.684155262923     0.207273196687     0.734248978983
    H            0.346941451228     1.651977157484    -0.120046707830
    H            0.337282040759     1.618751933070     1.623763249435
    C            2.910448273704     1.113317656678     0.736720949840
    H            1.715944283757    -0.436787760964    -0.137151946270
    H            1.714588689932    -0.442173978753     1.605658524171
    H            2.926628145311     1.748333575522    -0.142303870167
    H            3.825471115067     0.532636133605     0.741892524057
    H            2.922085253989     1.756912961638     1.610412678853

  Mulliken Charges: (a.u.)
   Center  Symbol    Alpha    Beta     Spin     Total
       1     H     0.38223  0.38223  0.00000  0.23554
       2     O     4.15942  4.15942  0.00000 -0.31884
       3     C     2.80332  2.80332  0.00000  0.39337
       4     C     3.11792  3.11792  0.00000 -0.23584
       5     O     4.19338  4.19338  0.00000 -0.38676
       6     C     3.09006  3.09006  0.00000 -0.18011
       7     H     0.43671  0.43671  0.00000  0.12658
       8     H     0.43072  0.43072  0.00000  0.13856
       9     C     3.08496  3.08496  0.00000 -0.16992
      10     H     0.44486  0.44486  0.00000  0.11029
      11     H     0.44628  0.44628  0.00000  0.10743
      12     C     3.15089  3.15089  0.00000 -0.30179
      13     H     0.44595  0.44595  0.00000  0.10810
      14     H     0.45679  0.45679  0.00000  0.08643
      15     H     0.45190  0.45190  0.00000  0.09621
      16     H     0.44803  0.44803  0.00000  0.10393
      17     H     0.45659  0.45659  0.00000  0.08683

   Total alpha = 28.00000, Total beta = 28.00000, Total charge = -0.00000

*** Psi4 exiting successfully. Buy a developer a beer!
