                              Psi4 1.0.54 Driver

  ==> Input File <==

--------------------------------------------------------------------------
set {
	reference rhf
	basis cc-pvtz
}

set_num_threads( 4 )
memory 2 gb

molecule MOL {
0 1

O	 -2.817697	 1.304178	 0.001046
C	 -2.664672	 0.129869	 0.003507
C	 -3.797908	 -0.860100	 -0.001145
O	 -1.481217	 -0.452708	 0.001092
H	 -4.408836	 -0.679689	 -0.875387
H	 -3.443486	 -1.878443	 -0.002770
H	 -4.412123	 -0.683688	 0.871605
C	 -0.332055	 0.384012	 -0.000250
C	 0.892252	 -0.506059	 -0.000295
H	 -0.360822	 1.020205	 -0.874146
H	 -0.359817	 1.021310	 0.872861
C	 2.188199	 0.299473	 -0.001416
H	 0.857046	 -1.152781	 -0.871031
H	 0.857910	 -1.151798	 0.871202
C	 3.437151	 -0.577593	 -0.000991
H	 2.209565	 0.950707	 -0.871712
H	 2.210062	 0.952234	 0.867721
C	 4.146262	 -0.607029	 1.348565
H	 4.125199	 -0.221042	 -0.762251
H	 3.164112	 -1.589371	 -0.287071
H	 4.462487	 0.387038	 1.646357
H	 5.027045	 -1.237581	 1.314916
H	 3.493831	 -0.991594	 2.125287

	symmetry c1
}
set optking {
	frozen_dihedral = ("
		19 15 12 16
	")
}

ee,wfn = optimize('scf', return_wfn=True)
oeprop( wfn, 'DIPOLE', 'QUADRUPOLE', 'MULLIKEN_CHARGES')
f=open( 'psi4out.xyz', 'w' )
f.write( "23  " )
f.write( str(ee) + "\n" )
f.write( MOL.save_string_xyz() )
f.close()
--------------------------------------------------------------------------

    Molecular point group: c1
  Charge       = 0
  Multiplicity = 1
  Basis Set: CC-PVTZ
  Basis Set:
  @DF-RHF Final Energy:  -423.12950933928533
    Total Energy =                       -423.1295093392851641
    Molecular point group: c1
  Basis Set: CC-PVTZ
  Basis Set:
  Basis Set: CC-PVTZ
  Basis Set:
  @DF-RHF Final Energy:  -423.12961719685825
    Total Energy =                       -423.1296171968582485
  Basis Set: CC-PVTZ
  Basis Set:
  Basis Set: CC-PVTZ
  Basis Set:
  @DF-RHF Final Energy:  -423.12973422124514
    Total Energy =                       -423.1297342212449166
  Basis Set: CC-PVTZ
  Basis Set:
  Basis Set: CC-PVTZ
  Basis Set:
  @DF-RHF Final Energy:  -423.12985492047767
    Total Energy =                       -423.1298549204774417
  Basis Set: CC-PVTZ
  Basis Set:
  Basis Set: CC-PVTZ
  Basis Set:
  @DF-RHF Final Energy:  -423.12987966658812
    Total Energy =                       -423.1298796665880673
  Basis Set: CC-PVTZ
  Basis Set:
  Basis Set: CC-PVTZ
  Basis Set:
  @DF-RHF Final Energy:  -423.12988141877526
    Total Energy =                       -423.1298814187753123
  Basis Set: CC-PVTZ
  Basis Set:
  Charge       = 0
  Multiplicity = 1
  Basis Set: CC-PVTZ
  Basis Set:

    Orbital Energies (a.u.)
    -----------------------

    Doubly Occupied:

       1A    -20.596018     2A    -20.529585     3A    -11.366462
       4A    -11.279345     5A    -11.230732     6A    -11.222860
       7A    -11.221110     8A    -11.219242     9A    -11.211673
      10A     -1.471222    11A     -1.364071    12A     -1.094010
      13A     -1.042127    14A     -1.003700    15A     -0.931448
      16A     -0.847264    17A     -0.800822    18A     -0.775568
      19A     -0.694015    20A     -0.688565    21A     -0.672606
      22A     -0.636092    23A     -0.615101    24A     -0.596209
      25A     -0.581791    26A     -0.571881    27A     -0.549570
      28A     -0.533191    29A     -0.530129    30A     -0.505938
      31A     -0.501303    32A     -0.474213    33A     -0.465958
      34A     -0.464085    35A     -0.455365    36A     -0.438876

  @DF-RHF Final Energy:  -423.12988146855639

   => Energetics <=

    Nuclear Repulsion Energy =            452.5803051335237797
    One-Electron Energy =               -1473.0560725382147211
    Two-Electron Energy =                 597.3458859361343229
    DFT Exchange-Correlation Energy =       0.0000000000000000
    Empirical Dispersion Energy =           0.0000000000000000
    PCM Polarization Energy =               0.0000000000000000
    EFP Energy =                            0.0000000000000000
    Total Energy =                       -423.1298814685566185
    Molecular point group: c1
  Basis Set: CC-PVTZ
  Basis Set:

  -Total Gradient:
     Atom            X                  Y                   Z
    ------   -----------------  -----------------  -----------------
       1       -0.000005157817     0.000010604177     0.000005518206
       2        0.000007084297    -0.000010710184     0.000000552820
       3       -0.000000375810     0.000002140219     0.000000260343
       4       -0.000003233475    -0.000003360820     0.000017413963
       5       -0.000003048600    -0.000001211949    -0.000004381508
       6        0.000001168135    -0.000002431291    -0.000000450780
       7       -0.000001642970     0.000001673370     0.000001413621
       8        0.000005868080    -0.000000854768    -0.000041046208
       9       -0.000005876621     0.000006989470    -0.000002511257
      10        0.000009697320     0.000000049664     0.000008101163
      11       -0.000007539398    -0.000000502838     0.000008679092
      12       -0.001870033757    -0.002915886249    -0.002311813801
      13       -0.000002900954     0.000000488027    -0.000001859931
      14        0.000002925722     0.000001250468    -0.000000036413
      15        0.001683679418     0.002669644593     0.002716073208
      16        0.001293430358     0.002000790754     0.001497524358
      17        0.000002823944     0.000005901852     0.000003524892
      18        0.000008362517     0.000001110350    -0.000002773963
      19       -0.001112373204    -0.001762090009    -0.001894890224
      20       -0.000001302435    -0.000003678900    -0.000002799178
      21       -0.000000705724     0.000001684779     0.000001887220
      22        0.000002086653     0.000001518635     0.000001937012
      23       -0.000002935689    -0.000003119350    -0.000000322637

  **** Optimization is complete! (in 7 steps) ****
    Final optimized geometry and variables:
    Molecular point group: c1

    Geometry (in Angstrom), charge = 0, multiplicity = 1:

    O           -2.754745657981     1.386440300917    -0.143846588832
    C           -2.595757202330     0.212984996843    -0.158198964817
    C           -3.724030048495    -0.782846352983    -0.164523367155
    O           -1.409267077500    -0.363179228638    -0.170284143575
    H           -4.342123789541    -0.596787114189    -1.032591858663
    H           -3.364416110468    -1.799307910564    -0.178936851099
    H           -4.332828903931    -0.618336104742     0.714408394666
    C           -0.264839858695     0.479588877448    -0.165886528522
    C            0.964098491425    -0.403519547789    -0.180715671357
    H           -0.299271143279     1.125786204269    -1.032401124292
    H           -0.292436193929     1.107004622436     0.714439724437
    C            2.256407799973     0.408214966637    -0.188949046458
    H            0.926463011596    -1.045881913682    -1.054377463219
    H            0.940915213563    -1.054555384125     0.687680979939
    C            3.526673016171    -0.461203722910    -0.130082420112
    H            2.284594840555     1.048073250866    -1.065027987641
    H            2.252618340248     1.087899930947     0.659272039015
    C            4.183134195950    -0.494018211424     1.246077763914
    H            4.241259662641    -0.119539268765    -0.870532361057
    H            3.276486588067    -1.476179695158    -0.424724152040
    H            4.514071068385     0.494977072691     1.544056933648
    H            5.046442128726    -1.149460052389     1.253884628471
    H            3.490785742644    -0.850974099088     2.001682870394

  Mulliken Charges: (a.u.)
   Center  Symbol    Alpha    Beta     Spin     Total
       1     O     4.20240  4.20240  0.00000 -0.40481
       2     C     2.81505  2.81505  0.00000  0.36990
       3     C     3.13994  3.13994  0.00000 -0.27987
       4     O     4.14497  4.14497  0.00000 -0.28994
       5     H     0.44209  0.44209  0.00000  0.11581
       6     H     0.44190  0.44190  0.00000  0.11621
       7     H     0.44211  0.44211  0.00000  0.11578
       8     C     2.97930  2.97930  0.00000  0.04141
       9     C     3.08230  3.08230  0.00000 -0.16461
      10     H     0.45402  0.45402  0.00000  0.09197
      11     H     0.45372  0.45372  0.00000  0.09257
      12     C     3.10577  3.10577  0.00000 -0.21154
      13     H     0.45014  0.45014  0.00000  0.09973
      14     H     0.45043  0.45043  0.00000  0.09914
      15     C     3.09066  3.09066  0.00000 -0.18131
      16     H     0.44544  0.44544  0.00000  0.10913
      17     H     0.45392  0.45392  0.00000  0.09217
      18     C     3.14679  3.14679  0.00000 -0.29359
      19     H     0.44708  0.44708  0.00000  0.10585
      20     H     0.45460  0.45460  0.00000  0.09080
      21     H     0.45413  0.45413  0.00000  0.09174
      22     H     0.44843  0.44843  0.00000  0.10315
      23     H     0.45483  0.45483  0.00000  0.09035

   Total alpha = 36.00000, Total beta = 36.00000, Total charge =  0.00000

*** Psi4 exiting successfully. Buy a developer a beer!
