  ==> Input File <==

--------------------------------------------------------------------------
set {
	reference rhf
	basis 6-31G*
}

set_num_threads( 4 )
memory 2 gb

molecule MOL {
0 1

H	 0.898554	 1.444323	 -0.572461
O	 0.055946	 1.300438	 -0.164479
C	 0.004957	 -0.004114	 0.366649
C	 1.201664	 -0.828089	 -0.095740
C	 -1.317755	 -0.601827	 -0.081511
H	 0.013527	 0.048298	 1.454924
H	 1.216388	 -0.895289	 -1.178704
H	 2.135132	 -0.372895	 0.226467
H	 1.166770	 -1.832878	 0.313827
H	 -1.355732	 -0.658248	 -1.164429
H	 -2.141614	 0.017037	 0.254547
H	 -1.447303	 -1.600817	 0.322594

	symmetry c1
}
set optking {
	frozen_dihedral = ("
		1 2 3 4
	")
}

ee = optimize('scf')
oeprop('DIPOLE', 'QUADRUPOLE', 'MULLIKEN_CHARGES')
f=open( 'psi4out.xyz', 'w' )
f.write( "12  " )
f.write( str(ee) + "\n" )
f.write( MOL.save_string_xyz() )
f.close()
--------------------------------------------------------------------------

    Molecular point group: c1
  Charge       = 0
  Multiplicity = 1
  Basis Set: 6-31G*
  Basis Set:
  @DF-RHF Final Energy:  -193.11264105019106
    Total Energy =                       -193.1126410501910868
    Molecular point group: c1
  Basis Set: 6-31G*
  Basis Set:
  Basis Set: 6-31G*
  Basis Set:
  @DF-RHF Final Energy:  -193.11286868005206
    Total Energy =                       -193.1128686800520313
  Basis Set: 6-31G*
  Basis Set:
  Basis Set: 6-31G*
  Basis Set:
  @DF-RHF Final Energy:  -193.11299587584165
    Total Energy =                       -193.1129958758415910
  Basis Set: 6-31G*
  Basis Set:
  Charge       = 0
  Multiplicity = 1
  Basis Set: 6-31G*
  Basis Set:

    Orbital Energies (a.u.)
    -----------------------

    Doubly Occupied:

       1A    -20.548628     2A    -11.275417     3A    -11.220395
       4A    -11.206067     5A     -1.358093     6A     -1.042896
       7A     -0.943499     8A     -0.809794     9A     -0.675058
      10A     -0.644685    11A     -0.607113    12A     -0.550330
      13A     -0.543751    14A     -0.520414    15A     -0.513551
      16A     -0.467536    17A     -0.427003

  @DF-RHF Final Energy:  -193.11299671799250

   => Energetics <=

    Nuclear Repulsion Energy =            135.4633632815772728
    One-Electron Energy =                -530.4442567055581321
    Two-Electron Energy =                 201.8678967059883291
    DFT Exchange-Correlation Energy =       0.0000000000000000
    Empirical Dispersion Energy =           0.0000000000000000
    PCM Polarization Energy =               0.0000000000000000
    EFP Energy =                            0.0000000000000000
    Total Energy =                       -193.1129967179925586
    Molecular point group: c1
  Basis Set: 6-31G*
  Basis Set:

  -Total Gradient:
     Atom            X                  Y                   Z
    ------   -----------------  -----------------  -----------------
       1       -0.000462024369    -0.000418101905    -0.001180553461
       2        0.000794846675     0.000631519754     0.001715263608
       3       -0.000762825282    -0.000449852948    -0.001227590783
       4        0.000466240724     0.000294443688     0.000753924919
       5       -0.000038094156    -0.000022369953    -0.000019407765
       6        0.000034055667    -0.000043780568    -0.000023093127
       7       -0.000045247647    -0.000004791471     0.000022054457
       8        0.000026897897     0.000007124823    -0.000030723966
       9       -0.000011731854     0.000005797479     0.000001896308
      10       -0.000015384492    -0.000004857683    -0.000006569091
      11        0.000006557172     0.000002018451    -0.000000603779
      12        0.000006709666     0.000002850329    -0.000004597320

  **** Optimization is complete! (in 4 steps) ****
    Final optimized geometry and variables:
    Molecular point group: c1

    Geometry (in Angstrom), charge = 0, multiplicity = 1:

    H            0.905981093964     1.484141990137    -0.528881923667
    O            0.062615892835     1.318205678041    -0.134851478035
    C            0.001744067232    -0.001760162606     0.364430715925
    C            1.199176381421    -0.825788802318    -0.092993353106
    C           -1.323432111161    -0.607741871563    -0.071043873124
    H            0.019819176854     0.052425383083     1.450465271758
    H            1.219308279492    -0.903955032376    -1.176948678715
    H            2.130420218555    -0.371483151645     0.235936027679
    H            1.159278800252    -1.829466772031     0.316365030488
    H           -1.361460286832    -0.699972230365    -1.151943992445
    H           -2.143586270194     0.028377109568     0.241694280741
    H           -1.464795293376    -1.591185903840     0.367453848755

  Mulliken Charges: (a.u.)
   Center  Symbol    Alpha    Beta     Spin     Total
       1     H     0.27952  0.27952  0.00000  0.44096
       2     O     4.37962  4.37962  0.00000 -0.75925
       3     C     2.90395  2.90395  0.00000  0.19210
       4     C     3.26654  3.26654  0.00000 -0.53308
       5     C     3.23884  3.23884  0.00000 -0.47769
       6     H     0.42573  0.42573  0.00000  0.14854
       7     H     0.41730  0.41730  0.00000  0.16540
       8     H     0.41867  0.41867  0.00000  0.16266
       9     H     0.41398  0.41398  0.00000  0.17204
      10     H     0.41992  0.41992  0.00000  0.16017
      11     H     0.41066  0.41066  0.00000  0.17867
      12     H     0.42527  0.42527  0.00000  0.14947

   Total alpha = 17.00000, Total beta = 17.00000, Total charge =  0.00000
