  ==> Input File <==

--------------------------------------------------------------------------
set {
	reference rhf
	basis 6-31G*
}

set_num_threads( 4 )
memory 2 gb

molecule MOL {
0 1

O	 -1.717695	 2.163257	 0.135016
C	 -1.785172	 1.066274	 -0.330290
C	 -0.571238	 0.416347	 -0.970809
C	 -3.063115	 0.259095	 -0.278351
C	 0.379448	 -0.143569	 0.099626
H	 -0.057607	 1.176890	 -1.548789
H	 -0.875059	 -0.376164	 -1.648782
C	 1.631333	 -0.777471	 -0.511575
H	 0.649131	 0.665568	 0.768919
H	 -0.142099	 -0.887497	 0.699882
C	 2.915987	 -0.544314	 0.291766
H	 1.766672	 -0.399098	 -1.523130
H	 1.471257	 -1.849544	 -0.605828
C	 3.373361	 0.914346	 0.347591
H	 3.708709	 -1.142521	 -0.150311
H	 2.780642	 -0.921148	 1.303579
H	 3.506512	 1.320010	 -0.651625
H	 4.322697	 0.999599	 0.867103
H	 2.660624	 1.545032	 0.868198
H	 -3.444323	 0.113405	 -1.285684
H	 -3.804230	 0.776839	 0.314502
H	 -2.878689	 -0.726324	 0.139669

	symmetry c1
}
set optking {
	frozen_dihedral = ("
		3 5 8 12
	")
}

ee = optimize('scf')
oeprop('DIPOLE', 'QUADRUPOLE', 'MULLIKEN_CHARGES')
f=open( 'psi4out.xyz', 'w' )
f.write( "22  " )
f.write( str(ee) + "\n" )
f.write( MOL.save_string_xyz() )
f.close()
--------------------------------------------------------------------------

    Molecular point group: c1
  Charge       = 0
  Multiplicity = 1
  Basis Set: 6-31G*
  Basis Set:
  @DF-RHF Final Energy:  -348.09418787974289
    Total Energy =                       -348.0941878797430036
    Molecular point group: c1
  Basis Set: 6-31G*
  Basis Set:
  Basis Set: 6-31G*
  Basis Set:
  @DF-RHF Final Energy:  -348.09438858390723
    Total Energy =                       -348.0943885839074028
  Basis Set: 6-31G*
  Basis Set:
  Basis Set: 6-31G*
  Basis Set:
  @DF-RHF Final Energy:  -348.09457632650174
    Total Energy =                       -348.0945763265016808
  Basis Set: 6-31G*
  Basis Set:
  Basis Set: 6-31G*
  Basis Set:
  @DF-RHF Final Energy:  -348.09459571599621
    Total Energy =                       -348.0945957159959789
  Basis Set: 6-31G*
  Basis Set:
  @DF-RHF Final Energy:  -348.09466106873498
    Total Energy =                       -348.0946610687350358
  Basis Set: 6-31G*
  Basis Set:
  @DF-RHF Final Energy:  -348.09467781451127
    Total Energy =                       -348.0946778145112717
  Basis Set: 6-31G*
  Basis Set:
  Basis Set: 6-31G*
  Basis Set:
  @DF-RHF Final Energy:  -348.09468328069858
    Total Energy =                       -348.0946832806985753
  Basis Set: 6-31G*
  Basis Set:
  Basis Set: 6-31G*
  Basis Set:
  @DF-RHF Final Energy:  -348.09468462866550
    Total Energy =                       -348.0946846286653908
  Basis Set: 6-31G*
  Basis Set:
  Charge       = 0
  Multiplicity = 1
  Basis Set: 6-31G*
  Basis Set:

    Orbital Energies (a.u.)
    -----------------------

    Doubly Occupied:

       1A    -20.547439     2A    -11.324269     3A    -11.229658
       4A    -11.229085     5A    -11.228148     6A    -11.222098
       7A    -11.220330     8A    -11.210333     9A     -1.393082
      10A     -1.094079    11A     -1.043909    12A     -0.998860
      13A     -0.937767    14A     -0.855939    15A     -0.788301
      16A     -0.733414    17A     -0.658674    18A     -0.646927
      19A     -0.626187    20A     -0.618454    21A     -0.598456
      22A     -0.573614    23A     -0.568096    24A     -0.546537
      25A     -0.531279    26A     -0.511262    27A     -0.504950
      28A     -0.486967    29A     -0.468812    30A     -0.462673
      31A     -0.459426    32A     -0.395921

  @DF-RHF Final Energy:  -348.09468452183239

   => Energetics <=

    Nuclear Repulsion Energy =            374.0490295164177041
    One-Electron Energy =               -1212.8575367774442384
    Two-Electron Energy =                 490.7138227391940859
    DFT Exchange-Correlation Energy =       0.0000000000000000
    Empirical Dispersion Energy =           0.0000000000000000
    PCM Polarization Energy =               0.0000000000000000
    EFP Energy =                            0.0000000000000000
    Total Energy =                       -348.0946845218324484
    Molecular point group: c1
  Basis Set: 6-31G*
  Basis Set:

  -Total Gradient:
     Atom            X                  Y                   Z
    ------   -----------------  -----------------  -----------------
       1        0.000017551411    -0.000014500336     0.000001993205
       2       -0.000046082486    -0.000039889967     0.000033091341
       3        0.001236352103     0.002231373106     0.000164210859
       4       -0.000023787034     0.000043483288    -0.000033597400
       5       -0.002056271459    -0.003685823731    -0.000539785030
       6       -0.000009317441     0.000016324370     0.000002416924
       7        0.000021905638     0.000009046120     0.000000297385
       8        0.002813693738     0.004117774337     0.001657864653
       9        0.000051579262     0.000006122540    -0.000019462847
      10       -0.000041292610    -0.000035482682    -0.000038640281
      11       -0.000020273796     0.000026238545     0.000040416375
      12       -0.001964679887    -0.002645011626    -0.001314792535
      13       -0.000003779287    -0.000007278062     0.000060355069
      14       -0.000004556054     0.000012390449     0.000002050959
      15        0.000000325079     0.000020980672    -0.000024041080
      16        0.000018200337    -0.000035780851    -0.000000520300
      17        0.000012425606     0.000004471779    -0.000001210740
      18       -0.000006805896     0.000003334998     0.000006699554
      19       -0.000006265394    -0.000011467009    -0.000011720052
      20       -0.000001553289    -0.000012992293     0.000004174968
      21       -0.000003150893    -0.000002858173     0.000000492493
      22        0.000015782364    -0.000000455478     0.000009706479

  **** Optimization is complete! (in 9 steps) ****
    Final optimized geometry and variables:
    Molecular point group: c1

    Geometry (in Angstrom), charge = 0, multiplicity = 1:

    O           -1.937564865224     1.709963274687     0.331458013807
    C           -1.962012250285     0.625812262861    -0.167081917128
    C           -0.721743688453     0.041264629595    -0.819424148768
    C           -3.211264060979    -0.226828786009    -0.152895019419
    C            0.231579971008    -0.539477742024     0.237496539513
    H           -0.219239647011     0.840675370104    -1.352210016731
    H           -0.994580097409    -0.726146508370    -1.539046403983
    C            1.496126448437    -1.169557306513    -0.376959715055
    H            0.497430504560     0.266762629986     0.912170877168
    H           -0.285662647405    -1.281244773798     0.841117273426
    C            2.768641798134    -0.978524120787     0.455341419242
    H            1.651005429734    -0.785004576071    -1.382885285887
    H            1.322005227429    -2.235006809064    -0.508087778197
    C            3.316222383229     0.449588313536     0.437154576981
    H            3.535497142321    -1.650571330479     0.078798870690
    H            2.575357416462    -1.283749334282     1.481733751418
    H            3.569296836254     0.753816782948    -0.574660992648
    H            4.216149371536     0.525920324389     1.039423476625
    H            2.601482119345     1.166513737244     0.827731407697
    H           -3.582806147700    -0.346598415154    -1.167192656679
    H           -3.972469159131     0.242097154375     0.454922810547
    H           -2.994852381200    -1.220645513701     0.228126190092

  Mulliken Charges: (a.u.)
   Center  Symbol    Alpha    Beta     Spin     Total
       1     O     4.26248  4.26248  0.00000 -0.52496
       2     C     2.73743  2.73743  0.00000  0.52514
       3     C     3.20136  3.20136  0.00000 -0.40273
       4     C     3.28939  3.28939  0.00000 -0.57878
       5     C     3.16518  3.16518  0.00000 -0.33036
       6     H     0.40063  0.40063  0.00000  0.19875
       7     H     0.41681  0.41681  0.00000  0.16638
       8     C     3.15554  3.15554  0.00000 -0.31108
       9     H     0.40447  0.40447  0.00000  0.19106
      10     H     0.41834  0.41834  0.00000  0.16331
      11     C     3.15441  3.15441  0.00000 -0.30882
      12     H     0.42045  0.42045  0.00000  0.15911
      13     H     0.41956  0.41956  0.00000  0.16088
      14     C     3.24172  3.24172  0.00000 -0.48344
      15     H     0.42005  0.42005  0.00000  0.15991
      16     H     0.42163  0.42163  0.00000  0.15675
      17     H     0.42161  0.42161  0.00000  0.15678
      18     H     0.41811  0.41811  0.00000  0.16378
      19     H     0.41706  0.41706  0.00000  0.16589
      20     H     0.40678  0.40678  0.00000  0.18643
      21     H     0.39711  0.39711  0.00000  0.20578
      22     H     0.40989  0.40989  0.00000  0.18023

   Total alpha = 32.00000, Total beta = 32.00000, Total charge =  0.00000
