  ==> Input File <==

--------------------------------------------------------------------------
set {
	reference rhf
	basis 6-31G*
}

set_num_threads( 1 )
memory 2 gb

molecule MOL {
0 1

H	 -2.420312	 -0.621442	 -1.194283
O	 -2.338207	 -0.306295	 -0.305278
C	 -1.181144	 0.477469	 -0.187348
C	 0.069345	 -0.383836	 -0.177301
H	 -1.111943	 1.213075	 -0.983873
H	 -1.258296	 1.012497	 0.748730
O	 1.171513	 0.459272	 -0.058250
H	 0.130127	 -0.966738	 -1.098448
H	 0.021316	 -1.087940	 0.651260
C	 2.397842	 -0.198080	 -0.002151
H	 2.508049	 -0.905315	 -0.822092
H	 3.173794	 0.550865	 -0.078850
H	 2.517602	 -0.735921	 0.936026

	symmetry c1
}
set optking {
	frozen_dihedral = ("
		8 4 3 5,
		1 2 3 5,
		10 7 4 8
	")
}

ee = energy('scf')
oeprop('DIPOLE', 'QUADRUPOLE', 'MULLIKEN_CHARGES')
f=open( 'psi4out.xyz', 'w' )
f.write( "13  " )
f.write( str(ee) + "\n" )
f.write( MOL.save_string_xyz() )
f.close()
--------------------------------------------------------------------------

    Molecular point group: c1

    Geometry (in Angstrom), charge = 0, multiplicity = 1:

       Center              X                  Y                   Z               Mass
    ------------   -----------------  -----------------  -----------------  -----------------
           H         -2.425039552248    -0.616715172873    -1.035548565963     1.007825032070
           O         -2.342934552248    -0.301568172873    -0.146543565963    15.994914619560
           C         -1.185871552248     0.482195827127    -0.028613565963    12.000000000000
           C          0.064617447752    -0.379109172873    -0.018566565963    12.000000000000
           H         -1.116670552248     1.217801827127    -0.825138565963     1.007825032070
           H         -1.263023552248     1.017223827127     0.907464434037     1.007825032070
           O          1.166785447752     0.463998827127     0.100484434037    15.994914619560
           H          0.125399447752    -0.962011172873    -0.939713565963     1.007825032070
           H          0.016588447752    -1.083213172873     0.809994434037     1.007825032070
           C          2.393114447752    -0.193353172873     0.156583434037    12.000000000000
           H          2.503321447752    -0.900588172873    -0.663357565963     1.007825032070
           H          3.169066447752     0.555591827127     0.079884434037     1.007825032070
           H          2.512874447752    -0.731194172873     1.094760434037     1.007825032070

  Charge       = 0
  Multiplicity = 1
  Basis Set: 6-31G*
  Basis Set:

    Orbital Energies (a.u.)
    -----------------------

    Doubly Occupied:

       1A    -20.562323     2A    -20.560183     3A    -11.270943
       4A    -11.270276     5A    -11.268988     6A     -1.388912
       7A     -1.365244     8A     -1.018574     9A     -0.913378
      10A     -0.842014    11A     -0.709456    12A     -0.674253
      13A     -0.660840    14A     -0.636943    15A     -0.596393
      16A     -0.568731    17A     -0.546192    18A     -0.489019
      19A     -0.482320    20A     -0.438515    21A     -0.421858

  @DF-RHF Final Energy:  -267.95040131251051

   => Energetics <=

    Nuclear Repulsion Energy =            190.2476717735628711
    One-Electron Energy =                -743.0254626639857634
    Two-Electron Energy =                 284.8273895779123563
    DFT Exchange-Correlation Energy =       0.0000000000000000
    Empirical Dispersion Energy =           0.0000000000000000
    PCM Polarization Energy =               0.0000000000000000
    EFP Energy =                            0.0000000000000000
    Total Energy =                       -267.9504013125105644

  Mulliken Charges: (a.u.)
   Center  Symbol    Alpha    Beta     Spin     Total
       1     H     0.28128  0.28128  0.00000  0.43745
       2     O     4.37083  4.37083  0.00000 -0.74166
       3     C     3.00470  3.00470  0.00000 -0.00941
       4     C     2.99671  2.99671  0.00000  0.00659
       5     H     0.42230  0.42230  0.00000  0.15541
       6     H     0.40840  0.40840  0.00000  0.18320
       7     O     4.30752  4.30752  0.00000 -0.61504
       8     H     0.43732  0.43732  0.00000  0.12537
       9     H     0.42348  0.42348  0.00000  0.15305
      10     C     3.07979  3.07979  0.00000 -0.15958
      11     H     0.42989  0.42989  0.00000  0.14023
      12     H     0.41108  0.41108  0.00000  0.17784
      13     H     0.42672  0.42672  0.00000  0.14656

   Total alpha = 21.00000, Total beta = 21.00000, Total charge = -0.00000
