  ==> Input File <==

--------------------------------------------------------------------------
set {
	reference rhf
	basis cc-pvtz
}

set_num_threads( 4 )
memory 2 gb

molecule MOL {
0 1

H	 -0.000105	 1.988529	 0.748933
O	 -0.000098	 1.879786	 -0.188206
C	 -0.000014	 0.545691	 -0.532416
C	 -0.404972	 0.378337	 -1.997946
C	 -0.851558	 -0.254496	 0.454675
H	 1.012256	 0.179786	 -0.442508
F	 0.442399	 1.026980	 -2.758264
F	 -0.404502	 -0.875467	 -2.374362
F	 -1.603118	 0.873439	 -2.223103
F	 -0.362469	 -0.113583	 1.662066
F	 -0.868648	 -1.533163	 0.174620
F	 -2.094319	 0.177391	 0.474572

	symmetry c1
}
set optking {
	frozen_dihedral = ("
		6 3 2 1
	")
}

ee = optimize('scf')
oeprop('DIPOLE', 'QUADRUPOLE', 'MULLIKEN_CHARGES')
f=open( 'psi4out.xyz', 'w' )
f.write( "12  " )
f.write( str(ee) + "\n" )
f.write( MOL.save_string_xyz() )
f.close()
--------------------------------------------------------------------------

    Molecular point group: c1
  Charge       = 0
  Multiplicity = 1
  Basis Set: CC-PVTZ
  Basis Set:
  @DF-RHF Final Energy:  -786.58488407557263
    Total Energy =                       -786.5848840755725178
    Molecular point group: c1
  Basis Set: CC-PVTZ
  Basis Set:
  Basis Set: CC-PVTZ
  Basis Set:
  @DF-RHF Final Energy:  -786.58675235558235
    Total Energy =                       -786.5867523555826892
  Basis Set: CC-PVTZ
  Basis Set:
  Basis Set: CC-PVTZ
  Basis Set:
  @DF-RHF Final Energy:  -786.58715286516167
    Total Energy =                       -786.5871528651612152
  Basis Set: CC-PVTZ
  Basis Set:
  Basis Set: CC-PVTZ
  Basis Set:
  @DF-RHF Final Energy:  -786.58721593655866
    Total Energy =                       -786.5872159365579819
  Basis Set: CC-PVTZ
  Basis Set:
  Basis Set: CC-PVTZ
  Basis Set:
  @DF-RHF Final Energy:  -786.58722973789406
    Total Energy =                       -786.5872297378939493
  Basis Set: CC-PVTZ
  Basis Set:
  Basis Set: CC-PVTZ
  Basis Set:
  @DF-RHF Final Energy:  -786.58723236284766
    Total Energy =                       -786.5872323628474305
  Basis Set: CC-PVTZ
  Basis Set:
  Basis Set: CC-PVTZ
  Basis Set:
  @DF-RHF Final Energy:  -786.58723376836599
    Total Energy =                       -786.5872337683658770
  Basis Set: CC-PVTZ
  Basis Set:
  Charge       = 0
  Multiplicity = 1
  Basis Set: CC-PVTZ
  Basis Set:

    Orbital Energies (a.u.)
    -----------------------

    Doubly Occupied:

       1A    -26.364130     2A    -26.360573     3A    -26.358730
       4A    -26.351751     5A    -26.348123     6A    -26.347957
       7A    -20.608007     8A    -11.524042     9A    -11.515644
      10A    -11.351594    11A     -1.774329    12A     -1.762266
      13A     -1.669414    14A     -1.667841    15A     -1.657640
      16A     -1.655819    17A     -1.438456    18A     -1.104721
      19A     -1.002160    20A     -0.942326    21A     -0.875916
      22A     -0.866590    23A     -0.861941    24A     -0.849463
      25A     -0.838940    26A     -0.794283    27A     -0.757378
      28A     -0.739896    29A     -0.726878    30A     -0.724752
      31A     -0.718958    32A     -0.693582    33A     -0.690044
      34A     -0.675226    35A     -0.674340    36A     -0.669971
      37A     -0.659002    38A     -0.648707    39A     -0.621848
      40A     -0.549590    41A     -0.508981

  @DF-RHF Final Energy:  -786.58723384081657

   => Energetics <=

    Nuclear Repulsion Energy =            671.1930505157957896
    One-Electron Energy =               -2429.6569470364574954
    Two-Electron Energy =                 971.8766626798449124
    DFT Exchange-Correlation Energy =       0.0000000000000000
    Empirical Dispersion Energy =           0.0000000000000000
    PCM Polarization Energy =               0.0000000000000000
    EFP Energy =                            0.0000000000000000
    Total Energy =                       -786.5872338408169071
    Molecular point group: c1
  Basis Set: CC-PVTZ
  Basis Set:

  -Total Gradient:
     Atom            X                  Y                   Z
    ------   -----------------  -----------------  -----------------
       1       -0.002070718394    -0.000003407316     0.000067637175
       2        0.002658772628     0.000121980309    -0.000598291073
       3       -0.000857055658    -0.000556878863     0.002257467092
       4        0.000020062527    -0.000013489385     0.000045706231
       5        0.000025098652    -0.000003989743    -0.000036855056
       6        0.000256051812     0.000414627463    -0.001737479045
       7       -0.000022467540     0.000002584064    -0.000010522645
       8       -0.000001835696     0.000022577420     0.000004170335
       9        0.000006333357     0.000004070610    -0.000023995637
      10       -0.000039491329     0.000017165376    -0.000006483825
      11       -0.000012435681    -0.000004479041     0.000002513886
      12        0.000037685321    -0.000000760896     0.000036132549

  **** Optimization is complete! (in 8 steps) ****
    Final optimized geometry and variables:
    Molecular point group: c1

    Geometry (in Angstrom), charge = 0, multiplicity = 1:

    H            0.705892861733     1.801018031953     1.454058094212
    O            0.672027618434     1.668765961096     0.522695345137
    C            0.657862862517     0.326632144438     0.206191422764
    C            0.213974953649     0.224055370735    -1.251970183988
    C           -0.217240482078    -0.468566271767     1.175011479265
    H            1.648317551033    -0.114456370724     0.246103404410
    F            1.088456689019     0.835583324866    -2.013229541969
    F            0.159266094700    -1.032058196113    -1.632592128987
    F           -0.955967660961     0.765126867292    -1.462856575713
    F            0.168834776160    -0.184238759587     2.407230792362
    F           -0.077667733903    -1.757530299458     1.003811574952
    F           -1.487058356111    -0.173169890835     1.085756806477

  Mulliken Charges: (a.u.)
   Center  Symbol    Alpha    Beta     Spin     Total
       1     H     0.38342  0.38342  0.00000  0.23317
       2     O     4.18610  4.18610  0.00000 -0.37220
       3     C     2.99612  2.99612  0.00000  0.00776
       4     C     2.67773  2.67773  0.00000  0.64454
       5     C     2.68439  2.68439  0.00000  0.63122
       6     H     0.44501  0.44501  0.00000  0.10998
       7     F     4.60369  4.60369  0.00000 -0.20737
       8     F     4.60638  4.60638  0.00000 -0.21275
       9     F     4.60149  4.60149  0.00000 -0.20297
      10     F     4.61456  4.61456  0.00000 -0.22912
      11     F     4.60135  4.60135  0.00000 -0.20270
      12     F     4.59978  4.59978  0.00000 -0.19955

   Total alpha = 41.00000, Total beta = 41.00000, Total charge =  0.00000
