                              Psi4 1.0.54 Driver

  ==> Input File <==

--------------------------------------------------------------------------
set {
	reference rhf
	basis cc-pvtz
}

set_num_threads( 4 )
memory 2 gb

molecule MOL {
0 1

O	 1.847685	 1.294399	 -0.000190
C	 1.704209	 0.119472	 -0.000093
C	 0.380337	 -0.600947	 -0.000234
O	 2.715427	 -0.733672	 0.000025
C	 -0.824290	 0.329213	 -0.000115
H	 0.371455	 -1.255476	 -0.865660
H	 0.371410	 -1.255787	 0.864952
C	 -2.146151	 -0.432825	 -0.000068
H	 -0.773936	 0.979158	 -0.866319
H	 -0.773838	 0.979034	 0.866186
C	 -3.366283	 0.483552	 0.000557
H	 -2.189286	 -1.084450	 -0.869996
H	 -2.188867	 -1.085083	 0.869399
C	 -3.498839	 1.303711	 1.279299
H	 -4.262701	 -0.114002	 -0.139162
H	 -3.311475	 1.153030	 -0.853232
H	 -3.590473	 0.661386	 2.148928
H	 -4.374034	 1.942239	 1.246916
H	 -2.631908	 1.938732	 1.429013
C	 4.020999	 -0.192556	 0.000019
H	 4.182809	 0.412891	 -0.879449
H	 4.692590	 -1.035653	 0.000152
H	 4.182726	 0.413087	 0.879368

	symmetry c1
}
set optking {
	frozen_dihedral = ("
		15 11 8 12
	")
}

ee,wfn = optimize('scf', return_wfn=True)
oeprop( wfn, 'DIPOLE', 'QUADRUPOLE', 'MULLIKEN_CHARGES')
f=open( 'psi4out.xyz', 'w' )
f.write( "23  " )
f.write( str(ee) + "\n" )
f.write( MOL.save_string_xyz() )
f.close()
--------------------------------------------------------------------------

    Molecular point group: c1
  Charge       = 0
  Multiplicity = 1
  Basis Set: CC-PVTZ
  Basis Set:
  @DF-RHF Final Energy:  -423.12895318405998
    Total Energy =                       -423.1289531840594691
    Molecular point group: c1
  Basis Set: CC-PVTZ
  Basis Set:
  Basis Set: CC-PVTZ
  Basis Set:
  @DF-RHF Final Energy:  -423.12890452510266
    Total Energy =                       -423.1289045251025982
  Basis Set: CC-PVTZ
  Basis Set:
  Basis Set: CC-PVTZ
  Basis Set:
  @DF-RHF Final Energy:  -423.12943664509936
    Total Energy =                       -423.1294366450991902
  Basis Set: CC-PVTZ
  Basis Set:
  Basis Set: CC-PVTZ
  Basis Set:
  @DF-RHF Final Energy:  -423.12944426950315
    Total Energy =                       -423.1294442695035514
  Basis Set: CC-PVTZ
  Basis Set:
  Basis Set: CC-PVTZ
  Basis Set:
  @DF-RHF Final Energy:  -423.12934188341688
    Total Energy =                       -423.1293418834173963
  Basis Set: CC-PVTZ
  Basis Set:
  Basis Set: CC-PVTZ
  Basis Set:
  @DF-RHF Final Energy:  -423.12945638054259
    Total Energy =                       -423.1294563805427060
  Basis Set: CC-PVTZ
  Basis Set:
  Charge       = 0
  Multiplicity = 1
  Basis Set: CC-PVTZ
  Basis Set:

    Orbital Energies (a.u.)
    -----------------------

    Doubly Occupied:

       1A    -20.596313     2A    -20.534115     3A    -11.364533
       4A    -11.278479     5A    -11.233692     6A    -11.216752
       7A    -11.215988     8A    -11.214825     9A    -11.206223
      10A     -1.472198    11A     -1.365746    12A     -1.094263
      13A     -1.043239    14A     -0.986295    15A     -0.931996
      16A     -0.855685    17A     -0.784804    18A     -0.769020
      19A     -0.698932    20A     -0.686531    21A     -0.676066
      22A     -0.644370    23A     -0.616081    24A     -0.598308
      25A     -0.589741    26A     -0.562592    27A     -0.534992
      28A     -0.528194    29A     -0.522584    30A     -0.513915
      31A     -0.491085    32A     -0.467235    33A     -0.463627
      34A     -0.461372    35A     -0.457367    36A     -0.438447

  @DF-RHF Final Energy:  -423.12945725970314

   => Energetics <=

    Nuclear Repulsion Energy =            457.6750175124151383
    One-Electron Energy =               -1483.3777478019117098
    Two-Electron Energy =                 602.5732730297929720
    DFT Exchange-Correlation Energy =       0.0000000000000000
    Empirical Dispersion Energy =           0.0000000000000000
    PCM Polarization Energy =               0.0000000000000000
    EFP Energy =                            0.0000000000000000
    Total Energy =                       -423.1294572597037131
    Molecular point group: c1
  Basis Set: CC-PVTZ
  Basis Set:

  -Total Gradient:
     Atom            X                  Y                   Z
    ------   -----------------  -----------------  -----------------
       1       -0.000017754807     0.000056943672    -0.000015005173
       2        0.000024047311    -0.000061674466     0.000013743048
       3        0.000012800209     0.000008112426     0.000030710002
       4       -0.000026976651    -0.000007475657     0.000002981384
       5       -0.000001194428     0.000010888756    -0.000018408191
       6       -0.000004876637     0.000007938825    -0.000010583110
       7        0.000000663891     0.000000221397    -0.000011857015
       8        0.000068785199     0.000065905962    -0.000095060435
       9        0.000002351600     0.000000190837     0.000005869665
      10        0.000012102549    -0.000005682766     0.000001446725
      11       -0.000022923296    -0.000020165175     0.000143672927
      12       -0.000043654888    -0.000074651919     0.000055666036
      13       -0.000010145797     0.000010396114    -0.000001734508
      14       -0.000001034044     0.000007746953    -0.000002555175
      15        0.000006694788     0.000000366124    -0.000106740258
      16        0.000013027487    -0.000004303239     0.000012444738
      17        0.000006674550    -0.000002476961    -0.000010182717
      18       -0.000000571801    -0.000002615067     0.000004635494
      19       -0.000001137530     0.000005879385     0.000002978243
      20        0.000001635618     0.000016177485    -0.000000879862
      21       -0.000005907123    -0.000000011843    -0.000002883650
      22       -0.000006455342    -0.000011607352    -0.000000255911
      23       -0.000006150856    -0.000000103489     0.000001997742

  **** Optimization is complete! (in 7 steps) ****
    Final optimized geometry and variables:
    Molecular point group: c1

    Geometry (in Angstrom), charge = 0, multiplicity = 1:

    O            1.731666604500     1.105315454986    -0.147702797244
    C            1.583178665928    -0.068954719764    -0.129775383699
    C            0.256311373723    -0.783405366542    -0.109923063256
    O            2.590744622415    -0.926345804441    -0.124390913610
    C           -0.943975996611     0.152570077699    -0.124559268071
    H            0.241279862400    -1.456716337984    -0.960610789962
    H            0.247914101471    -1.418938818355     0.769647479018
    C           -2.265921395919    -0.611720999967    -0.097198965118
    H           -0.899686415599     0.776253436311    -1.010688067806
    H           -0.874781748377     0.824503609583     0.721049044394
    C           -3.510996240441     0.272166972763    -0.186562149846
    H           -2.282733977114    -1.314815370558    -0.925870035374
    H           -2.318874485585    -1.211664537602     0.808848273683
    C           -3.735046538347     1.180447967787     1.019894649180
    H           -4.378435080621    -0.369515306667    -0.306198819244
    H           -3.455636103363     0.876858759397    -1.087703092060
    H           -3.787925910102     0.602927945114     1.937381867268
    H           -4.666054855685     1.726630511174     0.920864324396
    H           -2.941467930565     1.908928797223     1.132372454045
    C            3.898509942329    -0.390996517931    -0.140663384004
    H            4.057046662793     0.201340331858    -1.029619774694
    H            4.566487738142    -1.236954131925    -0.133152111180
    H            4.068770848880     0.226211093501     0.728997037023

  Mulliken Charges: (a.u.)
   Center  Symbol    Alpha    Beta     Spin     Total
       1     O     4.19724  4.19724  0.00000 -0.39448
       2     C     2.80619  2.80619  0.00000  0.38761
       3     C     3.10121  3.10121  0.00000 -0.20242
       4     O     4.14639  4.14639  0.00000 -0.29278
       5     C     3.08629  3.08629  0.00000 -0.17257
       6     H     0.43935  0.43935  0.00000  0.12129
       7     H     0.44005  0.44005  0.00000  0.11991
       8     C     3.09801  3.09801  0.00000 -0.19602
       9     H     0.44635  0.44635  0.00000  0.10730
      10     H     0.44465  0.44465  0.00000  0.11070
      11     C     3.08996  3.08996  0.00000 -0.17991
      12     H     0.45012  0.45012  0.00000  0.09976
      13     H     0.45460  0.45460  0.00000  0.09081
      14     C     3.15261  3.15261  0.00000 -0.30521
      15     H     0.44833  0.44833  0.00000  0.10335
      16     H     0.45375  0.45375  0.00000  0.09251
      17     H     0.45555  0.45555  0.00000  0.08889
      18     H     0.44639  0.44639  0.00000  0.10721
      19     H     0.45116  0.45116  0.00000  0.09768
      20     C     3.03776  3.03776  0.00000 -0.07552
      21     H     0.45437  0.45437  0.00000  0.09126
      22     H     0.44534  0.44534  0.00000  0.10932
      23     H     0.45434  0.45434  0.00000  0.09132

   Total alpha = 36.00000, Total beta = 36.00000, Total charge = -0.00000

*** Psi4 exiting successfully. Buy a developer a beer!
