  ==> Input File <==

--------------------------------------------------------------------------
set {
	reference rhf
	basis 6-31G*
}

set_num_threads( 4 )
memory 2 gb

molecule MOL {
0 1

O	 -3.409387	 0.117009	 0.930044
C	 -2.668563	 0.129746	 -0.000350
C	 -2.975445	 0.811644	 -1.308824
O	 -1.481751	 -0.454642	 0.000584
H	 -3.160643	 1.862080	 -1.118695
H	 -2.168559	 0.703535	 -2.018533
H	 -3.884763	 0.387289	 -1.717412
C	 -0.334255	 0.388708	 0.000906
C	 0.891947	 -0.504646	 0.000751
H	 -0.365390	 1.025305	 -0.873475
H	 -0.365484	 1.024911	 0.875569
C	 2.191998	 0.301789	 0.000897
H	 0.855148	 -1.151283	 -0.871571
H	 0.855132	 -1.151660	 0.872805
C	 3.441114	 -0.581407	 0.000108
H	 2.215074	 0.954890	 -0.869742
H	 2.215465	 0.953923	 0.872248
C	 4.739576	 0.224112	 -0.001102
H	 3.419457	 -1.233487	 -0.870178
H	 3.420834	 -1.233096	 0.870717
H	 4.804918	 0.861552	 -0.878265
H	 5.606527	 -0.429058	 -0.001824
H	 4.806469	 0.861674	 0.875853

	symmetry c1
}
set optking {
	frozen_dihedral = ("
		1 2 4 8
	")
}

ee = optimize('scf')
oeprop('DIPOLE', 'QUADRUPOLE', 'MULLIKEN_CHARGES')
f=open( 'psi4out.xyz', 'w' )
f.write( "23  " )
f.write( str(ee) + "\n" )
f.write( MOL.save_string_xyz() )
f.close()
--------------------------------------------------------------------------

    Molecular point group: c1
  Charge       = 0
  Multiplicity = 1
  Basis Set: 6-31G*
  Basis Set:
  @DF-RHF Final Energy:  -422.95694788476595
    Total Energy =                       -422.9569478847661230
    Molecular point group: c1
  Basis Set: 6-31G*
  Basis Set:
  Basis Set: 6-31G*
  Basis Set:
  @DF-RHF Final Energy:  -422.95683718876495
    Total Energy =                       -422.9568371887647800
  Basis Set: 6-31G*
  Basis Set:
  Basis Set: 6-31G*
  Basis Set:
  @DF-RHF Final Energy:  -422.95776682835623
    Total Energy =                       -422.9577668283560570
  Basis Set: 6-31G*
  Basis Set:
  Basis Set: 6-31G*
  Basis Set:
  @DF-RHF Final Energy:  -422.95905824954707
    Total Energy =                       -422.9590582495476383
  Basis Set: 6-31G*
  Basis Set:
  @DF-RHF Final Energy:  -422.95913348761979
    Total Energy =                       -422.9591334876197379
  @DF-RHF Final Energy:  -422.95917572125273
    Total Energy =                       -422.9591757212526772
  @DF-RHF Final Energy:  -422.95921808823601
    Total Energy =                       -422.9592180882361845
  @DF-RHF Final Energy:  -422.95925420820646
    Total Energy =                       -422.9592542082062891
  @DF-RHF Final Energy:  -422.95928702782271
    Total Energy =                       -422.9592870278230521
  @DF-RHF Final Energy:  -422.95930100786791
    Total Energy =                       -422.9593010078683619
  @DF-RHF Final Energy:  -422.95929620870538
    Total Energy =                       -422.9592962087053820
  @DF-RHF Final Energy:  -422.95929769217793
    Total Energy =                       -422.9592976921780973
  @DF-RHF Final Energy:  -422.95930120665861
    Total Energy =                       -422.9593012066582105
  @DF-RHF Final Energy:  -422.95930145353492
    Total Energy =                       -422.9593014535352040
  @DF-RHF Final Energy:  -422.95808549151968
    Total Energy =                       -422.9580854915199097
  @DF-RHF Final Energy:  -422.95929093989247
    Total Energy =                       -422.9592909398929805
  @DF-RHF Final Energy:  -422.95930157327064
    Total Energy =                       -422.9593015732706363
  @DF-RHF Final Energy:  -422.95930112162881
    Total Energy =                       -422.9593011216288687
  @DF-RHF Final Energy:  -422.95926346500715
    Total Energy =                       -422.9592634650078935
  @DF-RHF Final Energy:  -422.95930152751873
    Total Energy =                       -422.9593015275180505
  @DF-RHF Final Energy:  -422.95929927533592
    Total Energy =                       -422.9592992753359795
  @DF-RHF Final Energy:  -422.95930373662674
    Total Energy =                       -422.9593037366267936
  @DF-RHF Final Energy:  -422.95930549719947
    Total Energy =                       -422.9593054971995798
  @DF-RHF Final Energy:  -422.95930636261170
    Total Energy =                       -422.9593063626116418
  @DF-RHF Final Energy:  -422.95930679847959
    Total Energy =                       -422.9593067984795880
  @DF-RHF Final Energy:  -422.95930698161305
    Total Energy =                       -422.9593069816122579
  @DF-RHF Final Energy:  -422.95930779885157
    Total Energy =                       -422.9593077988512277
  @DF-RHF Final Energy:  -422.95930819570538
    Total Energy =                       -422.9593081957060576
  @DF-RHF Final Energy:  -422.95930804663158
    Total Energy =                       -422.9593080466313495
  @DF-RHF Final Energy:  -422.95930597541576
    Total Energy =                       -422.9593059754162141
  @DF-RHF Final Energy:  -422.95930818786400
    Total Energy =                       -422.9593081878643943
  @DF-RHF Final Energy:  -422.95930323854992
    Total Energy =                       -422.9593032385489551
  @DF-RHF Final Energy:  -422.95927632805166
    Total Energy =                       -422.9592763280513736
  @DF-RHF Final Energy:  -422.95930769756370
    Total Energy =                       -422.9593076975631902
  @DF-RHF Final Energy:  -422.95927431076962
    Total Energy =                       -422.9592743107700699
  @DF-RHF Final Energy:  -422.95917175826344
    Total Energy =                       -422.9591717582635511
  Basis Set: 6-31G*
  Basis Set:
  @DF-RHF Final Energy:  -422.95929042033191
    Total Energy =                       -422.9592904203312855
  Basis Set: 6-31G*
  Basis Set:
  Basis Set: 6-31G*
  Basis Set:
  @DF-RHF Final Energy:  -422.95925408000249
    Total Energy =                       -422.9592540800018696
  Basis Set: 6-31G*
  Basis Set:
  Basis Set: 6-31G*
  Basis Set:
  @DF-RHF Final Energy:  -422.95927663950749
    Total Energy =                       -422.9592766395081753
  Basis Set: 6-31G*
  Basis Set:
  Charge       = 0
  Multiplicity = 1
  Basis Set: 6-31G*
  Basis Set:

    Orbital Energies (a.u.)
    -----------------------

    Doubly Occupied:

       1A    -20.585486     2A    -20.553024     3A    -11.377722
       4A    -11.293850     5A    -11.238859     6A    -11.227781
       7A    -11.227062     8A    -11.224153     9A    -11.215136
      10A     -1.457438    11A     -1.367226    12A     -1.095612
      13A     -1.035313    14A     -1.009848    15A     -0.936915
      16A     -0.844042    17A     -0.806214    18A     -0.776605
      19A     -0.698501    20A     -0.688416    21A     -0.654882
      22A     -0.648652    23A     -0.619693    24A     -0.592155
      25A     -0.582295    26A     -0.578464    27A     -0.562281
      28A     -0.547950    29A     -0.517604    30A     -0.502486
      31A     -0.487297    32A     -0.480042    33A     -0.474149
      34A     -0.473115    35A     -0.453634    36A     -0.432883

  @DF-RHF Final Energy:  -422.95927282818656

   => Energetics <=

    Nuclear Repulsion Energy =            449.0839930566240241
    One-Electron Energy =               -1465.5529604043163090
    Two-Electron Energy =                 593.5096945195059561
    DFT Exchange-Correlation Energy =       0.0000000000000000
    Empirical Dispersion Energy =           0.0000000000000000
    PCM Polarization Energy =               0.0000000000000000
    EFP Energy =                            0.0000000000000000
    Total Energy =                       -422.9592728281863856
    Molecular point group: c1
  Basis Set: 6-31G*
  Basis Set:

  -Total Gradient:
     Atom            X                  Y                   Z
    ------   -----------------  -----------------  -----------------
       1       -0.001443339428     0.000376665154     0.002490267527
       2        0.000623031125     0.001555291364    -0.000847810665
       3       -0.001922285417    -0.001513220693     0.000330948918
       4        0.004978886006    -0.000879218871    -0.002071129851
       5       -0.000657783169     0.001068830860    -0.001397106651
       6        0.001698805146     0.000279998910     0.000183589162
       7       -0.000397511776     0.000660749251     0.000124990199
       8       -0.001528257238    -0.002597598798     0.001756458882
       9       -0.001286120754     0.000111215364     0.000221524975
      10        0.000119828206     0.000415766968    -0.000601031767
      11       -0.000239681540     0.000086947941     0.000255853085
      12       -0.000686266152    -0.000014471694     0.000191991514
      13        0.000220622364    -0.000006836193    -0.000194715194
      14       -0.000047038087     0.000249266463    -0.000059563714
      15        0.000374578315     0.000196608047    -0.000011255058
      16        0.000172329020     0.000395948291    -0.000080254996
      17        0.000034293276    -0.000091918220    -0.000372341476
      18        0.000304016405     0.000040197581    -0.000196568392
      19       -0.000192489022    -0.000241860705    -0.000260920737
      20       -0.000065932096    -0.000186163114     0.000205081418
      21       -0.000066696248    -0.000154038689     0.000244856211
      22       -0.000103528956     0.000122876216     0.000019656161
      23        0.000110540032     0.000124964565     0.000067480446

    Molecular point group: c1

    Geometry (in Angstrom), charge = 0, multiplicity = 1:

    O           -3.407631096855     0.038811933032     0.973449670888
    C           -2.703180772658     0.084862117541     0.026335347245
    C           -3.103577581527     0.755162312492    -1.270856104659
    O           -1.493267632862    -0.515778951340     0.023899359572
    H           -3.036877006790     1.835164837316    -1.171457322540
    H           -2.469814413799     0.443195057644    -2.089787805999
    H           -4.137467587708     0.516464478565    -1.481928551110
    C           -0.352957479466     0.322602955566     0.034624205973
    C            0.879477662669    -0.560178170187     0.031013461358
    H           -0.357741087050     0.974860037989    -0.835778513298
    H           -0.380029146895     0.945255074897     0.923554874429
    C            2.175632361203     0.251524015971     0.056956915579
    H            0.850869311691    -1.191683012489    -0.852485830429
    H            0.830850099885    -1.218784176892     0.892615933536
    C            3.427970268902    -0.627930220962     0.056035571226
    H            2.208225765311     0.919737354269    -0.802744243082
    H            2.188436106453     0.889659034159     0.938535727645
    C            4.724077651618     0.181115297847     0.082566945491
    H            3.416696588959    -1.266215183359    -0.824868326358
    H            3.398748682996    -1.293556091254     0.915783667542
    H            4.797132532358     0.833273322366    -0.782915248563
    H            5.592573902852    -0.469620413815     0.080276028742
    H            4.780187083462     0.804098163900     0.970813071634

  Mulliken Charges: (a.u.)
   Center  Symbol    Alpha    Beta     Spin     Total
       1     O     4.24749  4.24749  0.00000 -0.49498
       2     C     2.62577  2.62577  0.00000  0.74845
       3     C     3.29678  3.29678  0.00000 -0.59355
       4     O     4.31864  4.31864  0.00000 -0.63727
       5     H     0.39921  0.39921  0.00000  0.20158
       6     H     0.40443  0.40443  0.00000  0.19114
       7     H     0.39173  0.39173  0.00000  0.21654
       8     C     2.99673  2.99673  0.00000  0.00654
       9     C     3.16261  3.16261  0.00000 -0.32522
      10     H     0.42432  0.42432  0.00000  0.15136
      11     H     0.41487  0.41487  0.00000  0.17025
      12     C     3.16118  3.16118  0.00000 -0.32236
      13     H     0.41309  0.41309  0.00000  0.17382
      14     H     0.40782  0.40782  0.00000  0.18436
      15     C     3.15171  3.15171  0.00000 -0.30342
      16     H     0.42288  0.42288  0.00000  0.15423
      17     H     0.42060  0.42060  0.00000  0.15879
      18     C     3.24001  3.24001  0.00000 -0.48001
      19     H     0.42106  0.42106  0.00000  0.15788
      20     H     0.41979  0.41979  0.00000  0.16042
      21     H     0.42141  0.42141  0.00000  0.15718
      22     H     0.41720  0.41720  0.00000  0.16561
      23     H     0.42068  0.42068  0.00000  0.15864

   Total alpha = 36.00000, Total beta = 36.00000, Total charge =  0.00000
