  ==> Input File <==

--------------------------------------------------------------------------
set {
	reference rhf
	basis cc-pvtz
}

set_num_threads( 4 )
memory 2 gb

molecule MOL {
0 1

H	 -0.109694	 0.482284	 -2.635217
C	 -0.846405	 0.773247	 -1.893435
O	 -0.775228	 0.000056	 -0.739966
H	 -1.828816	 0.614094	 -2.314968
H	 -0.733739	 1.833397	 -1.690902
C	 0.406133	 -0.000384	 0.036994
C	 1.526415	 -0.003194	 -0.997339
C	 0.498772	 1.259027	 0.900673
C	 0.495883	 -1.257378	 0.904465
H	 1.452279	 0.872071	 -1.630204
H	 1.451276	 -0.881020	 -1.626529
H	 2.497919	 -0.002741	 -0.517601
H	 0.368981	 2.144239	 0.289753
H	 1.470064	 1.313479	 1.377660
H	 -0.248448	 1.271586	 1.684297
H	 0.363971	 -2.144195	 0.296316
H	 1.467114	 -1.312636	 1.381470
H	 -0.251246	 -1.265768	 1.688235

	symmetry c1
}
set optking {
	frozen_dihedral = ("
		2 3 6 7
	")
}

ee = optimize('scf')
oeprop('DIPOLE', 'QUADRUPOLE', 'MULLIKEN_CHARGES')
f=open( 'psi4out.xyz', 'w' )
f.write( "18  " )
f.write( str(ee) + "\n" )
f.write( MOL.save_string_xyz() )
f.close()
--------------------------------------------------------------------------

    Molecular point group: c1
  Charge       = 0
  Multiplicity = 1
  Basis Set: CC-PVTZ
  Basis Set:
  @DF-RHF Final Energy:  -271.26541068097316
    Total Energy =                       -271.2654106809728773
    Molecular point group: c1
  Basis Set: CC-PVTZ
  Basis Set:
  Basis Set: CC-PVTZ
  Basis Set:
  @DF-RHF Final Energy:  -271.27072229701497
    Total Energy =                       -271.2707222970149701
  Basis Set: CC-PVTZ
  Basis Set:
  Basis Set: CC-PVTZ
  Basis Set:
  @DF-RHF Final Energy:  -271.27532991851524
    Total Energy =                       -271.2753299185152400
  Basis Set: CC-PVTZ
  Basis Set:
  Basis Set: CC-PVTZ
  Basis Set:
  @DF-RHF Final Energy:  -271.27591345212250
    Total Energy =                       -271.2759134521226656
  Basis Set: CC-PVTZ
  Basis Set:
  Basis Set: CC-PVTZ
  Basis Set:
  @DF-RHF Final Energy:  -271.27598420974635
    Total Energy =                       -271.2759842097461274
  Basis Set: CC-PVTZ
  Basis Set:
  Basis Set: CC-PVTZ
  Basis Set:
  @DF-RHF Final Energy:  -271.27602738454948
    Total Energy =                       -271.2760273845493657
  Basis Set: CC-PVTZ
  Basis Set:
  Basis Set: CC-PVTZ
  Basis Set:
  @DF-RHF Final Energy:  -271.27603055641907
    Total Energy =                       -271.2760305564187320
  Basis Set: CC-PVTZ
  Basis Set:
  Charge       = 0
  Multiplicity = 1
  Basis Set: CC-PVTZ
  Basis Set:

    Orbital Energies (a.u.)
    -----------------------

    Doubly Occupied:

       1A    -20.539873     2A    -11.280239     3A    -11.258775
       4A    -11.209669     5A    -11.204524     6A    -11.202127
       7A     -1.372882     8A     -1.074796     9A     -0.949450
      10A     -0.938248    11A     -0.913111    12A     -0.753188
      13A     -0.657245    14A     -0.647400    15A     -0.639826
      16A     -0.590376    17A     -0.575262    18A     -0.552745
      19A     -0.535425    20A     -0.526215    21A     -0.515411
      22A     -0.491000    23A     -0.486801    24A     -0.442478
      25A     -0.404454

  @DF-RHF Final Energy:  -271.27603097161312

   => Energetics <=

    Nuclear Repulsion Energy =            272.6665452116704387
    One-Electron Energy =                -908.3621058528605090
    Two-Electron Energy =                 364.4195296695768320
    DFT Exchange-Correlation Energy =       0.0000000000000000
    Empirical Dispersion Energy =           0.0000000000000000
    PCM Polarization Energy =               0.0000000000000000
    EFP Energy =                            0.0000000000000000
    Total Energy =                       -271.2760309716131815
    Molecular point group: c1
  Basis Set: CC-PVTZ
  Basis Set:

  -Total Gradient:
     Atom            X                  Y                   Z
    ------   -----------------  -----------------  -----------------
       1       -0.000006094910     0.000004399286    -0.000002789982
       2        0.000695786707    -0.001724866418    -0.001204644213
       3       -0.001063980256     0.003331056977     0.001772077472
       4        0.000001623035    -0.000005692073     0.000009619529
       5        0.000002575797     0.000004470957     0.000004891382
       6        0.000347324286    -0.003507490830    -0.000553606246
       7        0.000017602865     0.001889021027    -0.000008909725
       8        0.000003430895    -0.000015320681    -0.000022322299
       9       -0.000005789785     0.000012161072     0.000000738926
      10        0.000003538841     0.000010049714     0.000010328442
      11       -0.000017396944     0.000004830764     0.000005522985
      12        0.000009092903    -0.000008859729    -0.000006723857
      13       -0.000004507772     0.000001175585    -0.000004619578
      14        0.000009635166     0.000004322581     0.000006922618
      15        0.000002179705    -0.000012487976    -0.000011253227
      16       -0.000014041101     0.000016337701    -0.000001084134
      17        0.000013356133    -0.000005698643    -0.000001361445
      18        0.000005664430     0.000002590686     0.000007213349

  **** Optimization is complete! (in 8 steps) ****
    Final optimized geometry and variables:
    Molecular point group: c1

    Geometry (in Angstrom), charge = 0, multiplicity = 1:

    H           -0.602937604464     0.200986018398    -2.361381563283
    C           -1.180694944187     0.589747807785    -1.529717890288
    O           -0.996728602732    -0.149931347585    -0.367141998058
    H           -2.229135320107     0.518523696664    -1.782613554627
    H           -0.935937178346     1.640415941937    -1.400704302728
    C            0.248630953804    -0.116232930527     0.305608997344
    C            1.435919206923    -0.127861477378    -0.658130110731
    C            0.303003408209     1.128287334575     1.194294739751
    C            0.255896673324    -1.375488707207     1.163712525561
    H            1.496159384536     0.781301300298    -1.242658376728
    H            1.374955748501    -0.969795107539    -1.337704263551
    H            2.357682185068    -0.216946053644    -0.096564414845
    H            0.261179265175     2.036594242688     0.604941576401
    H            1.220542524981     1.151572292865     1.771103561884
    H           -0.534592355862     1.132038894639     1.880427835395
    H            0.225065524754    -2.258083568275     0.537076795915
    H            1.145246834315    -1.419564926824     1.781472187639
    H           -0.613468041913    -1.389774864537     1.808523271640

  Mulliken Charges: (a.u.)
   Center  Symbol    Alpha    Beta     Spin     Total
       1     H     0.46686  0.46686  0.00000  0.06627
       2     C     3.04398  3.04398  0.00000 -0.08796
       3     O     4.19288  4.19288  0.00000 -0.38577
       4     H     0.44190  0.44190  0.00000  0.11621
       5     H     0.47030  0.47030  0.00000  0.05940
       6     C     2.87432  2.87432  0.00000  0.25136
       7     C     3.17209  3.17209  0.00000 -0.34419
       8     C     3.15285  3.15285  0.00000 -0.30571
       9     C     3.14121  3.14121  0.00000 -0.28243
      10     H     0.44604  0.44604  0.00000  0.10793
      11     H     0.44504  0.44504  0.00000  0.10992
      12     H     0.44492  0.44492  0.00000  0.11017
      13     H     0.44998  0.44998  0.00000  0.10005
      14     H     0.45245  0.45245  0.00000  0.09510
      15     H     0.44777  0.44777  0.00000  0.10445
      16     H     0.45066  0.45066  0.00000  0.09869
      17     H     0.45920  0.45920  0.00000  0.08161
      18     H     0.44755  0.44755  0.00000  0.10490

   Total alpha = 25.00000, Total beta = 25.00000, Total charge = -0.00000
