  ==> Input File <==

--------------------------------------------------------------------------
set {
	reference rhf
	basis 6-31G*
}

set_num_threads( 4 )
memory 2 gb

molecule MOL {
0 1

H	 -0.931892	 -2.293813	 0.938575
N	 -0.164467	 -1.660289	 0.823746
C	 -0.563778	 -0.502042	 0.037919
H	 0.562794	 -2.167930	 0.356683
C	 0.575259	 0.508231	 -0.048326
H	 -1.412605	 -0.042072	 0.535027
H	 -0.894590	 -0.760241	 -0.971359
C	 1.954651	 -0.143624	 0.035137
H	 0.475158	 1.060484	 -0.977307
H	 0.469181	 1.234488	 0.755973
H	 2.103292	 -0.853109	 -0.774172
H	 2.742821	 0.599562	 -0.030094
H	 2.083613	 -0.679371	 0.971560

	symmetry c1
}
set optking {
	frozen_dihedral = ("
		6 3 5 9
	")
}

ee = optimize('scf')
oeprop('DIPOLE', 'QUADRUPOLE', 'MULLIKEN_CHARGES')
f=open( 'psi4out.xyz', 'w' )
f.write( "13  " )
f.write( str(ee) + "\n" )
f.write( MOL.save_string_xyz() )
f.close()
--------------------------------------------------------------------------

    Molecular point group: c1
  Charge       = 0
  Multiplicity = 1
  Basis Set: 6-31G*
  Basis Set:
  @DF-RHF Final Energy:  -173.27497760677520
    Total Energy =                       -173.2749776067751384
    Molecular point group: c1
  Basis Set: 6-31G*
  Basis Set:
  Basis Set: 6-31G*
  Basis Set:
  @DF-RHF Final Energy:  -173.27551411759279
    Total Energy =                       -173.2755141175927633
  Basis Set: 6-31G*
  Basis Set:
  Basis Set: 6-31G*
  Basis Set:
  @DF-RHF Final Energy:  -173.27692381329371
    Total Energy =                       -173.2769238132937346
  Basis Set: 6-31G*
  Basis Set:
  Basis Set: 6-31G*
  Basis Set:
  @DF-RHF Final Energy:  -173.27700922668612
    Total Energy =                       -173.2770092266862321
  Basis Set: 6-31G*
  Basis Set:
  Basis Set: 6-31G*
  Basis Set:
  @DF-RHF Final Energy:  -173.27701114803546
    Total Energy =                       -173.2770111480354274
  Basis Set: 6-31G*
  Basis Set:
  Basis Set: 6-31G*
  Basis Set:
  @DF-RHF Final Energy:  -173.27701909967965
    Total Energy =                       -173.2770190996795350
  Basis Set: 6-31G*
  Basis Set:
  Charge       = 0
  Multiplicity = 1
  Basis Set: 6-31G*
  Basis Set:

    Orbital Energies (a.u.)
    -----------------------

    Doubly Occupied:

       1A    -15.532105     2A    -11.240906     3A    -11.212045
       4A    -11.204352     5A     -1.175891     6A     -1.027094
       7A     -0.907024     8A     -0.784949     9A     -0.668834
      10A     -0.640460    11A     -0.578110    12A     -0.560246
      13A     -0.545007    14A     -0.484329    15A     -0.476264
      16A     -0.465888    17A     -0.379513

  @DF-RHF Final Energy:  -173.27701952422979

   => Energetics <=

    Nuclear Repulsion Energy =            134.1306232159974456
    One-Electron Energy =                -499.0492512291776848
    Two-Electron Energy =                 191.6416084889505385
    DFT Exchange-Correlation Energy =       0.0000000000000000
    Empirical Dispersion Energy =           0.0000000000000000
    PCM Polarization Energy =               0.0000000000000000
    EFP Energy =                            0.0000000000000000
    Total Energy =                       -173.2770195242297007
    Molecular point group: c1
  Basis Set: 6-31G*
  Basis Set:

  -Total Gradient:
     Atom            X                  Y                   Z
    ------   -----------------  -----------------  -----------------
       1       -0.000001464562     0.000010435571    -0.000003374061
       2       -0.000005599096     0.000024742245    -0.000012215064
       3       -0.001717780076     0.001615723531    -0.007746059423
       4        0.000000532115     0.000008224845    -0.000004265290
       5       -0.004181012316     0.004790636963     0.004920628372
       6        0.002096373653    -0.002128134916     0.005799517983
       7       -0.000002743555    -0.000003960032    -0.000000135764
       8       -0.000011743410     0.000002229423     0.000005631458
       9        0.003818797354    -0.004320747972    -0.002963476029
      10        0.000007272733    -0.000002574565    -0.000000271886
      11       -0.000006247326     0.000002011618     0.000001030949
      12       -0.000000013619     0.000002856459    -0.000001874060
      13        0.000003628105    -0.000001443172     0.000004862815

  **** Optimization is complete! (in 7 steps) ****
    Final optimized geometry and variables:
    Molecular point group: c1

    Geometry (in Angstrom), charge = 0, multiplicity = 1:

    H           -1.487662043833    -1.756502153869     0.774572098317
    N           -0.671757847928    -1.194653680295     0.627046358420
    C           -1.001033101811    -0.037028833427    -0.199101345084
    H            0.002802286049    -1.781403798223     0.175991132940
    C            0.139623576815     0.996171749284    -0.232192748419
    H           -1.863226453444     0.415460271048     0.278296435422
    H           -1.282470301770    -0.310795985939    -1.216705937139
    C            1.545763693741     0.389498660164    -0.203570481427
    H            0.058814411185     1.560336365016    -1.157922950965
    H            0.035746089779     1.688063444046     0.596682242355
    H            1.698544525213    -0.299673967026    -1.031557921981
    H            2.294192000950     1.170746463291    -0.292681567500
    H            1.728410474276    -0.145338156375     0.720148461213

  Mulliken Charges: (a.u.)
   Center  Symbol    Alpha    Beta     Spin     Total
       1     H     0.33223  0.33223  0.00000  0.33554
       2     N     3.92349  3.92349  0.00000 -0.84698
       3     C     3.06532  3.06532  0.00000 -0.13065
       4     H     0.33323  0.33323  0.00000  0.33354
       5     C     3.14910  3.14910  0.00000 -0.29820
       6     H     0.41875  0.41875  0.00000  0.16250
       7     H     0.43220  0.43220  0.00000  0.13561
       8     C     3.24818  3.24818  0.00000 -0.49635
       9     H     0.42436  0.42436  0.00000  0.15127
      10     H     0.41746  0.41746  0.00000  0.16509
      11     H     0.42817  0.42817  0.00000  0.14366
      12     H     0.41960  0.41960  0.00000  0.16080
      13     H     0.40791  0.40791  0.00000  0.18417

   Total alpha = 17.00000, Total beta = 17.00000, Total charge = -0.00000
