                              Psi4 1.0.54 Driver

  ==> Input File <==

--------------------------------------------------------------------------
set {
	reference rhf
	basis cc-pvtz
}

set_num_threads( 4 )
memory 2 gb

molecule MOL {
0 1

H	 -2.839809	 -1.921784	 2.845156
C	 -2.657397	 -1.368892	 1.946632
C	 -1.488483	 -1.457754	 1.360892
H	 -3.441295	 -0.755625	 1.547626
O	 -1.189946	 -0.765863	 0.237511
H	 -0.698724	 -2.075818	 1.747422
C	 0.026572	 -0.995256	 -0.379403
C	 1.057223	 0.049888	 -0.004615
H	 -0.054361	 -1.010670	 -1.459674
H	 0.397526	 -1.952058	 -0.044198
F	 2.203233	 -0.234060	 -0.590375
F	 0.698147	 1.254887	 -0.392621
F	 1.266440	 0.094219	 1.288722

	symmetry c1
}
set optking {
	frozen_dihedral = ("
		3 5 7 9
	")
}

ee,wfn = optimize('scf', return_wfn=True)
oeprop( wfn, 'DIPOLE', 'QUADRUPOLE', 'MULLIKEN_CHARGES')
f=open( 'psi4out.xyz', 'w' )
f.write( "13  " )
f.write( str(ee) + "\n" )
f.write( MOL.save_string_xyz() )
f.close()
--------------------------------------------------------------------------

    Molecular point group: c1
  Charge       = 0
  Multiplicity = 1
  Basis Set: CC-PVTZ
  Basis Set:
  @DF-RHF Final Energy:  -527.74055697821268
    Total Energy =                       -527.7405569782126804
    Molecular point group: c1
  Basis Set: CC-PVTZ
  Basis Set:
  Basis Set: CC-PVTZ
  Basis Set:
  @DF-RHF Final Energy:  -527.74152344801269
    Total Energy =                       -527.7415234480129129
  Basis Set: CC-PVTZ
  Basis Set:
  Basis Set: CC-PVTZ
  Basis Set:
  @DF-RHF Final Energy:  -527.74187159392955
    Total Energy =                       -527.7418715939295453
  Basis Set: CC-PVTZ
  Basis Set:
  Basis Set: CC-PVTZ
  Basis Set:
  @DF-RHF Final Energy:  -527.74188052798922
    Total Energy =                       -527.7418805279891103
  Basis Set: CC-PVTZ
  Basis Set:
  Basis Set: CC-PVTZ
  Basis Set:
  @DF-RHF Final Energy:  -527.74188344465460
    Total Energy =                       -527.7418834446546043
  Basis Set: CC-PVTZ
  Basis Set:
  Charge       = 0
  Multiplicity = 1
  Basis Set: CC-PVTZ
  Basis Set:

    Orbital Energies (a.u.)
    -----------------------

    Doubly Occupied:

       1A    -26.341565     2A    -26.339850     3A    -26.337740
       4A    -20.603979     5A    -11.497592     6A    -11.320255
       7A    -11.299628     8A    -11.214241     9A     -1.750067
      10A     -1.646551    11A     -1.644989    12A     -1.444882
      13A     -1.089126    14A     -1.020347    15A     -0.931958
      16A     -0.844045    17A     -0.839430    18A     -0.824238
      19A     -0.800940    20A     -0.729621    21A     -0.719254
      22A     -0.705199    23A     -0.681987    24A     -0.667357
      25A     -0.661192    26A     -0.650502    27A     -0.638518
      28A     -0.588581    29A     -0.566206    30A     -0.531068
      31A     -0.518036    32A     -0.356728

  @DF-RHF Final Energy:  -527.74188402526056

   => Energetics <=

    Nuclear Repulsion Energy =            411.9761885841435287
    One-Electron Energy =               -1547.8247959877946869
    Two-Electron Energy =                 608.1067233783904840
    DFT Exchange-Correlation Energy =       0.0000000000000000
    Empirical Dispersion Energy =           0.0000000000000000
    PCM Polarization Energy =               0.0000000000000000
    EFP Energy =                            0.0000000000000000
    Total Energy =                       -527.7418840252606742
    Molecular point group: c1
  Basis Set: CC-PVTZ
  Basis Set:

  -Total Gradient:
     Atom            X                  Y                   Z
    ------   -----------------  -----------------  -----------------
       1       -0.000014056646    -0.000017654848    -0.000001180594
       2       -0.000019622233    -0.000018962472     0.000005379864
       3       -0.000295094527    -0.000420770751    -0.000405131038
       4       -0.000032825987     0.000015728647    -0.000012455612
       5        0.000436330243     0.000516354339     0.000695610529
       6        0.000019476730    -0.000033017692    -0.000003045450
       7        0.000061976980     0.000752569180    -0.000275596694
       8       -0.000048643620     0.000152183190    -0.000135482810
       9       -0.000195493975    -0.000837360734    -0.000050869127
      10       -0.000016154255     0.000000912253     0.000019258867
      11       -0.000005327224     0.000036153465     0.000002700758
      12        0.000071679811    -0.000163072285     0.000041924742
      13        0.000037754702     0.000016937712     0.000118886562

  **** Optimization is complete! (in 6 steps) ****
    Final optimized geometry and variables:
    Molecular point group: c1

    Geometry (in Angstrom), charge = 0, multiplicity = 1:

    H           -3.104854693605    -1.384345322160     2.421561866806
    C           -2.857937263459    -0.820116703724     1.545762056532
    C           -1.702515242756    -1.014932741593     0.958287007234
    H           -3.563718679524    -0.102690562636     1.175538749940
    O           -1.331293252606    -0.333193508748    -0.148121394057
    H           -0.985700844089    -1.726248885861     1.326441544262
    C           -0.132169315905    -0.654720446984    -0.759269210283
    C            0.949224909721     0.340789245359    -0.396926238720
    H           -0.268946821202    -0.625489992601    -1.830445987028
    H            0.220855416216    -1.640627280403    -0.483726228655
    F            2.070276797766     0.016833091092    -1.009626452068
    F            0.635686824140     1.562778316419    -0.752380683007
    F            1.187906871620     0.348942671265     0.896942714611

  Mulliken Charges: (a.u.)
   Center  Symbol    Alpha    Beta     Spin     Total
       1     H     0.42501  0.42501  0.00000  0.14999
       2     C     3.19851  3.19851  0.00000 -0.39702
       3     C     2.95917  2.95917  0.00000  0.08166
       4     H     0.42473  0.42473  0.00000  0.15053
       5     O     4.14444  4.14444  0.00000 -0.28889
       6     H     0.43485  0.43485  0.00000  0.13029
       7     C     3.01560  3.01560  0.00000 -0.03120
       8     C     2.67531  2.67531  0.00000  0.64939
       9     H     0.43654  0.43654  0.00000  0.12693
      10     H     0.45633  0.45633  0.00000  0.08735
      11     F     4.61272  4.61272  0.00000 -0.22545
      12     F     4.60647  4.60647  0.00000 -0.21294
      13     F     4.61032  4.61032  0.00000 -0.22065

   Total alpha = 32.00000, Total beta = 32.00000, Total charge = -0.00000

*** Psi4 exiting successfully. Buy a developer a beer!
