  ==> Input File <==

--------------------------------------------------------------------------
set {
	reference rhf
	basis 6-31G*
}

set_num_threads( 1 )
memory 2 gb

molecule MOL {
0 1

H	 -3.420663	 1.227371	 -1.044276
O	 -3.452007	 0.283848	 -0.965577
C	 -3.181085	 -0.079926	 0.364119
C	 -1.765924	 0.277073	 0.805136
H	 -3.327791	 -1.152017	 0.410903
H	 -3.905698	 0.375695	 1.036898
C	 -0.677594	 -0.417312	 -0.014550
H	 -1.637766	 1.358238	 0.744969
H	 -1.659588	 0.017670	 1.857098
C	 0.738335	 -0.034840	 0.421385
H	 -0.814977	 -0.178223	 -1.064632
H	 -0.802730	 -1.495410	 0.071702
C	 1.482534	 0.786938	 -0.634519
H	 0.683038	 0.521463	 1.354063
H	 1.307022	 -0.938307	 0.638057
C	 2.936802	 1.119253	 -0.281209
H	 0.938408	 1.711794	 -0.819624
H	 1.472790	 0.237300	 -1.573465
C	 3.102263	 2.049466	 0.922008
H	 3.403838	 1.583234	 -1.146593
H	 3.483256	 0.195541	 -0.101356
H	 2.555573	 2.977295	 0.775706
H	 4.147206	 2.303088	 1.072366
H	 2.743297	 1.595093	 1.839533

	symmetry c1
}
set optking {
	frozen_dihedral = ("
		20 16 13 17,
		17 13 10 7,
		11 7 4 3,
		1 2 3 5,
		7 4 3 2
	")
}

ee = energy('scf')
oeprop('DIPOLE', 'QUADRUPOLE', 'MULLIKEN_CHARGES')
f=open( 'psi4out.xyz', 'w' )
f.write( "24  " )
f.write( str(ee) + "\n" )
f.write( MOL.save_string_xyz() )
f.close()
--------------------------------------------------------------------------

    Molecular point group: c1

    Geometry (in Angstrom), charge = 0, multiplicity = 1:

       Center              X                  Y                   Z               Mass
    ------------   -----------------  -----------------  -----------------  -----------------
           H         -3.262335975978     0.716101415748    -1.109959445573     1.007825032070
           O         -3.293679975978    -0.227421584252    -1.031260445573    15.994914619560
           C         -3.022757975978    -0.591195584252     0.298435554427    12.000000000000
           C         -1.607596975978    -0.234196584252     0.739452554427    12.000000000000
           H         -3.169463975978    -1.663286584252     0.345219554427     1.007825032070
           H         -3.747370975978    -0.135574584252     0.971214554427     1.007825032070
           C         -0.519266975978    -0.928581584252    -0.080233445573    12.000000000000
           H         -1.479438975978     0.846968415748     0.679285554427     1.007825032070
           H         -1.501260975978    -0.493599584252     1.791414554427     1.007825032070
           C          0.896662024022    -0.546109584252     0.355701554427    12.000000000000
           H         -0.656649975978    -0.689492584252    -1.130315445573     1.007825032070
           H         -0.644402975978    -2.006679584252     0.006018554427     1.007825032070
           C          1.640861024022     0.275668415748    -0.700202445573    12.000000000000
           H          0.841365024022     0.010193415748     1.288379554427     1.007825032070
           H          1.465349024022    -1.449576584252     0.572373554427     1.007825032070
           C          3.095129024022     0.607983415748    -0.346892445573    12.000000000000
           H          1.096735024022     1.200524415748    -0.885307445573     1.007825032070
           H          1.631117024022    -0.273969584252    -1.639148445573     1.007825032070
           C          3.260590024022     1.538196415748     0.856324554427    12.000000000000
           H          3.562165024022     1.071964415748    -1.212276445573     1.007825032070
           H          3.641583024022    -0.315728584252    -0.167039445573     1.007825032070
           H          2.713900024022     2.466025415748     0.710022554427     1.007825032070
           H          4.305533024022     1.791818415748     1.006682554427     1.007825032070
           H          2.901624024022     1.083823415748     1.773849554427     1.007825032070

  Charge       = 0
  Multiplicity = 1
  Basis Set: 6-31G*
  Basis Set:

    Orbital Energies (a.u.)
    -----------------------

    Doubly Occupied:

       1A    -20.553416     2A    -11.267220     3A    -11.217723
       4A    -11.214074     5A    -11.212625     6A    -11.210727
       7A    -11.209515     8A    -11.207865     9A     -1.359967
      10A     -1.089169    11A     -1.047883    12A     -0.985311
      13A     -0.915143    14A     -0.850925    15A     -0.803116
      16A     -0.775828    17A     -0.680137    18A     -0.641150
      19A     -0.633287    20A     -0.615084    21A     -0.601095
      22A     -0.587693    23A     -0.559002    24A     -0.539716
      25A     -0.517119    26A     -0.510779    27A     -0.496465
      28A     -0.477512    29A     -0.466555    30A     -0.459481
      31A     -0.453003    32A     -0.446309    33A     -0.418446

  @DF-RHF Final Energy:  -349.24207938832382

   => Energetics <=

    Nuclear Repulsion Energy =            387.8149261810215762
    One-Electron Energy =               -1242.0673539125718889
    Two-Electron Energy =                 505.0103483432262124
    DFT Exchange-Correlation Energy =       0.0000000000000000
    Empirical Dispersion Energy =           0.0000000000000000
    PCM Polarization Energy =               0.0000000000000000
    EFP Energy =                            0.0000000000000000
    Total Energy =                       -349.2420793883241572

  Mulliken Charges: (a.u.)
   Center  Symbol    Alpha    Beta     Spin     Total
       1     H     0.28341  0.28341  0.00000  0.43318
       2     O     4.36827  4.36827  0.00000 -0.73654
       3     C     2.99659  2.99659  0.00000  0.00681
       4     C     3.17115  3.17115  0.00000 -0.34230
       5     H     0.41632  0.41632  0.00000  0.16735
       6     H     0.42841  0.42841  0.00000  0.14318
       7     C     3.15512  3.15512  0.00000 -0.31024
       8     H     0.42802  0.42802  0.00000  0.14395
       9     H     0.42184  0.42184  0.00000  0.15631
      10     C     3.15704  3.15704  0.00000 -0.31408
      11     H     0.40913  0.40913  0.00000  0.18174
      12     H     0.42111  0.42111  0.00000  0.15779
      13     C     3.15407  3.15407  0.00000 -0.30815
      14     H     0.42047  0.42047  0.00000  0.15907
      15     H     0.42145  0.42145  0.00000  0.15710
      16     C     3.15282  3.15282  0.00000 -0.30564
      17     H     0.42607  0.42607  0.00000  0.14785
      18     H     0.42042  0.42042  0.00000  0.15917
      19     C     3.24096  3.24096  0.00000 -0.48193
      20     H     0.42136  0.42136  0.00000  0.15729
      21     H     0.42323  0.42323  0.00000  0.15354
      22     H     0.42316  0.42316  0.00000  0.15369
      23     H     0.41938  0.41938  0.00000  0.16123
      24     H     0.42019  0.42019  0.00000  0.15962

   Total alpha = 33.00000, Total beta = 33.00000, Total charge =  0.00000
