  ==> Input File <==

--------------------------------------------------------------------------
set {
	reference rhf
	basis cc-pvtz
}

set_num_threads( 4 )
memory 2 gb

molecule MOL {
0 1

H	 2.301515	 0.774395	 -1.172622
O	 1.440530	 0.387750	 -1.226892
C	 1.050374	 0.054877	 0.000135
C	 -0.318151	 -0.570512	 0.000144
O	 1.728722	 0.245365	 0.949622
C	 -1.454884	 0.441630	 -0.000560
H	 -0.371613	 -1.223646	 -0.864985
H	 -0.371920	 -1.222758	 0.865929
C	 -2.822577	 -0.232186	 0.000063
H	 -1.359760	 1.084704	 -0.867077
H	 -1.359641	 1.085996	 0.864983
H	 -2.954352	 -0.858985	 -0.875745
H	 -3.615886	 0.505352	 0.000019
H	 -2.953878	 -0.858359	 0.876394

	symmetry c1
}
set optking {
	frozen_dihedral = ("
		2 3 4 7
	")
}

ee = optimize('scf')
oeprop('DIPOLE', 'QUADRUPOLE', 'MULLIKEN_CHARGES')
f=open( 'psi4out.xyz', 'w' )
f.write( "14  " )
f.write( str(ee) + "\n" )
f.write( MOL.save_string_xyz() )
f.close()
--------------------------------------------------------------------------

    Molecular point group: c1
  Charge       = 0
  Multiplicity = 1
  Basis Set: CC-PVTZ
  Basis Set:
  @DF-RHF Final Energy:  -305.99904512948137
    Total Energy =                       -305.9990451294811464
    Molecular point group: c1
  Basis Set: CC-PVTZ
  Basis Set:
  Basis Set: CC-PVTZ
  Basis Set:
  @DF-RHF Final Energy:  -305.99952390459100
    Total Energy =                       -305.9995239045911148
  Basis Set: CC-PVTZ
  Basis Set:
  Basis Set: CC-PVTZ
  Basis Set:
  @DF-RHF Final Energy:  -305.99858773931652
    Total Energy =                       -305.9985877393167470
  Basis Set: CC-PVTZ
  Basis Set:
  Basis Set: CC-PVTZ
  Basis Set:
  @DF-RHF Final Energy:  -305.99972134750919
    Total Energy =                       -305.9997213475090234
  Basis Set: CC-PVTZ
  Basis Set:
  Basis Set: CC-PVTZ
  Basis Set:
  @DF-RHF Final Energy:  -305.99972683345237
    Total Energy =                       -305.9997268334522005
  Basis Set: CC-PVTZ
  Basis Set:
  Charge       = 0
  Multiplicity = 1
  Basis Set: CC-PVTZ
  Basis Set:

    Orbital Energies (a.u.)
    -----------------------

    Doubly Occupied:

       1A    -20.605106     2A    -20.539051     3A    -11.372639
       4A    -11.238067     5A    -11.234281     6A    -11.219500
       7A     -1.477377     8A     -1.368169     9A     -1.087882
      10A     -0.980953    11A     -0.852759    12A     -0.811727
      13A     -0.706183    14A     -0.688596    15A     -0.642727
      16A     -0.640134    17A     -0.596578    18A     -0.568460
      19A     -0.554427    20A     -0.519532    21A     -0.501083
      22A     -0.489813    23A     -0.476082    24A     -0.441362

  @DF-RHF Final Energy:  -305.99972696537827

   => Energetics <=

    Nuclear Repulsion Energy =            240.9152238468626592
    One-Electron Energy =                -894.6049270632522621
    Two-Electron Energy =                 347.6899762510112168
    DFT Exchange-Correlation Energy =       0.0000000000000000
    Empirical Dispersion Energy =           0.0000000000000000
    PCM Polarization Energy =               0.0000000000000000
    EFP Energy =                            0.0000000000000000
    Total Energy =                       -305.9997269653783860
    Molecular point group: c1
  Basis Set: CC-PVTZ
  Basis Set:

  -Total Gradient:
     Atom            X                  Y                   Z
    ------   -----------------  -----------------  -----------------
       1       -0.000005059637     0.000004873788     0.000002301621
       2        0.000094201558    -0.000168858199    -0.000068071582
       3       -0.000111424956     0.000268804998     0.000070581594
       4        0.000122427606    -0.000260420689     0.000157373769
       5       -0.000018933449    -0.000010733740    -0.000024409066
       6        0.000021328102    -0.000007045913    -0.000026236106
       7       -0.000088171096     0.000190907690    -0.000111830586
       8        0.000000603286    -0.000008751854    -0.000000723007
       9       -0.000016890633    -0.000008518061     0.000007149191
      10       -0.000002690188     0.000007758825    -0.000002613905
      11        0.000004841983    -0.000009065177    -0.000004825402
      12        0.000000740002     0.000002519093     0.000001357495
      13       -0.000002157136     0.000000814136     0.000002729281
      14        0.000001184553    -0.000002284898    -0.000002783291

  **** Optimization is complete! (in 6 steps) ****
    Final optimized geometry and variables:
    Molecular point group: c1

    Geometry (in Angstrom), charge = 0, multiplicity = 1:

    H            2.296776030215     0.790328377697    -1.082356875802
    O            1.457919613865     0.360109717565    -1.154550350199
    C            1.074994891376    -0.021346789964     0.060678503414
    C           -0.278411989724    -0.676561872104     0.059641926648
    O            1.740845512529     0.170515918516     1.019318459897
    C           -1.402959039929     0.366369749251     0.046642646637
    H           -0.359851941623    -1.314504754313    -0.811500254800
    H           -0.343371452995    -1.286368730808     0.949423580602
    C           -2.783001656162    -0.280173256213     0.068057214523
    H           -1.304042442897     0.988905370525    -0.835332079492
    H           -1.290809044963     1.016926326476     0.907158500672
    H           -2.931207774072    -0.915776046557    -0.798178274094
    H           -3.561733277252     0.472885806718     0.063956019151
    H           -2.915743196234    -0.890258259511     0.954711273455

  Mulliken Charges: (a.u.)
   Center  Symbol    Alpha    Beta     Spin     Total
       1     H     0.38031  0.38031  0.00000  0.23938
       2     O     4.16413  4.16413  0.00000 -0.32827
       3     C     2.80466  2.80466  0.00000  0.39069
       4     C     3.08705  3.08705  0.00000 -0.17410
       5     O     4.19678  4.19678  0.00000 -0.39357
       6     C     3.09445  3.09445  0.00000 -0.18889
       7     H     0.44351  0.44351  0.00000  0.11298
       8     H     0.43757  0.43757  0.00000  0.12486
       9     C     3.14978  3.14978  0.00000 -0.29956
      10     H     0.44516  0.44516  0.00000  0.10968
      11     H     0.44452  0.44452  0.00000  0.11096
      12     H     0.45374  0.45374  0.00000  0.09251
      13     H     0.44567  0.44567  0.00000  0.10865
      14     H     0.45266  0.45266  0.00000  0.09469

   Total alpha = 24.00000, Total beta = 24.00000, Total charge = -0.00000
