                              Psi4 1.0.54 Driver

  ==> Input File <==

--------------------------------------------------------------------------
set {
	reference rhf
	basis cc-pvtz
}

set_num_threads( 4 )
memory 2 gb

molecule MOL {
0 1

O	 -2.817697	 1.304178	 0.001046
C	 -2.664672	 0.129869	 0.003507
C	 -3.797908	 -0.860100	 -0.001145
O	 -1.481217	 -0.452708	 0.001092
H	 -4.408836	 -0.679689	 -0.875387
H	 -3.443486	 -1.878443	 -0.002770
H	 -4.412123	 -0.683688	 0.871605
C	 -0.332055	 0.384012	 -0.000250
C	 0.892252	 -0.506059	 -0.000295
H	 -0.360822	 1.020205	 -0.874146
H	 -0.359817	 1.021310	 0.872861
C	 1.094574	 -1.204757	 -1.341656
H	 0.791577	 -1.242918	 0.790005
H	 1.763745	 0.094225	 0.240171
C	 2.324450	 -2.108061	 -1.365588
H	 0.213238	 -1.795236	 -1.579476
H	 1.183303	 -0.459938	 -2.128641
C	 2.527659	 -2.805536	 -2.706201
H	 2.236132	 -2.853880	 -0.580724
H	 3.205830	 -1.519064	 -1.128229
H	 1.676417	 -3.430098	 -2.955510
H	 3.407673	 -3.437840	 -2.689701
H	 2.653302	 -2.084921	 -3.507313

	symmetry c1
}
set optking {
	frozen_dihedral = ("
		13 9 8 10
	")
}

ee,wfn = optimize('scf', return_wfn=True)
oeprop( wfn, 'DIPOLE', 'QUADRUPOLE', 'MULLIKEN_CHARGES')
f=open( 'psi4out.xyz', 'w' )
f.write( "23  " )
f.write( str(ee) + "\n" )
f.write( MOL.save_string_xyz() )
f.close()
--------------------------------------------------------------------------

    Molecular point group: c1
  Charge       = 0
  Multiplicity = 1
  Basis Set: CC-PVTZ
  Basis Set:
  @DF-RHF Final Energy:  -423.13416674769672
    Total Energy =                       -423.1341667476967814
    Molecular point group: c1
  Basis Set: CC-PVTZ
  Basis Set:
  Basis Set: CC-PVTZ
  Basis Set:
  @DF-RHF Final Energy:  -423.13412535106596
    Total Energy =                       -423.1341253510657907
  Basis Set: CC-PVTZ
  Basis Set:
  Basis Set: CC-PVTZ
  Basis Set:
  @DF-RHF Final Energy:  -423.13347425229398
    Total Energy =                       -423.1334742522938086
  Basis Set: CC-PVTZ
  Basis Set:
  Basis Set: CC-PVTZ
  Basis Set:
  @DF-RHF Final Energy:  -423.13436743739931
    Total Energy =                       -423.1343674373993053
  Basis Set: CC-PVTZ
  Basis Set:
  Basis Set: CC-PVTZ
  Basis Set:
  @DF-RHF Final Energy:  -423.13437282735276
    Total Energy =                       -423.1343728273532179
  Basis Set: CC-PVTZ
  Basis Set:
  Basis Set: CC-PVTZ
  Basis Set:
  @DF-RHF Final Energy:  -423.13438013510648
    Total Energy =                       -423.1343801351068805
  Basis Set: CC-PVTZ
  Basis Set:
  Charge       = 0
  Multiplicity = 1
  Basis Set: CC-PVTZ
  Basis Set:

    Orbital Energies (a.u.)
    -----------------------

    Doubly Occupied:

       1A    -20.596022     2A    -20.529715     3A    -11.366649
       4A    -11.280203     5A    -11.231085     6A    -11.223311
       7A    -11.217668     8A    -11.216606     9A    -11.209673
      10A     -1.471216    11A     -1.364115    12A     -1.093273
      13A     -1.042533    14A     -1.003649    15A     -0.931739
      16A     -0.843413    17A     -0.801265    18A     -0.779120
      19A     -0.691156    20A     -0.686028    21A     -0.669592
      22A     -0.644827    23A     -0.609091    24A     -0.586026
      25A     -0.579362    26A     -0.574251    27A     -0.560018
      28A     -0.533920    29A     -0.530411    30A     -0.508569
      31A     -0.496621    32A     -0.474666    33A     -0.469861
      34A     -0.462900    35A     -0.449138    36A     -0.440888

  @DF-RHF Final Energy:  -423.13438048742455

   => Energetics <=

    Nuclear Repulsion Energy =            458.4304100694994304
    One-Electron Energy =               -1484.7924316244184411
    Two-Electron Energy =                 603.2276410674942326
    DFT Exchange-Correlation Energy =       0.0000000000000000
    Empirical Dispersion Energy =           0.0000000000000000
    PCM Polarization Energy =               0.0000000000000000
    EFP Energy =                            0.0000000000000000
    Total Energy =                       -423.1343804874247780
    Molecular point group: c1
  Basis Set: CC-PVTZ
  Basis Set:

  -Total Gradient:
     Atom            X                  Y                   Z
    ------   -----------------  -----------------  -----------------
       1        0.000017263482    -0.000056109093    -0.000009372474
       2       -0.000033500449     0.000021353096     0.000020864015
       3        0.000008240701    -0.000000794081    -0.000041618783
       4        0.000019505256     0.000029075022     0.000036877332
       5        0.000005881131    -0.000000437022     0.000030321900
       6       -0.000007453643     0.000033481063     0.000001321888
       7        0.000014132072    -0.000009749171    -0.000004151168
       8        0.000945293242     0.001303375994     0.000773570009
       9        0.000735327981     0.000962442137     0.001110098954
      10       -0.000895017499    -0.001210010647    -0.000847771085
      11       -0.000019147861    -0.000008534754     0.000010618393
      12       -0.000001670261    -0.000013806424     0.000001160482
      13       -0.000787285395    -0.001051216024    -0.001093049075
      14       -0.000005775283     0.000003787478     0.000001511946
      15       -0.000010235675    -0.000010028701     0.000005153254
      16        0.000016212209     0.000009797998     0.000006233497
      17       -0.000003085441    -0.000012487425     0.000010101378
      18        0.000013586855     0.000005410672    -0.000010186119
      19       -0.000003166515     0.000006995887    -0.000004725821
      20       -0.000009921395    -0.000008960332    -0.000001440159
      21        0.000010129611     0.000006220509     0.000008259982
      22       -0.000007135032     0.000008714323    -0.000005313652
      23       -0.000002178099    -0.000008520501     0.000001535308

  **** Optimization is complete! (in 7 steps) ****
    Final optimized geometry and variables:
    Molecular point group: c1

    Geometry (in Angstrom), charge = 0, multiplicity = 1:

    O           -2.335689455192     1.970790786810     0.641112090503
    C           -2.180514082210     0.796746468825     0.632827913951
    C           -3.312751475801    -0.194663777509     0.635962028938
    O           -0.996187616723     0.216725855756     0.620443423435
    H           -3.929763454556    -0.014715415890    -0.234142053644
    H           -2.957629841290    -1.212779758049     0.631730976575
    H           -3.921207732305    -0.018998024982     1.512900048281
    C            0.153221632122     1.057522920840     0.617548529988
    C            1.382169495309     0.172541044783     0.572187073427
    H            0.098757413178     1.708749065154    -0.243943684987
    H            0.137610390290     1.670192089357     1.507270565358
    C            1.595632358264    -0.518423566663    -0.772427632513
    H            1.298310393267    -0.575426429602     1.354092865230
    H            2.244858393095     0.788415126383     0.808037104690
    C            2.825325622658    -1.421593342282    -0.791187249364
    H            0.715623564540    -1.103627742255    -1.019232394577
    H            1.692640230739     0.235519475031    -1.550148075984
    C            3.044761423751    -2.104530502685    -2.136829197422
    H            2.727005628135    -2.176682417878    -0.016138435250
    H            3.705377543351    -0.837079053923    -0.536451041974
    H            2.195565091232    -2.724777999612    -2.403420015678
    H            3.923712476882    -2.738370978338    -2.116693816016
    H            3.181137762863    -1.375217728858    -2.928352325027

  Mulliken Charges: (a.u.)
   Center  Symbol    Alpha    Beta     Spin     Total
       1     O     4.20275  4.20275  0.00000 -0.40550
       2     C     2.81294  2.81294  0.00000  0.37413
       3     C     3.13990  3.13990  0.00000 -0.27980
       4     O     4.14895  4.14895  0.00000 -0.29790
       5     H     0.44199  0.44199  0.00000  0.11602
       6     H     0.44233  0.44233  0.00000  0.11534
       7     H     0.44160  0.44160  0.00000  0.11681
       8     C     2.99086  2.99086  0.00000  0.01829
       9     C     3.08733  3.08733  0.00000 -0.17465
      10     H     0.45172  0.45172  0.00000  0.09656
      11     H     0.44402  0.44402  0.00000  0.11197
      12     C     3.08954  3.08954  0.00000 -0.17909
      13     H     0.45132  0.45132  0.00000  0.09736
      14     H     0.45021  0.45021  0.00000  0.09959
      15     C     3.08536  3.08536  0.00000 -0.17071
      16     H     0.44847  0.44847  0.00000  0.10305
      17     H     0.45502  0.45502  0.00000  0.08996
      18     C     3.14960  3.14960  0.00000 -0.29920
      19     H     0.45368  0.45368  0.00000  0.09264
      20     H     0.45483  0.45483  0.00000  0.09033
      21     H     0.45479  0.45479  0.00000  0.09041
      22     H     0.44802  0.44802  0.00000  0.10395
      23     H     0.45478  0.45478  0.00000  0.09045

   Total alpha = 36.00000, Total beta = 36.00000, Total charge = -0.00000

*** Psi4 exiting successfully. Buy a developer a beer!
