                              Psi4 1.0.54 Driver

  ==> Input File <==

--------------------------------------------------------------------------
set {
	reference rhf
	basis cc-pvtz
}

set_num_threads( 4 )
memory 2 gb

molecule MOL {
0 1

O	 -0.988175	 -1.402891	 0.050086
C	 -0.675048	 -0.248293	 -0.009686
C	 -1.742492	 0.826599	 -0.011538
N	 0.622280	 0.144970	 -0.099307
H	 -1.692153	 1.431066	 -0.908439
H	 -2.698310	 0.331559	 0.031353
H	 -1.642148	 1.483784	 0.843455
C	 1.223217	 0.278995	 -1.409597
C	 1.550690	 0.120366	 1.005773
H	 1.880378	 1.139965	 -1.419214
H	 0.453624	 0.409455	 -2.148439
H	 1.808654	 -0.599893	 -1.667382
H	 2.260361	 0.929766	 0.892303
H	 1.050659	 0.256110	 1.949403
H	 2.111352	 -0.810877	 1.044355

	symmetry c1
}
set optking {
	frozen_dihedral = ("
		8 4 2 3
	")
}

ee,wfn = optimize('scf', return_wfn=True)
oeprop( wfn, 'DIPOLE', 'QUADRUPOLE', 'MULLIKEN_CHARGES')
f=open( 'psi4out.xyz', 'w' )
f.write( "15  " )
f.write( str(ee) + "\n" )
f.write( MOL.save_string_xyz() )
f.close()
--------------------------------------------------------------------------

    Molecular point group: c1
  Charge       = 0
  Multiplicity = 1
  Basis Set: CC-PVTZ
  Basis Set:
  @DF-RHF Final Energy:  -286.10088826512924
    Total Energy =                       -286.1008882651292993
    Molecular point group: c1
  Basis Set: CC-PVTZ
  Basis Set:
  Basis Set: CC-PVTZ
  Basis Set:
  @DF-RHF Final Energy:  -286.10766852629268
    Total Energy =                       -286.1076685262927413
  Basis Set: CC-PVTZ
  Basis Set:
  Basis Set: CC-PVTZ
  Basis Set:
  @DF-RHF Final Energy:  -286.05433047442841
    Total Energy =                       -286.0543304744282977
  Basis Set: CC-PVTZ
  Basis Set:
  Basis Set: CC-PVTZ
  Basis Set:
  @DF-RHF Final Energy:  -286.11155638342996
    Total Energy =                       -286.1115563834298428
  Basis Set: CC-PVTZ
  Basis Set:
  @DF-RHF Final Energy:  -286.10714998866933
    Total Energy =                       -286.1071499886692209
  @DF-RHF Final Energy:  -286.11776940752645
    Total Energy =                       -286.1177694075265094
  @DF-RHF Final Energy:  -286.11888040759516
    Total Energy =                       -286.1188804075953840
  @DF-RHF Final Energy:  -286.11921244602365
    Total Energy =                       -286.1192124460234822
  @DF-RHF Final Energy:  -286.11947092083437
    Total Energy =                       -286.1194709208341465
  Basis Set: CC-PVTZ
  Basis Set:
  @DF-RHF Final Energy:  -286.11950363976490
    Total Energy =                       -286.1195036397648437
  Basis Set: CC-PVTZ
  Basis Set:
  Basis Set: CC-PVTZ
  Basis Set:
  @DF-RHF Final Energy:  -286.11955586659235
    Total Energy =                       -286.1195558665922931
  Basis Set: CC-PVTZ
  Basis Set:
  Basis Set: CC-PVTZ
  Basis Set:
  @DF-RHF Final Energy:  -286.11955905428601
    Total Energy =                       -286.1195590542860145
  Basis Set: CC-PVTZ
  Basis Set:
  Charge       = 0
  Multiplicity = 1
  Basis Set: CC-PVTZ
  Basis Set:

    Orbital Energies (a.u.)
    -----------------------

    Doubly Occupied:

       1A    -20.538327     2A    -15.562983     3A    -11.342995
       4A    -11.257713     5A    -11.242534     6A    -11.227351
       7A     -1.412779     8A     -1.235835     9A     -1.014413
      10A     -0.964652    11A     -0.900321    12A     -0.738129
      13A     -0.682412    14A     -0.660333    15A     -0.644377
      16A     -0.604878    17A     -0.584187    18A     -0.572032
      19A     -0.556363    20A     -0.537862    21A     -0.522944
      22A     -0.497783    23A     -0.428325    24A     -0.384108

  @DF-RHF Final Energy:  -286.11955923929980

   => Energetics <=

    Nuclear Repulsion Energy =            253.0728735015941879
    One-Electron Energy =                -890.1575950100930186
    Two-Electron Energy =                 350.9651622691990838
    DFT Exchange-Correlation Energy =       0.0000000000000000
    Empirical Dispersion Energy =           0.0000000000000000
    PCM Polarization Energy =               0.0000000000000000
    EFP Energy =                            0.0000000000000000
    Total Energy =                       -286.1195592392998037
    Molecular point group: c1
  Basis Set: CC-PVTZ
  Basis Set:

  -Total Gradient:
     Atom            X                  Y                   Z
    ------   -----------------  -----------------  -----------------
       1        0.000005598433     0.000024972649     0.000021927090
       2       -0.000521671048    -0.003008854484    -0.009875318447
       3        0.000176085699     0.000212955917     0.006903571739
       4        0.001007940621     0.009773001111     0.002760147169
       5        0.000001330297     0.000006844113    -0.000007839185
       6        0.000001333638     0.000000152342    -0.000006199979
       7        0.000008532072     0.000001877282     0.000004553926
       8       -0.000690409333    -0.006984446923     0.000230747671
       9        0.000024397176    -0.000030692650    -0.000045853118
      10       -0.000004762134     0.000001434885     0.000001856827
      11       -0.000002836916    -0.000005973293     0.000017075339
      12       -0.000000466870     0.000006464596     0.000001329035
      13        0.000001242624    -0.000000610669     0.000000910462
      14       -0.000006377303     0.000004985559    -0.000010027525
      15        0.000000063039    -0.000002110437     0.000003118992

  **** Optimization is complete! (in 13 steps) ****
    Final optimized geometry and variables:
    Molecular point group: c1

    Geometry (in Angstrom), charge = 0, multiplicity = 1:

    O           -1.404096733145    -0.700553081471     0.278266265922
    C           -0.664642077587     0.206626354284     0.092275742373
    C           -1.142586590127     1.635117933535     0.059634738413
    N            0.742415486380     0.058180960631     0.058480690396
    H           -0.576748458272     2.241807874383    -0.633788484339
    H           -2.195897002907     1.675782500918    -0.171732420113
    H           -0.976840066699     2.039512383959     1.051831233066
    C            1.242122123837    -0.041798798575    -1.308348679866
    C            1.202025120261    -1.076362905372     0.848365983776
    H            2.322639884376    -0.005765970838    -1.295934066164
    H            0.889291649795     0.788863377240    -1.905726264424
    H            0.929363924773    -0.967257082141    -1.787214612219
    H            2.282588488187    -1.042563794662     0.893857318182
    H            0.814817189969    -1.004405144703     1.854268060297
    H            0.895757286811    -2.031648872986     0.433763556219

  Mulliken Charges: (a.u.)
   Center  Symbol    Alpha    Beta     Spin     Total
       1     O     4.17941  4.17941  0.00000 -0.35881
       2     C     2.83946  2.83946  0.00000  0.32109
       3     C     3.13330  3.13330  0.00000 -0.26659
       4     N     3.61422  3.61422  0.00000 -0.22843
       5     H     0.44971  0.44971  0.00000  0.10058
       6     H     0.44067  0.44067  0.00000  0.11865
       7     H     0.44603  0.44603  0.00000  0.10795
       8     C     3.09155  3.09155  0.00000 -0.18310
       9     C     3.09032  3.09032  0.00000 -0.18063
      10     H     0.44991  0.44991  0.00000  0.10017
      11     H     0.45085  0.45085  0.00000  0.09830
      12     H     0.45764  0.45764  0.00000  0.08472
      13     H     0.45329  0.45329  0.00000  0.09342
      14     H     0.44759  0.44759  0.00000  0.10481
      15     H     0.45606  0.45606  0.00000  0.08788

   Total alpha = 24.00000, Total beta = 24.00000, Total charge = -0.00000

*** Psi4 exiting successfully. Buy a developer a beer!
