  ==> Input File <==

--------------------------------------------------------------------------
set {
	reference rhf
	basis cc-pvtz
}

set_num_threads( 4 )
memory 2 gb

molecule MOL {
0 1

H	 -2.253000	 1.206000	 -0.000000
O	 -1.419000	 1.651000	 0.000000
C	 -0.389000	 0.769000	 -0.000000
C	 0.890000	 1.305000	 -0.000000
C	 -0.589000	 -0.609000	 -0.000000
H	 0.999000	 2.374000	 -0.000000
C	 1.989000	 0.468000	 0.000000
C	 0.534000	 -1.428000	 0.000000
C	 -1.984000	 -1.192000	 0.000000
H	 2.978000	 0.890000	 0.000000
C	 1.817000	 -0.907000	 -0.000000
H	 0.397000	 -2.495000	 -0.000000
H	 -2.550000	 -0.890000	 -0.879000
H	 -1.946000	 -2.274000	 -0.000000
H	 -2.550000	 -0.891000	 0.879000
H	 2.667000	 -1.565000	 -0.000000

	symmetry c1
}
ee = optimize('scf')
oeprop('DIPOLE', 'QUADRUPOLE', 'MULLIKEN_CHARGES')
f=open( 'psi4out.xyz', 'w' )
f.write( "16  " )
f.write( str(ee) + "\n" )
f.write( MOL.save_string_xyz() )
f.close()
--------------------------------------------------------------------------

    Molecular point group: c1
  Charge       = 0
  Multiplicity = 1
  Basis Set: CC-PVTZ
  Basis Set:
  @DF-RHF Final Energy:  -344.71914081835018
    Total Energy =                       -344.7191408183501835
    Molecular point group: c1
  Basis Set: CC-PVTZ
  Basis Set:
  Basis Set: CC-PVTZ
  Basis Set:
  @DF-RHF Final Energy:  -344.71931277716703
    Total Energy =                       -344.7193127771668060
  Basis Set: CC-PVTZ
  Basis Set:
  Basis Set: CC-PVTZ
  Basis Set:
  @DF-RHF Final Energy:  -344.71931867628109
    Total Energy =                       -344.7193186762812047
  Basis Set: CC-PVTZ
  Basis Set:
  Charge       = 0
  Multiplicity = 1
  Basis Set: CC-PVTZ
  Basis Set:

    Orbital Energies (a.u.)
    -----------------------

    Doubly Occupied:

       1A    -20.581877     2A    -11.291292     3A    -11.233554
       4A    -11.232651     5A    -11.228589     6A    -11.227313
       7A    -11.217427     8A    -11.216522     9A     -1.412512
      10A     -1.153399    11A     -1.052071    12A     -1.007897
      13A     -0.944263    14A     -0.828953    15A     -0.823999
      16A     -0.734762    17A     -0.680796    18A     -0.647384
      19A     -0.609173    20A     -0.606618    21A     -0.577593
      22A     -0.566486    23A     -0.566362    24A     -0.554717
      25A     -0.505514    26A     -0.485485    27A     -0.478879
      28A     -0.333865    29A     -0.308863

  @DF-RHF Final Energy:  -344.71931903301618

   => Energetics <=

    Nuclear Repulsion Energy =            351.0585835628579616
    One-Electron Energy =               -1163.3381783330155486
    Two-Electron Energy =                 467.5602757371419784
    DFT Exchange-Correlation Energy =       0.0000000000000000
    Empirical Dispersion Energy =           0.0000000000000000
    PCM Polarization Energy =               0.0000000000000000
    EFP Energy =                            0.0000000000000000
    Total Energy =                       -344.7193190330156085
    Molecular point group: c1
  Basis Set: CC-PVTZ
  Basis Set:

  -Total Gradient:
     Atom            X                  Y                   Z
    ------   -----------------  -----------------  -----------------
       1        0.000054838428     0.000013725659     0.000000443407
       2       -0.000034440714     0.000012408546     0.000001334191
       3       -0.000039979757    -0.000134709914    -0.000004921267
       4        0.000083678532     0.000013582453     0.000001050602
       5       -0.000081894977     0.000122001655     0.000001606796
       6       -0.000008857291    -0.000000360860    -0.000000021234
       7       -0.000030158658     0.000120640591     0.000001282092
       8        0.000128941351    -0.000026760522     0.000001331305
       9        0.000001162335    -0.000021989742    -0.000000711232
      10       -0.000001414199    -0.000006302587    -0.000000119513
      11       -0.000079996064    -0.000107937984    -0.000001114583
      12       -0.000005211081    -0.000002209650    -0.000000273565
      13        0.000004461490     0.000001695138     0.000007828610
      14        0.000002004921     0.000008106863    -0.000000282340
      15        0.000004542871     0.000002600131    -0.000007310780
      16        0.000002322815     0.000005510227    -0.000000122489

  **** Optimization is complete! (in 4 steps) ****
    Final optimized geometry and variables:
    Molecular point group: c1

    Geometry (in Angstrom), charge = 0, multiplicity = 1:

    H           -2.266619749230     1.169943328608     0.000098486003
    O           -1.438073562598     1.611259211378     0.000040949645
    C           -0.408657459264     0.734700677588     0.000004501289
    C            0.866503032900     1.268904992502     0.000029735835
    C           -0.607242163307    -0.641044731063    -0.000016521413
    H            0.977952688744     2.335446134144     0.000061395188
    C            1.963237703920     0.433356149412     0.000013958814
    C            0.512775907662    -1.456573811073    -0.000031826383
    C           -1.999429531410    -1.222437443526    -0.000028912606
    H            2.950153013746     0.855229101719     0.000027862761
    C            1.792044429180    -0.937454617900    -0.000025051627
    H            0.376123439675    -2.522075451668    -0.000057764087
    H           -2.563061819125    -0.918791615369    -0.877775319528
    H           -1.962052112083    -2.302272586108    -0.000039930779
    H           -2.563066319290    -0.918808342592     0.877722340125
    H            2.640510471606    -1.593561033187    -0.000042619241

  Mulliken Charges: (a.u.)
   Center  Symbol    Alpha    Beta     Spin     Total
       1     H     0.38738  0.38738  0.00000  0.22524
       2     O     4.17112  4.17112  0.00000 -0.34225
       3     C     2.87278  2.87278  0.00000  0.25443
       4     C     3.11185  3.11185  0.00000 -0.22371
       5     C     3.01236  3.01236  0.00000 -0.02472
       6     H     0.42024  0.42024  0.00000  0.15953
       7     C     3.06506  3.06506  0.00000 -0.13013
       8     C     3.08287  3.08287  0.00000 -0.16574
       9     C     3.16586  3.16586  0.00000 -0.33172
      10     H     0.42250  0.42250  0.00000  0.15500
      11     C     3.09266  3.09266  0.00000 -0.18532
      12     H     0.42570  0.42570  0.00000  0.14861
      13     H     0.44973  0.44973  0.00000  0.10054
      14     H     0.44504  0.44504  0.00000  0.10991
      15     H     0.44973  0.44973  0.00000  0.10053
      16     H     0.42511  0.42511  0.00000  0.14978

   Total alpha = 29.00000, Total beta = 29.00000, Total charge = -0.00000
