  ==> Input File <==

--------------------------------------------------------------------------
set {
	reference rhf
	basis 6-31G*
}

set_num_threads( 4 )
memory 2 gb

molecule MOL {
0 1

H	 -1.836216	 1.387520	 -0.000064
C	 -1.301823	 0.443321	 -0.000031
O	 -0.003969	 0.658512	 0.000451
O	 -1.829879	 -0.616434	 -0.000857
C	 0.850537	 -0.484732	 -0.000064
C	 2.278695	 0.015952	 -0.000203
H	 0.633867	 -1.081462	 -0.875441
H	 0.634217	 -1.082585	 0.874620
H	 2.474914	 0.619238	 -0.879167
H	 2.963662	 -0.825506	 -0.001031
H	 2.475428	 0.618140	 0.879316

	symmetry c1
}
set optking {
	frozen_dihedral = ("
		5 3 2 4
	")
}

ee = optimize('scf')
oeprop('DIPOLE', 'QUADRUPOLE', 'MULLIKEN_CHARGES')
f=open( 'psi4out.xyz', 'w' )
f.write( "11  " )
f.write( str(ee) + "\n" )
f.write( MOL.save_string_xyz() )
f.close()
--------------------------------------------------------------------------

    Molecular point group: c1
  Charge       = 0
  Multiplicity = 1
  Basis Set: 6-31G*
  Basis Set:
  @DF-RHF Final Energy:  -266.82900065242973
    Total Energy =                       -266.8290006524296700
    Molecular point group: c1
  Basis Set: 6-31G*
  Basis Set:
  Basis Set: 6-31G*
  Basis Set:
  @DF-RHF Final Energy:  -266.82900023479851
    Total Energy =                       -266.8290002347985705
  Basis Set: 6-31G*
  Basis Set:
  Charge       = 0
  Multiplicity = 1
  Basis Set: 6-31G*
  Basis Set:

    Orbital Energies (a.u.)
    -----------------------

    Doubly Occupied:

       1A    -20.612993     2A    -20.557059     3A    -11.378385
       4A    -11.291886     5A    -11.226808     6A     -1.476417
       7A     -1.373969     8A     -1.052813     9A     -0.902518
      10A     -0.805635    11A     -0.737451    12A     -0.690610
      13A     -0.677891    14A     -0.590851    15A     -0.576162
      16A     -0.557027    17A     -0.517662    18A     -0.515064
      19A     -0.459954    20A     -0.454639

  @DF-RHF Final Energy:  -266.82900058006533

   => Energetics <=

    Nuclear Repulsion Energy =            179.3082363078151218
    One-Electron Energy =                -719.3628862973113200
    Two-Electron Energy =                 273.2256494094308437
    DFT Exchange-Correlation Energy =       0.0000000000000000
    Empirical Dispersion Energy =           0.0000000000000000
    PCM Polarization Energy =               0.0000000000000000
    EFP Energy =                            0.0000000000000000
    Total Energy =                       -266.8290005800653262
    Molecular point group: c1
  Basis Set: 6-31G*
  Basis Set:

  -Total Gradient:
     Atom            X                  Y                   Z
    ------   -----------------  -----------------  -----------------
       1       -0.000025573506    -0.000006897646    -0.000056631512
       2       -0.000032798897     0.000098736088     0.000142927723
       3       -0.000032444707     0.000034055367     0.000023638309
       4        0.000005084771    -0.000026059455    -0.000042477137
       5       -0.000004283322     0.000010176811    -0.000133126288
       6        0.000000697211    -0.000011115539     0.000005668511
       7        0.000076059090    -0.000053564366     0.000025126942
       8        0.000039845740     0.000002556080     0.000004364001
       9       -0.000037112445    -0.000027905369     0.000009554802
      10        0.000019170919    -0.000012465037     0.000007615622
      11       -0.000008644854    -0.000007516934     0.000013339026

  **** Optimization is complete! (in 3 steps) ****
    Final optimized geometry and variables:
    Molecular point group: c1

    Geometry (in Angstrom), charge = 0, multiplicity = 1:

    H           -1.836288851825     1.387808335001    -0.000045625374
    C           -1.301945543628     0.443602509159     0.000588138478
    O           -0.003936790455     0.658270988382    -0.000732191272
    O           -1.830193476058    -0.616100882016     0.001407204533
    C            0.850743642378    -0.484982738076    -0.001228583031
    C            2.278842568070     0.015897381185    -0.000050687005
    H            0.635509937753    -1.082215496353    -0.876593184793
    H            0.634553093300    -1.082932314354     0.873406381978
    H            2.475435434298     0.618858271554    -0.879017731380
    H            2.963994170091    -0.825499869693     0.000061683897
    H            2.474370226315     0.618130786026     0.879704710432

  Mulliken Charges: (a.u.)
   Center  Symbol    Alpha    Beta     Spin     Total
       1     H     0.41022  0.41022  0.00000  0.17955
       2     C     2.72762  2.72762  0.00000  0.54475
       3     O     4.29116  4.29116  0.00000 -0.58232
       4     O     4.26321  4.26321  0.00000 -0.52642
       5     C     3.00635  3.00635  0.00000 -0.01271
       6     C     3.24943  3.24943  0.00000 -0.49886
       7     H     0.40811  0.40811  0.00000  0.18378
       8     H     0.40808  0.40808  0.00000  0.18383
       9     H     0.41040  0.41040  0.00000  0.17921
      10     H     0.41502  0.41502  0.00000  0.16997
      11     H     0.41039  0.41039  0.00000  0.17921

   Total alpha = 20.00000, Total beta = 20.00000, Total charge =  0.00000
