  ==> Input File <==

--------------------------------------------------------------------------
set {
	reference rhf
	basis cc-pvtz
}

set_num_threads( 4 )
memory 2 gb

molecule MOL {
0 1

O	 0.685632	 2.143417	 -0.029286
C	 -0.419702	 2.561823	 -0.094365
C	 -1.673644	 1.725706	 -0.093414
O	 -0.702128	 3.851612	 -0.178366
C	 -1.413045	 0.229353	 0.001137
H	 -2.288377	 2.070513	 0.731627
H	 -2.224425	 1.972538	 -0.995176
C	 -2.702562	 -0.586401	 0.000228
H	 -0.847077	 0.020621	 0.902054
H	 -0.783663	 -0.077619	 -0.826626
C	 -3.953810	 0.284959	 -0.000782
H	 -2.717793	 -1.238567	 -0.869075
H	 -2.719108	 -1.238472	 0.869576
H	 -3.983727	 0.924403	 -0.876454
H	 -4.852989	 -0.320147	 -0.001515
H	 -3.985140	 0.924399	 0.874841
C	 0.385007	 4.754571	 -0.189309
H	 0.963031	 4.666511	 0.718634
H	 -0.046904	 5.739519	 -0.261406
H	 1.028283	 4.566680	 -1.036136

	symmetry c1
}
set optking {
	frozen_dihedral = ("
		9 5 8 12
	")
}

ee = optimize('scf')
oeprop('DIPOLE', 'QUADRUPOLE', 'MULLIKEN_CHARGES')
f=open( 'psi4out.xyz', 'w' )
f.write( "20  " )
f.write( str(ee) + "\n" )
f.write( MOL.save_string_xyz() )
f.close()
--------------------------------------------------------------------------

    Molecular point group: c1
  Charge       = 0
  Multiplicity = 1
  Basis Set: CC-PVTZ
  Basis Set:
  @DF-RHF Final Energy:  -384.06810154281675
    Total Energy =                       -384.0681015428174305
    Molecular point group: c1
  Basis Set: CC-PVTZ
  Basis Set:
  Basis Set: CC-PVTZ
  Basis Set:
  @DF-RHF Final Energy:  -384.06856210528957
    Total Energy =                       -384.0685621052891747
  Basis Set: CC-PVTZ
  Basis Set:
  Basis Set: CC-PVTZ
  Basis Set:
  @DF-RHF Final Energy:  -384.07245687461403
    Total Energy =                       -384.0724568746146588
  Basis Set: CC-PVTZ
  Basis Set:
  Basis Set: CC-PVTZ
  Basis Set:
  @DF-RHF Final Energy:  -384.07311031206069
    Total Energy =                       -384.0731103120604075
  Basis Set: CC-PVTZ
  Basis Set:
  @DF-RHF Final Energy:  -384.07319553391096
    Total Energy =                       -384.0731955339107344
  Basis Set: CC-PVTZ
  Basis Set:
  @DF-RHF Final Energy:  -384.07321196640584
    Total Energy =                       -384.0732119664057791
  Basis Set: CC-PVTZ
  Basis Set:
  Basis Set: CC-PVTZ
  Basis Set:
  @DF-RHF Final Energy:  -384.07313660133889
    Total Energy =                       -384.0731366013385468
  Basis Set: CC-PVTZ
  Basis Set:
  Basis Set: CC-PVTZ
  Basis Set:
  @DF-RHF Final Energy:  -384.07321381692526
    Total Energy =                       -384.0732138169248628
  Basis Set: CC-PVTZ
  Basis Set:
  Charge       = 0
  Multiplicity = 1
  Basis Set: CC-PVTZ
  Basis Set:

    Orbital Energies (a.u.)
    -----------------------

    Doubly Occupied:

       1A    -20.596010     2A    -20.534001     3A    -11.364383
       4A    -11.278305     5A    -11.233502     6A    -11.218528
       7A    -11.217242     8A    -11.211851     9A     -1.471989
      10A     -1.365611    11A     -1.085948    12A     -1.022305
      13A     -0.968524    14A     -0.898978    15A     -0.799436
      16A     -0.762287    17A     -0.703127    18A     -0.686339
      19A     -0.674642    20A     -0.642975    21A     -0.606755
      22A     -0.591106    23A     -0.567500    24A     -0.548235
      25A     -0.542369    26A     -0.523560    27A     -0.516395
      28A     -0.474696    29A     -0.472834    30A     -0.462553
      31A     -0.451235    32A     -0.441065

  @DF-RHF Final Energy:  -384.07321402162580

   => Energetics <=

    Nuclear Repulsion Energy =            385.8592717249720749
    One-Electron Energy =               -1287.9964024211253673
    Two-Electron Energy =                 518.0639166745270359
    DFT Exchange-Correlation Energy =       0.0000000000000000
    Empirical Dispersion Energy =           0.0000000000000000
    PCM Polarization Energy =               0.0000000000000000
    EFP Energy =                            0.0000000000000000
    Total Energy =                       -384.0732140216261996
    Molecular point group: c1
  Basis Set: CC-PVTZ
  Basis Set:

  -Total Gradient:
     Atom            X                  Y                   Z
    ------   -----------------  -----------------  -----------------
       1        0.000002364584    -0.000014183654     0.000002701754
       2        0.000018635514    -0.000004791594     0.000003058327
       3        0.000005133867     0.000002037296     0.000004328756
       4       -0.000022224576    -0.000000836411    -0.000002229192
       5       -0.001280425108     0.001777073597     0.001728691538
       6        0.000005644507    -0.000000872888     0.000003723483
       7       -0.000015270900    -0.000004445197    -0.000005929803
       8       -0.001126383335     0.001686936393    -0.001836925064
       9        0.001256860640    -0.001728328420    -0.001164705910
      10        0.000003821878     0.000008402029     0.000001720285
      11        0.000003469500    -0.000008739744     0.000009342731
      12        0.001139990278    -0.001713284482     0.001276544821
      13       -0.000006384315     0.000006046117    -0.000005208572
      14        0.000014862381     0.000017008167    -0.000009961583
      15        0.000006198282    -0.000004710388    -0.000005041470
      16       -0.000007148455    -0.000011426672     0.000002372334
      17        0.000005761125    -0.000004494944    -0.000005711760
      18       -0.000001212375    -0.000000547841     0.000000678352
      19       -0.000004139944    -0.000002430056     0.000001114374
      20        0.000000446454     0.000001588695     0.000001436597

  **** Optimization is complete! (in 9 steps) ****
    Final optimized geometry and variables:
    Molecular point group: c1

    Geometry (in Angstrom), charge = 0, multiplicity = 1:

    O            1.899632215559     0.224798351680     0.081709065176
    C            0.811761820575     0.680007925673    -0.019242686298
    C           -0.474067215745    -0.107606954464    -0.042444497065
    O            0.578039028885     1.978132330677    -0.127851558268
    C           -0.251755697246    -1.610259312068     0.079192119905
    H           -1.093057538514     0.279998540114     0.757676127329
    H           -0.983273600301     0.151798948653    -0.963450601305
    C           -1.523210069966    -2.498746881951     0.052383437079
    H            0.310603934146    -1.808006112735     0.982354332963
    H            0.405896731522    -1.914394210170    -0.725123650958
    C           -2.879564510979    -1.797506703571     0.103171878802
    H           -1.489545615545    -3.131903479187    -0.827136954241
    H           -1.472616421568    -3.183782570308     0.891624467138
    H           -3.033492820685    -1.139050844763    -0.743505252741
    H           -3.674701355847    -2.533787856037     0.089414242656
    H           -2.998322079070    -1.210387524315     1.006734729560
    C            1.696628905777     2.841597105409    -0.120642336467
    H            2.246376630800     2.745994674842     0.803965995063
    H            1.302460503928     3.840176003816    -0.217547499353
    H            2.355584077555     2.619182838553    -0.946822231206

  Mulliken Charges: (a.u.)
   Center  Symbol    Alpha    Beta     Spin     Total
       1     O     4.19673  4.19673  0.00000 -0.39347
       2     C     2.81198  2.81198  0.00000  0.37603
       3     C     3.09619  3.09619  0.00000 -0.19237
       4     O     4.14627  4.14627  0.00000 -0.29254
       5     C     3.09395  3.09395  0.00000 -0.18791
       6     H     0.43849  0.43849  0.00000  0.12302
       7     H     0.43884  0.43884  0.00000  0.12232
       8     C     3.08958  3.08958  0.00000 -0.17917
       9     H     0.44341  0.44341  0.00000  0.11319
      10     H     0.44381  0.44381  0.00000  0.11238
      11     C     3.15817  3.15817  0.00000 -0.31634
      12     H     0.44995  0.44995  0.00000  0.10010
      13     H     0.44994  0.44994  0.00000  0.10013
      14     H     0.45402  0.45402  0.00000  0.09195
      15     H     0.44280  0.44280  0.00000  0.11440
      16     H     0.45359  0.45359  0.00000  0.09281
      17     C     3.03837  3.03837  0.00000 -0.07675
      18     H     0.45435  0.45435  0.00000  0.09131
      19     H     0.44521  0.44521  0.00000  0.10958
      20     H     0.45433  0.45433  0.00000  0.09133

   Total alpha = 32.00000, Total beta = 32.00000, Total charge = -0.00000
