  ==> Input File <==

--------------------------------------------------------------------------
set {
	reference rhf
	basis 6-31G*
}

set_num_threads( 1 )
memory 2 gb

molecule MOL {
0 1

O	 1.846386	 1.296922	 0.032703
C	 1.703491	 0.118557	 0.097164
C	 0.380194	 -0.607216	 0.094686
O	 2.718397	 -0.732693	 0.177631
C	 -0.823008	 0.326187	 0.001381
H	 0.397552	 -1.311170	 -0.732878
H	 0.340115	 -1.212346	 0.996313
C	 -2.149452	 -0.435131	 -0.000098
H	 -0.741008	 0.926297	 -0.899359
H	 -0.799196	 1.024471	 0.832129
C	 -3.368779	 0.488503	 -0.000883
H	 -2.193746	 -1.087250	 -0.871175
H	 -2.195311	 -1.087803	 0.870418
C	 -4.693822	 -0.272754	 -0.001129
H	 -3.325798	 1.139422	 -0.871284
H	 -3.326423	 1.139959	 0.869145
H	 -4.781274	 -0.907928	 -0.878124
H	 -5.538651	 0.408946	 -0.001420
H	 -4.781694	 -0.907783	 0.875984
C	 4.021847	 -0.179625	 0.187113
H	 4.205528	 0.375992	 -0.721226
H	 4.697580	 -1.017791	 0.255949
H	 4.150446	 0.475822	 1.036441

	symmetry c1
}
set optking {
	frozen_dihedral = ("
		15 11 8 12,
		1 2 3 6,
		9 5 3 6,
		1 2 4 20
	")
}

ee = energy('scf')
oeprop('DIPOLE', 'QUADRUPOLE', 'MULLIKEN_CHARGES')
f=open( 'psi4out.xyz', 'w' )
f.write( "23  " )
f.write( str(ee) + "\n" )
f.write( MOL.save_string_xyz() )
f.close()
--------------------------------------------------------------------------

    Molecular point group: c1

    Geometry (in Angstrom), charge = 0, multiplicity = 1:

       Center              X                  Y                   Z               Mass
    ------------   -----------------  -----------------  -----------------  -----------------
           O          1.847474537586     1.295154793090    -0.033937975238    15.994914619560
           C          1.704579537586     0.116789793090     0.030523024762    12.000000000000
           C          0.381282537586    -0.608983206910     0.028045024762    12.000000000000
           O          2.719485537586    -0.734460206910     0.110990024762    15.994914619560
           C         -0.821919462414     0.324419793090    -0.065259975238    12.000000000000
           H          0.398640537586    -1.312937206910    -0.799518975238     1.007825032070
           H          0.341203537586    -1.214113206910     0.929672024762     1.007825032070
           C         -2.148363462414    -0.436898206910    -0.066738975238    12.000000000000
           H         -0.739919462414     0.924529793090    -0.965999975238     1.007825032070
           H         -0.798107462414     1.022703793090     0.765488024762     1.007825032070
           C         -3.367690462414     0.486735793090    -0.067523975238    12.000000000000
           H         -2.192657462414    -1.089017206910    -0.937815975238     1.007825032070
           H         -2.194222462414    -1.089570206910     0.803777024762     1.007825032070
           C         -4.692733462414    -0.274521206910    -0.067769975238    12.000000000000
           H         -3.324709462414     1.137654793090    -0.937924975238     1.007825032070
           H         -3.325334462414     1.138191793090     0.802504024762     1.007825032070
           H         -4.780185462414    -0.909695206910    -0.944764975238     1.007825032070
           H         -5.537562462414     0.407178793090    -0.068060975238     1.007825032070
           H         -4.780605462414    -0.909550206910     0.809343024762     1.007825032070
           C          4.022935537586    -0.181392206910     0.120472024762    12.000000000000
           H          4.206616537586     0.374224793090    -0.787866975238     1.007825032070
           H          4.698668537586    -1.019558206910     0.189308024762     1.007825032070
           H          4.151534537586     0.474054793090     0.969800024762     1.007825032070

  Charge       = 0
  Multiplicity = 1
  Basis Set: 6-31G*
  Basis Set:

    Orbital Energies (a.u.)
    -----------------------

    Doubly Occupied:

       1A    -20.603627     2A    -20.545423     3A    -11.372254
       4A    -11.280851     5A    -11.235559     6A    -11.219262
       7A    -11.217867     8A    -11.216476     9A    -11.209649
      10A     -1.469325    11A     -1.362758    12A     -1.093222
      13A     -1.043664    14A     -0.987049    15A     -0.932106
      16A     -0.843566    17A     -0.795082    18A     -0.767285
      19A     -0.696879    20A     -0.683860    21A     -0.671501
      22A     -0.651720    23A     -0.609321    24A     -0.599406
      25A     -0.572763    26A     -0.558073    27A     -0.557259
      28A     -0.523841    29A     -0.521100    30A     -0.507713
      31A     -0.484456    32A     -0.469792    33A     -0.466250
      34A     -0.461287    35A     -0.455602    36A     -0.435474

  @DF-RHF Final Energy:  -422.97625790992987

   => Energetics <=

    Nuclear Repulsion Energy =            452.1318228414154987
    One-Electron Energy =               -1471.9734940743198877
    Two-Electron Energy =                 596.8654133229749732
    DFT Exchange-Correlation Energy =       0.0000000000000000
    Empirical Dispersion Energy =           0.0000000000000000
    PCM Polarization Energy =               0.0000000000000000
    EFP Energy =                            0.0000000000000000
    Total Energy =                       -422.9762579099294726

  Mulliken Charges: (a.u.)
   Center  Symbol    Alpha    Beta     Spin     Total
       1     O     4.28609  4.28609  0.00000 -0.57218
       2     C     2.60486  2.60486  0.00000  0.79027
       3     C     3.20826  3.20826  0.00000 -0.41652
       4     O     4.30741  4.30741  0.00000 -0.61482
       5     C     3.15244  3.15244  0.00000 -0.30489
       6     H     0.40059  0.40059  0.00000  0.19881
       7     H     0.40067  0.40067  0.00000  0.19866
       8     C     3.15334  3.15334  0.00000 -0.30669
       9     H     0.41155  0.41155  0.00000  0.17690
      10     H     0.41184  0.41184  0.00000  0.17633
      11     C     3.15157  3.15157  0.00000 -0.30315
      12     H     0.42370  0.42370  0.00000  0.15260
      13     H     0.42429  0.42429  0.00000  0.15142
      14     C     3.23959  3.23959  0.00000 -0.47918
      15     H     0.42127  0.42127  0.00000  0.15747
      16     H     0.42139  0.42139  0.00000  0.15722
      17     H     0.42179  0.42179  0.00000  0.15641
      18     H     0.41848  0.41848  0.00000  0.16305
      19     H     0.42184  0.42184  0.00000  0.15632
      20     C     3.09245  3.09245  0.00000 -0.18489
      21     H     0.40905  0.40905  0.00000  0.18189
      22     H     0.40843  0.40843  0.00000  0.18315
      23     H     0.40910  0.40910  0.00000  0.18181

   Total alpha = 36.00000, Total beta = 36.00000, Total charge = -0.00000
