                              Psi4 1.0.54 Driver

  ==> Input File <==

--------------------------------------------------------------------------
set {
	reference rhf
	basis cc-pvtz
}

set_num_threads( 4 )
memory 2 gb

molecule MOL {
0 1

H	 0.970173	 2.119304	 -1.228176
O	 1.233548	 1.884300	 -0.356477
C	 0.706474	 0.636793	 -0.025501
C	 -0.793473	 0.591216	 0.050087
H	 1.120339	 0.375715	 0.941379
H	 1.046459	 -0.125569	 -0.724009
C	 -1.534243	 -0.493009	 -0.013340
H	 -1.266611	 1.552628	 0.164437
H	 -1.101195	 -1.466332	 -0.144046
H	 -2.604242	 -0.437780	 0.050785

	symmetry c1
}
set optking {
	frozen_dihedral = ("
		5 3 4 7
	")
}

ee,wfn = optimize('scf', return_wfn=True)
oeprop( wfn, 'DIPOLE', 'QUADRUPOLE', 'MULLIKEN_CHARGES')
f=open( 'psi4out.xyz', 'w' )
f.write( "10  " )
f.write( str(ee) + "\n" )
f.write( MOL.save_string_xyz() )
f.close()
--------------------------------------------------------------------------

    Molecular point group: c1
  Charge       = 0
  Multiplicity = 1
  Basis Set: CC-PVTZ
  Basis Set:
  @DF-RHF Final Energy:  -191.99597344998776
    Total Energy =                       -191.9959734499878152
    Molecular point group: c1
  Basis Set: CC-PVTZ
  Basis Set:
  Basis Set: CC-PVTZ
  Basis Set:
  @DF-RHF Final Energy:  -191.99585111758716
    Total Energy =                       -191.9958511175872218
  Basis Set: CC-PVTZ
  Basis Set:
  Basis Set: CC-PVTZ
  Basis Set:
  @DF-RHF Final Energy:  -191.99642633633607
    Total Energy =                       -191.9964263363359862
  Basis Set: CC-PVTZ
  Basis Set:
  Basis Set: CC-PVTZ
  Basis Set:
  @DF-RHF Final Energy:  -191.99644289710426
    Total Energy =                       -191.9964428971043162
  Basis Set: CC-PVTZ
  Basis Set:
  Charge       = 0
  Multiplicity = 1
  Basis Set: CC-PVTZ
  Basis Set:

    Orbital Energies (a.u.)
    -----------------------

    Doubly Occupied:

       1A    -20.554122     2A    -11.276717     3A    -11.230315
       4A    -11.220400     5A     -1.373339     6A     -1.066091
       7A     -0.923706     8A     -0.778356     9A     -0.707379
      10A     -0.627901    11A     -0.626595    12A     -0.600676
      13A     -0.527807    14A     -0.501593    15A     -0.451040
      16A     -0.370138

  @DF-RHF Final Energy:  -191.99644369175428

   => Energetics <=

    Nuclear Repulsion Energy =            117.2081181505371319
    One-Electron Energy =                -492.7367742825160803
    Two-Electron Energy =                 183.5322124402247255
    DFT Exchange-Correlation Energy =       0.0000000000000000
    Empirical Dispersion Energy =           0.0000000000000000
    PCM Polarization Energy =               0.0000000000000000
    EFP Energy =                            0.0000000000000000
    Total Energy =                       -191.9964436917542230
    Molecular point group: c1
  Basis Set: CC-PVTZ
  Basis Set:

  -Total Gradient:
     Atom            X                  Y                   Z
    ------   -----------------  -----------------  -----------------
       1       -0.000021484138    -0.000021678053     0.000027743469
       2        0.000068850463    -0.000022174143     0.000010194186
       3        0.000368578104     0.004099733718     0.002190706613
       4       -0.000213820558    -0.000776588057    -0.004735975159
       5       -0.000287604865    -0.003213578977    -0.000579085857
       6        0.000006297199     0.000006680715     0.000014210957
       7        0.000069693280    -0.000071647147     0.003007661230
       8        0.000012561315    -0.000021005769     0.000000238831
       9       -0.000006591946     0.000014308497     0.000037874850
      10        0.000003521143     0.000005949214     0.000026430880

  **** Optimization is complete! (in 5 steps) ****
    Final optimized geometry and variables:
    Molecular point group: c1

    Geometry (in Angstrom), charge = 0, multiplicity = 1:

    H            1.127911530931     1.194794270651    -1.239442983797
    O            1.353919877993     1.028293981531    -0.342116839786
    C            0.728907291009    -0.143015154702     0.097187398929
    C           -0.771783748588    -0.019083883931     0.163450519153
    H            1.120999768639    -0.353106256870     1.083626514618
    H            1.002727544068    -0.987940620927    -0.528763875184
    C           -1.608300819397    -1.032774573578     0.196280253158
    H           -1.142968519139     0.987562395386     0.254865362329
    H           -1.270174338588    -2.051261442852     0.118749273968
    H           -2.665902001743    -0.882664647569     0.300161836141

  Mulliken Charges: (a.u.)
   Center  Symbol    Alpha    Beta     Spin     Total
       1     H     0.39260  0.39260  0.00000  0.21479
       2     O     4.20187  4.20187  0.00000 -0.40374
       3     C     2.94890  2.94890  0.00000  0.10220
       4     C     3.08797  3.08797  0.00000 -0.17593
       5     H     0.45130  0.45130  0.00000  0.09740
       6     H     0.46740  0.46740  0.00000  0.06520
       7     C     3.17418  3.17418  0.00000 -0.34836
       8     H     0.41653  0.41653  0.00000  0.16694
       9     H     0.43224  0.43224  0.00000  0.13552
      10     H     0.42702  0.42702  0.00000  0.14596

   Total alpha = 16.00000, Total beta = 16.00000, Total charge =  0.00000

*** Psi4 exiting successfully. Buy a developer a beer!
