  ==> Input File <==

--------------------------------------------------------------------------
set {
	reference rhf
	basis 6-31G*
}

set_num_threads( 4 )
memory 2 gb

molecule MOL {
0 1

H	 -2.798360	 -0.862255	 -0.071053
N	 -1.863561	 -0.715187	 0.256814
C	 -1.344686	 0.554728	 -0.219830
H	 -1.300452	 -1.461917	 -0.101532
C	 0.081427	 0.741154	 0.254071
H	 -1.362155	 0.656231	 -1.305829
H	 -1.952773	 1.354456	 0.191809
O	 0.144222	 0.386719	 1.605929
H	 0.756826	 0.115257	 -0.328790
H	 0.377888	 1.779384	 0.122068
C	 1.387937	 0.592182	 2.196290
H	 1.315160	 0.283913	 3.230394
H	 2.162454	 0.003458	 1.707917
H	 1.676922	 1.640506	 2.160030

	symmetry c1
}
set optking {
	frozen_dihedral = ("
		8 5 3 6
	")
}

ee = optimize('scf')
oeprop('DIPOLE', 'QUADRUPOLE', 'MULLIKEN_CHARGES')
f=open( 'psi4out.xyz', 'w' )
f.write( "14  " )
f.write( str(ee) + "\n" )
f.write( MOL.save_string_xyz() )
f.close()
--------------------------------------------------------------------------

    Molecular point group: c1
  Charge       = 0
  Multiplicity = 1
  Basis Set: 6-31G*
  Basis Set:
  @DF-RHF Final Energy:  -248.11593584588124
    Total Energy =                       -248.1159358458812108
    Molecular point group: c1
  Basis Set: 6-31G*
  Basis Set:
  Basis Set: 6-31G*
  Basis Set:
  @DF-RHF Final Energy:  -248.11692173189687
    Total Energy =                       -248.1169217318967526
  Basis Set: 6-31G*
  Basis Set:
  Basis Set: 6-31G*
  Basis Set:
  @DF-RHF Final Energy:  -248.11721315778857
    Total Energy =                       -248.1172131577883420
  Basis Set: 6-31G*
  Basis Set:
  Basis Set: 6-31G*
  Basis Set:
  @DF-RHF Final Energy:  -248.11722542758784
    Total Energy =                       -248.1172254275879254
  Basis Set: 6-31G*
  Basis Set:
  Basis Set: 6-31G*
  Basis Set:
  @DF-RHF Final Energy:  -248.11722816406882
    Total Energy =                       -248.1172281640689334
  Basis Set: 6-31G*
  Basis Set:
  Charge       = 0
  Multiplicity = 1
  Basis Set: 6-31G*
  Basis Set:

    Orbital Energies (a.u.)
    -----------------------

    Doubly Occupied:

       1A    -20.551177     2A    -15.529141     3A    -11.269492
       4A    -11.262578     5A    -11.243917     6A     -1.378855
       7A     -1.173859     8A     -0.998238     9A     -0.906314
      10A     -0.816775    11A     -0.682887    12A     -0.665246
      13A     -0.651340    14A     -0.612699    15A     -0.581845
      16A     -0.574152    17A     -0.515849    18A     -0.500585
      19A     -0.464482    20A     -0.412000    21A     -0.376993

  @DF-RHF Final Energy:  -248.11722867357446

   => Energetics <=

    Nuclear Repulsion Energy =            194.1314610239729745
    One-Electron Energy =                -722.1605307518677819
    Two-Electron Energy =                 279.9118410543204618
    DFT Exchange-Correlation Energy =       0.0000000000000000
    Empirical Dispersion Energy =           0.0000000000000000
    PCM Polarization Energy =               0.0000000000000000
    EFP Energy =                            0.0000000000000000
    Total Energy =                       -248.1172286735743455
    Molecular point group: c1
  Basis Set: 6-31G*
  Basis Set:

  -Total Gradient:
     Atom            X                  Y                   Z
    ------   -----------------  -----------------  -----------------
       1       -0.000011278954     0.000009435832     0.000027616972
       2        0.000040076712    -0.000006165726     0.000009952469
       3       -0.000696897386     0.004650890525     0.000150745433
       4       -0.000014676772     0.000004208578    -0.000029618245
       5       -0.001005323992     0.004052640657     0.001325381802
       6        0.000826763948    -0.004916748462    -0.000398005282
       7       -0.000012962106     0.000003770653    -0.000015558593
       8        0.000880881184    -0.003806437747    -0.001035538490
       9        0.000003305210     0.000001531890    -0.000019265712
      10        0.000008985909     0.000011960726    -0.000017847295
      11       -0.000007850031    -0.000008093120     0.000009544813
      12       -0.000003201276     0.000000748989    -0.000002543478
      13       -0.000004165396     0.000001690798    -0.000001571519
      14       -0.000003657054     0.000000566406    -0.000003292876

  **** Optimization is complete! (in 6 steps) ****
    Final optimized geometry and variables:
    Molecular point group: c1

    Geometry (in Angstrom), charge = 0, multiplicity = 1:

    H           -2.483519618049    -1.184327501901    -1.060902934341
    N           -1.596949707989    -1.030951912673    -0.621610587371
    C           -1.043046239242     0.247570518567    -1.034096175845
    H           -0.996279826251    -1.786081983560    -0.891665216224
    C            0.377840449500     0.443134783700    -0.525895782582
    H           -0.997799212315     0.344395460651    -2.121935688418
    H           -1.682564325346     1.033335507468    -0.649174340993
    O            0.473096759642     0.119287955027     0.821937845759
    H            1.057249621805    -0.190112120096    -1.101723373559
    H            0.680826695102     1.475512833528    -0.702498483820
    C            1.744445969141     0.294262714951     1.356859263967
    H            1.702669295519     0.005376410510     2.397933879993
    H            2.480991014768    -0.326749573639     0.848715491461
    H            2.068288140455     1.332026100184     1.292042012541

  Mulliken Charges: (a.u.)
   Center  Symbol    Alpha    Beta     Spin     Total
       1     H     0.33341  0.33341  0.00000  0.33318
       2     N     3.91094  3.91094  0.00000 -0.82187
       3     C     3.06671  3.06671  0.00000 -0.13342
       4     H     0.33543  0.33543  0.00000  0.32913
       5     C     2.99320  2.99320  0.00000  0.01360
       6     H     0.43488  0.43488  0.00000  0.13024
       7     H     0.41381  0.41381  0.00000  0.17238
       8     O     4.29190  4.29190  0.00000 -0.58380
       9     H     0.43648  0.43648  0.00000  0.12704
      10     H     0.42956  0.42956  0.00000  0.14089
      11     C     3.07985  3.07985  0.00000 -0.15970
      12     H     0.41044  0.41044  0.00000  0.17911
      13     H     0.43195  0.43195  0.00000  0.13610
      14     H     0.43145  0.43145  0.00000  0.13710

   Total alpha = 21.00000, Total beta = 21.00000, Total charge = -0.00000
