  ==> Input File <==

--------------------------------------------------------------------------
set {
	reference rhf
	basis 6-31G*
}

set_num_threads( 1 )
memory 2 gb

molecule MOL {
0 1

O	 2.172901	 -0.281123	 0.382465
C	 1.122059	 0.121804	 -0.000188
C	 -0.170150	 -0.657997	 -0.000612
O	 0.946740	 1.342752	 -0.489600
C	 -1.412532	 0.227344	 -0.000452
H	 -0.153702	 -1.313099	 -0.867402
H	 -0.153924	 -1.313811	 0.865644
C	 -2.706999	 -0.587347	 -0.000541
H	 -1.388000	 0.879466	 -0.868000
H	 -1.387972	 0.879138	 0.867341
C	 -3.956778	 0.291888	 0.000910
H	 -2.726114	 -1.239230	 -0.871609
H	 -2.725217	 -1.240844	 0.869333
H	 -3.985213	 0.933254	 -0.875158
H	 -4.860123	 -0.309979	 0.000519
H	 -3.984618	 0.931166	 0.878514
C	 2.085596	 2.182420	 -0.545321
H	 2.488212	 2.342890	 0.444445
H	 1.744079	 3.115392	 -0.965890
H	 2.849207	 1.745940	 -1.172928

	symmetry c1
}
set optking {
	frozen_dihedral = ("
		9 5 8 12,
		9 5 3 6,
		1 2 4 17
	")
}

ee = energy('scf')
oeprop('DIPOLE', 'QUADRUPOLE', 'MULLIKEN_CHARGES')
f=open( 'psi4out.xyz', 'w' )
f.write( "20  " )
f.write( str(ee) + "\n" )
f.write( MOL.save_string_xyz() )
f.close()
--------------------------------------------------------------------------

    Molecular point group: c1

    Geometry (in Angstrom), charge = 0, multiplicity = 1:

       Center              X                  Y                   Z               Mass
    ------------   -----------------  -----------------  -----------------  -----------------
           O          2.387938969471    -0.637509101520     0.468407441150    15.994914619560
           C          1.337096969471    -0.234582101520     0.085754441150    12.000000000000
           C          0.044887969471    -1.014383101520     0.085330441150    12.000000000000
           O          1.161777969471     0.986365898480    -0.403657558850    15.994914619560
           C         -1.197494030529    -0.129042101520     0.085490441150    12.000000000000
           H          0.061335969471    -1.669485101520    -0.781459558850     1.007825032070
           H          0.061113969471    -1.670197101520     0.951586441150     1.007825032070
           C         -2.491961030529    -0.943733101520     0.085401441150    12.000000000000
           H         -1.172962030529     0.523079898480    -0.782057558850     1.007825032070
           H         -1.172934030529     0.522751898480     0.953283441150     1.007825032070
           C         -3.741740030529    -0.064498101520     0.086852441150    12.000000000000
           H         -2.511076030529    -1.595616101520    -0.785666558850     1.007825032070
           H         -2.510179030529    -1.597230101520     0.955275441150     1.007825032070
           H         -3.770175030529     0.576867898480    -0.789215558850     1.007825032070
           H         -4.645085030529    -0.666365101520     0.086461441150     1.007825032070
           H         -3.769580030529     0.574779898480     0.964456441150     1.007825032070
           C          2.300633969471     1.826033898480    -0.459378558850    12.000000000000
           H          2.703249969471     1.986503898480     0.530387441150     1.007825032070
           H          1.959116969471     2.759005898480    -0.879947558850     1.007825032070
           H          3.064244969471     1.389553898480    -1.086985558850     1.007825032070

  Charge       = 0
  Multiplicity = 1
  Basis Set: 6-31G*
  Basis Set:

    Orbital Energies (a.u.)
    -----------------------

    Doubly Occupied:

       1A    -20.605281     2A    -20.543168     3A    -11.372531
       4A    -11.281385     5A    -11.235423     6A    -11.222364
       7A    -11.221517     8A    -11.212826     9A     -1.470078
      10A     -1.362131    11A     -1.092535    12A     -1.025028
      13A     -0.965206    14A     -0.891364    15A     -0.805816
      16A     -0.774692    17A     -0.694616    18A     -0.684081
      19A     -0.671740    20A     -0.646143    21A     -0.594295
      22A     -0.591525    23A     -0.579220    24A     -0.543378
      25A     -0.531913    26A     -0.525339    27A     -0.503310
      28A     -0.492161    29A     -0.479943    30A     -0.471866
      31A     -0.453424    32A     -0.427819

  @DF-RHF Final Energy:  -383.93822758105927

   => Energetics <=

    Nuclear Repulsion Energy =            385.6042253508532553
    One-Electron Energy =               -1287.1408316586480396
    Two-Electron Energy =                 517.5983787267371099
    DFT Exchange-Correlation Energy =       0.0000000000000000
    Empirical Dispersion Energy =           0.0000000000000000
    PCM Polarization Energy =               0.0000000000000000
    EFP Energy =                            0.0000000000000000
    Total Energy =                       -383.9382275810576175

  Mulliken Charges: (a.u.)
   Center  Symbol    Alpha    Beta     Spin     Total
       1     O     4.28814  4.28814  0.00000 -0.57627
       2     C     2.60356  2.60356  0.00000  0.79288
       3     C     3.21192  3.21192  0.00000 -0.42383
       4     O     4.30414  4.30414  0.00000 -0.60828
       5     C     3.15294  3.15294  0.00000 -0.30588
       6     H     0.39958  0.39958  0.00000  0.20084
       7     H     0.39825  0.39825  0.00000  0.20350
       8     C     3.15419  3.15419  0.00000 -0.30837
       9     H     0.40836  0.40836  0.00000  0.18329
      10     H     0.41753  0.41753  0.00000  0.16494
      11     C     3.23938  3.23938  0.00000 -0.47876
      12     H     0.42229  0.42229  0.00000  0.15542
      13     H     0.42196  0.42196  0.00000  0.15607
      14     H     0.42064  0.42064  0.00000  0.15872
      15     H     0.41806  0.41806  0.00000  0.16387
      16     H     0.42071  0.42071  0.00000  0.15858
      17     C     3.09223  3.09223  0.00000 -0.18447
      18     H     0.40856  0.40856  0.00000  0.18288
      19     H     0.40884  0.40884  0.00000  0.18232
      20     H     0.40873  0.40873  0.00000  0.18254

   Total alpha = 32.00000, Total beta = 32.00000, Total charge = -0.00000
