  ==> Input File <==

--------------------------------------------------------------------------
set {
	reference rhf
	basis 6-31G*
}

set_num_threads( 4 )
memory 2 gb

molecule MOL {
0 1

H	 -3.892951	 0.981613	 -0.358725
C	 -3.196921	 0.361773	 0.172313
C	 -2.076860	 -0.007332	 -0.404944
H	 -3.439953	 0.057760	 1.173024
O	 -0.891863	 0.599261	 -0.131654
H	 -2.026003	 -0.818888	 -1.109207
C	 0.208410	 0.271337	 -0.908643
C	 0.281164	 1.116453	 -2.160353
H	 0.207693	 -0.771659	 -1.205048
H	 1.094982	 0.468340	 -0.324120
F	 1.365940	 0.792147	 -2.848751
F	 -0.765616	 0.921924	 -2.945364
F	 0.344015	 2.402982	 -1.885976

	symmetry c1
}
set optking {
	frozen_dihedral = ("
		6 3 2 1
	")
}

ee = optimize('scf')
oeprop('DIPOLE', 'QUADRUPOLE', 'MULLIKEN_CHARGES')
f=open( 'psi4out.xyz', 'w' )
f.write( "13  " )
f.write( str(ee) + "\n" )
f.write( MOL.save_string_xyz() )
f.close()
--------------------------------------------------------------------------

    Molecular point group: c1
  Charge       = 0
  Multiplicity = 1
  Basis Set: 6-31G*
  Basis Set:
  @DF-RHF Final Energy:  -527.40314851945379
    Total Energy =                       -527.4031485194540210
    Molecular point group: c1
  Basis Set: 6-31G*
  Basis Set:
  Basis Set: 6-31G*
  Basis Set:
  @DF-RHF Final Energy:  -527.43837187243253
    Total Energy =                       -527.4383718724327537
  Basis Set: 6-31G*
  Basis Set:
  Basis Set: 6-31G*
  Basis Set:
  @DF-RHF Final Energy:  -527.47776497362725
    Total Energy =                       -527.4777649736270178
  Basis Set: 6-31G*
  Basis Set:
  Basis Set: 6-31G*
  Basis Set:
  @DF-RHF Final Energy:  -527.48903444475036
    Total Energy =                       -527.4890344447499047
  Basis Set: 6-31G*
  Basis Set:
  @DF-RHF Final Energy:  -527.48989049997647
    Total Energy =                       -527.4898904999763545
  @DF-RHF Final Energy:  -527.49000479133349
    Total Energy =                       -527.4900047913330354
  @DF-RHF Final Energy:  -527.49014690173408
    Total Energy =                       -527.4901469017340787
  @DF-RHF Final Energy:  -527.49015851893557
    Total Energy =                       -527.4901585189360276
  @DF-RHF Final Energy:  -527.49016058749658
    Total Energy =                       -527.4901605874965753
  @DF-RHF Final Energy:  -527.49015935166403
    Total Energy =                       -527.4901593516638059
  @DF-RHF Final Energy:  -527.49016006111708
    Total Energy =                       -527.4901600611171943
  @DF-RHF Final Energy:  -527.49001121857759
    Total Energy =                       -527.4900112185775924
  @DF-RHF Final Energy:  -527.49010159079171
    Total Energy =                       -527.4901015907914825
  @DF-RHF Final Energy:  -527.49012457292247
    Total Energy =                       -527.4901245729225820
  @DF-RHF Final Energy:  -527.49012603415542
    Total Energy =                       -527.4901260341556508
  @DF-RHF Final Energy:  -527.49012504421785
    Total Energy =                       -527.4901250442179617
  @DF-RHF Final Energy:  -527.49013410840587
    Total Energy =                       -527.4901341084057549
  @DF-RHF Final Energy:  -527.49013776948459
    Total Energy =                       -527.4901377694843632
  @DF-RHF Final Energy:  -527.49014133091941
    Total Energy =                       -527.4901413309191867
  @DF-RHF Final Energy:  -527.49014138742507
    Total Energy =                       -527.4901413874254104
  @DF-RHF Final Energy:  -527.49014087425280
    Total Energy =                       -527.4901408742531430
  @DF-RHF Final Energy:  -527.49014089498633
    Total Energy =                       -527.4901408949867800
  @DF-RHF Final Energy:  -527.49014131782519
    Total Energy =                       -527.4901413178253051
  @DF-RHF Final Energy:  -527.49014293302685
    Total Energy =                       -527.4901429330271867
  @DF-RHF Final Energy:  -527.49014325731048
    Total Energy =                       -527.4901432573101374
  @DF-RHF Final Energy:  -527.49014335292350
    Total Energy =                       -527.4901433529234964
  @DF-RHF Final Energy:  -527.49014342772762
    Total Energy =                       -527.4901434277277303
  @DF-RHF Final Energy:  -527.49014347759135
    Total Energy =                       -527.4901434775911184
  @DF-RHF Final Energy:  -527.49014329961415
    Total Energy =                       -527.4901432996139192
  @DF-RHF Final Energy:  -527.49014360329363
    Total Energy =                       -527.4901436032937454
  @DF-RHF Final Energy:  -527.49014378645506
    Total Energy =                       -527.4901437864550644
  @DF-RHF Final Energy:  -527.49014392927290
    Total Energy =                       -527.4901439292726764
  @DF-RHF Final Energy:  -527.49014406451897
    Total Energy =                       -527.4901440645187449
  @DF-RHF Final Energy:  -527.49014407747222
    Total Energy =                       -527.4901440774724506
  @DF-RHF Final Energy:  -527.49014405219111
    Total Energy =                       -527.4901440521909990
  @DF-RHF Final Energy:  -527.49014402458999
    Total Energy =                       -527.4901440245901085
  Basis Set: 6-31G*
  Basis Set:
  @DF-RHF Final Energy:  -527.49014398482245
    Total Energy =                       -527.4901439848224527
  Basis Set: 6-31G*
  Basis Set:
  Basis Set: 6-31G*
  Basis Set:
  @DF-RHF Final Energy:  -527.49014388598914
    Total Energy =                       -527.4901438859894824
  Basis Set: 6-31G*
  Basis Set:
  Basis Set: 6-31G*
  Basis Set:
  @DF-RHF Final Energy:  -527.49014400238320
    Total Energy =                       -527.4901440023832038
  Basis Set: 6-31G*
  Basis Set:
  Charge       = 0
  Multiplicity = 1
  Basis Set: 6-31G*
  Basis Set:

    Orbital Energies (a.u.)
    -----------------------

    Doubly Occupied:

       1A    -26.345816     2A    -26.345234     3A    -26.341706
       4A    -20.608284     5A    -11.504534     6A    -11.319226
       7A    -11.314245     8A    -11.220541     9A     -1.743093
      10A     -1.641233    11A     -1.639511    12A     -1.437476
      13A     -1.086935    14A     -1.012745    15A     -0.925167
      16A     -0.840150    17A     -0.832214    18A     -0.825484
      19A     -0.795228    20A     -0.722285    21A     -0.712606
      22A     -0.696248    23A     -0.675118    24A     -0.659833
      25A     -0.654583    26A     -0.644385    27A     -0.630006
      28A     -0.590839    29A     -0.556235    30A     -0.514199
      31A     -0.505738    32A     -0.346477

  @DF-RHF Final Energy:  -527.49014396197026

   => Energetics <=

    Nuclear Repulsion Energy =            411.8388868117665425
    One-Electron Energy =               -1547.2833102414042514
    Two-Electron Energy =                 607.9542794676676749
    DFT Exchange-Correlation Energy =       0.0000000000000000
    Empirical Dispersion Energy =           0.0000000000000000
    PCM Polarization Energy =               0.0000000000000000
    EFP Energy =                            0.0000000000000000
    Total Energy =                       -527.4901439619700341
    Molecular point group: c1
  Basis Set: 6-31G*
  Basis Set:

  -Total Gradient:
     Atom            X                  Y                   Z
    ------   -----------------  -----------------  -----------------
       1        0.006233096125     0.035007301316     0.007476132709
       2        0.002045172086    -0.059377697404     0.000386240210
       3       -0.033351543662     0.041982639068    -0.031921124542
       4        0.000724641140    -0.000395516509    -0.000203126672
       5       -0.000239881929    -0.000248636321     0.000346970601
       6        0.024487295599    -0.016735824236     0.023851307137
       7       -0.000065099280    -0.000192731165     0.000123174556
       8       -0.000051760781     0.000171390990    -0.000075991435
       9        0.000038232248    -0.000189723644    -0.000049920716
      10        0.000160844705     0.000066165774    -0.000104619896
      11       -0.000045377985     0.000016202959     0.000086976409
      12        0.000078570048     0.000020981536     0.000088129128
      13       -0.000014188314    -0.000124552362    -0.000004147494

    Molecular point group: c1

    Geometry (in Angstrom), charge = 0, multiplicity = 1:

    H           -3.815894023267    -0.557180882908     1.650757837930
    C           -2.770396603425    -0.767298314715     1.796407151010
    C           -1.831410609303    -0.711511524138     0.843839870768
    H           -2.444830806457    -0.254429417681     2.692788815873
    O           -0.643170565589    -0.138582076613     1.211921920336
    H           -1.632096748158    -1.470353907679     0.105611817595
    C            0.532741960082    -0.573549782212     0.614402219826
    C            0.854167207653     0.247579836286    -0.613345203295
    H            0.494599118388    -1.618083768064     0.325974275513
    H            1.337530271316    -0.440234949945     1.322807953762
    F            1.991373392561    -0.175952956810    -1.144649507651
    F           -0.087232987845     0.136329033126    -1.536305424571
    F            0.989489732147     1.526496864892    -0.331187336187

  Mulliken Charges: (a.u.)
   Center  Symbol    Alpha    Beta     Spin     Total
       1     H     0.40109  0.40109  0.00000  0.19781
       2     C     3.23350  3.23350  0.00000 -0.46699
       3     C     2.89870  2.89870  0.00000  0.20260
       4     H     0.40885  0.40885  0.00000  0.18231
       5     O     4.29824  4.29824  0.00000 -0.59649
       6     H     0.40734  0.40734  0.00000  0.18532
       7     C     3.06625  3.06625  0.00000 -0.13249
       8     C     2.45497  2.45497  0.00000  1.09006
       9     H     0.40480  0.40480  0.00000  0.19040
      10     H     0.38945  0.38945  0.00000  0.22109
      11     F     4.68268  4.68268  0.00000 -0.36535
      12     F     4.67976  4.67976  0.00000 -0.35951
      13     F     4.67438  4.67438  0.00000 -0.34876

   Total alpha = 32.00000, Total beta = 32.00000, Total charge = -0.00000
