  ==> Input File <==

--------------------------------------------------------------------------
set {
	reference rhf
	basis 6-31G*
}

set_num_threads( 4 )
memory 2 gb

molecule MOL {
0 1

H	 -2.798360	 -0.862255	 -0.071053
N	 -1.863561	 -0.715187	 0.256814
C	 -1.344686	 0.554728	 -0.219830
H	 -1.300452	 -1.461917	 -0.101532
C	 0.081427	 0.741154	 0.254071
H	 -1.362155	 0.656231	 -1.305829
H	 -1.952773	 1.354456	 0.191809
O	 0.217102	 2.048616	 0.732842
H	 0.311977	 0.027239	 1.044520
H	 0.766991	 0.569083	 -0.572747
C	 1.509597	 2.385429	 1.124743
H	 1.490301	 3.408811	 1.474049
H	 1.860214	 1.745175	 1.932284
H	 2.209290	 2.308840	 0.295060

	symmetry c1
}
set optking {
	frozen_dihedral = ("
		8 5 3 6
	")
}

ee = optimize('scf')
oeprop('DIPOLE', 'QUADRUPOLE', 'MULLIKEN_CHARGES')
f=open( 'psi4out.xyz', 'w' )
f.write( "14  " )
f.write( str(ee) + "\n" )
f.write( MOL.save_string_xyz() )
f.close()
--------------------------------------------------------------------------

    Molecular point group: c1
  Charge       = 0
  Multiplicity = 1
  Basis Set: 6-31G*
  Basis Set:
  @DF-RHF Final Energy:  -248.11666349318975
    Total Energy =                       -248.1166634931898898
    Molecular point group: c1
  Basis Set: 6-31G*
  Basis Set:
  Basis Set: 6-31G*
  Basis Set:
  @DF-RHF Final Energy:  -248.11735185218333
    Total Energy =                       -248.1173518521834467
  Basis Set: 6-31G*
  Basis Set:
  Basis Set: 6-31G*
  Basis Set:
  @DF-RHF Final Energy:  -248.11752713305708
    Total Energy =                       -248.1175271330570240
  Basis Set: 6-31G*
  Basis Set:
  Basis Set: 6-31G*
  Basis Set:
  @DF-RHF Final Energy:  -248.11754403079269
    Total Energy =                       -248.1175440307928284
  Basis Set: 6-31G*
  Basis Set:
  Charge       = 0
  Multiplicity = 1
  Basis Set: 6-31G*
  Basis Set:

    Orbital Energies (a.u.)
    -----------------------

    Doubly Occupied:

       1A    -20.553462     2A    -15.537191     3A    -11.263811
       4A    -11.263098     5A    -11.241160     6A     -1.377761
       7A     -1.178584     8A     -0.996360     9A     -0.899084
      10A     -0.823679    11A     -0.675771    12A     -0.672693
      13A     -0.643480    14A     -0.619836    15A     -0.606650
      16A     -0.539110    17A     -0.522580    18A     -0.499649
      19A     -0.467872    20A     -0.412384    21A     -0.386434

  @DF-RHF Final Energy:  -248.11754561756118

   => Energetics <=

    Nuclear Repulsion Energy =            190.7463276435028661
    One-Electron Energy =                -715.3664492713396612
    Two-Electron Energy =                 276.5025760102756749
    DFT Exchange-Correlation Energy =       0.0000000000000000
    Empirical Dispersion Energy =           0.0000000000000000
    PCM Polarization Energy =               0.0000000000000000
    EFP Energy =                            0.0000000000000000
    Total Energy =                       -248.1175456175611771
    Molecular point group: c1
  Basis Set: 6-31G*
  Basis Set:

  -Total Gradient:
     Atom            X                  Y                   Z
    ------   -----------------  -----------------  -----------------
       1       -0.000043805762    -0.000007896859    -0.000021171350
       2        0.000001928629    -0.000099575722     0.000078579610
       3       -0.001153667079     0.005045056587     0.001232137318
       4        0.000016865487    -0.000044938579    -0.000025603641
       5        0.001305500175     0.000331020599    -0.003984004525
       6        0.000765346668    -0.004171475270    -0.000279073056
       7       -0.000006413019     0.000024480368     0.000001638593
       8       -0.000846530234    -0.001024203857     0.003009016537
       9       -0.000004971050     0.000018506936     0.000015664869
      10       -0.000018074464    -0.000014633919    -0.000017714383
      11        0.000016565176    -0.000066163327     0.000015373828
      12       -0.000039287060    -0.000010235638    -0.000019792801
      13        0.000007465716     0.000010660264     0.000007627252
      14       -0.000000923181     0.000009398413    -0.000012678252

  **** Optimization is complete! (in 5 steps) ****
    Final optimized geometry and variables:
    Molecular point group: c1

    Geometry (in Angstrom), charge = 0, multiplicity = 1:

    H           -2.557205822494    -1.831222221056    -0.374974260158
    N           -1.581125806487    -1.742261496080    -0.167715124876
    C           -1.077786253654    -0.457690716207    -0.644882114556
    H           -1.121768088289    -2.499824088945    -0.637562431182
    C            0.363371394874    -0.237252143093    -0.181109037573
    H           -1.132877259054    -0.378980382382    -1.730662684789
    H           -1.686347038978     0.326356938585    -0.215915512161
    O            0.494437736432     1.076220707822     0.278232870915
    H            0.583347404655    -0.933428899821     0.624982059094
    H            1.072901207890    -0.423789163073    -0.987131630347
    C            1.774137201235     1.398419477689     0.718169001550
    H            1.754608406035     2.425340397589     1.056712782108
    H            2.083686637229     0.760904388484     1.544388028328
    H            2.507352260944     1.305655310780    -0.081481355364

  Mulliken Charges: (a.u.)
   Center  Symbol    Alpha    Beta     Spin     Total
       1     H     0.33085  0.33085  0.00000  0.33830
       2     N     3.92355  3.92355  0.00000 -0.84710
       3     C     3.07920  3.07920  0.00000 -0.15840
       4     H     0.33575  0.33575  0.00000  0.32849
       5     C     2.98812  2.98812  0.00000  0.02375
       6     H     0.42918  0.42918  0.00000  0.14163
       7     H     0.40179  0.40179  0.00000  0.19642
       8     O     4.30673  4.30673  0.00000 -0.61347
       9     H     0.41878  0.41878  0.00000  0.16245
      10     H     0.43396  0.43396  0.00000  0.13207
      11     C     3.07985  3.07985  0.00000 -0.15970
      12     H     0.41222  0.41222  0.00000  0.17556
      13     H     0.42896  0.42896  0.00000  0.14209
      14     H     0.43105  0.43105  0.00000  0.13790

   Total alpha = 21.00000, Total beta = 21.00000, Total charge =  0.00000
