  ==> Input File <==

--------------------------------------------------------------------------
set {
	reference rhf
	basis 6-31G*
}

set_num_threads( 4 )
memory 2 gb

molecule MOL {
0 1

H	 1.347645	 -1.546860	 -0.309906
O	 1.586534	 -0.678666	 -0.000226
C	 0.489431	 0.077273	 0.000046
C	 -0.764129	 -0.759190	 0.000191
O	 0.537743	 1.263962	 0.000257
C	 -2.038368	 0.075731	 -0.000248
H	 -0.717284	 -1.412404	 -0.866059
H	 -0.717458	 -1.411724	 0.866967
H	 -2.086483	 0.712501	 -0.875098
H	 -2.908485	 -0.571682	 -0.000042
H	 -2.086576	 0.713280	 0.874068

	symmetry c1
}
set optking {
	frozen_dihedral = ("
		1 2 3 5
	")
}

ee = optimize('scf')
oeprop('DIPOLE', 'QUADRUPOLE', 'MULLIKEN_CHARGES')
f=open( 'psi4out.xyz', 'w' )
f.write( "11  " )
f.write( str(ee) + "\n" )
f.write( MOL.save_string_xyz() )
f.close()
--------------------------------------------------------------------------

    Molecular point group: c1
  Charge       = 0
  Multiplicity = 1
  Basis Set: 6-31G*
  Basis Set:
  @DF-RHF Final Energy:  -266.83208744549142
    Total Energy =                       -266.8320874454913110
    Molecular point group: c1
  Basis Set: 6-31G*
  Basis Set:
  Basis Set: 6-31G*
  Basis Set:
  @DF-RHF Final Energy:  -266.83348955941153
    Total Energy =                       -266.8334895594114187
  Basis Set: 6-31G*
  Basis Set:
  Basis Set: 6-31G*
  Basis Set:
  @DF-RHF Final Energy:  -266.83367885584715
    Total Energy =                       -266.8336788558472108
  Basis Set: 6-31G*
  Basis Set:
  Basis Set: 6-31G*
  Basis Set:
  @DF-RHF Final Energy:  -266.83367715622194
    Total Energy =                       -266.8336771562218814
  Basis Set: 6-31G*
  Basis Set:
  Basis Set: 6-31G*
  Basis Set:
  @DF-RHF Final Energy:  -266.83367758600059
    Total Energy =                       -266.8336775860005332
  Basis Set: 6-31G*
  Basis Set:
  Charge       = 0
  Multiplicity = 1
  Basis Set: 6-31G*
  Basis Set:

    Orbital Energies (a.u.)
    -----------------------

    Doubly Occupied:

       1A    -20.612043     2A    -20.550115     3A    -11.381582
       4A    -11.255923     5A    -11.226404     6A     -1.468486
       7A     -1.371334     8A     -1.069312     9A     -0.908773
      10A     -0.828404    11A     -0.718634    12A     -0.667551
      13A     -0.657484    14A     -0.612286    15A     -0.591993
      16A     -0.534091    17A     -0.527225    18A     -0.513555
      19A     -0.477631    20A     -0.442541

  @DF-RHF Final Energy:  -266.83368296784846

   => Energetics <=

    Nuclear Repulsion Energy =            179.6031327516017768
    One-Electron Energy =                -720.0429025186108447
    Two-Electron Energy =                 273.6060867991606074
    DFT Exchange-Correlation Energy =       0.0000000000000000
    Empirical Dispersion Energy =           0.0000000000000000
    PCM Polarization Energy =               0.0000000000000000
    EFP Energy =                            0.0000000000000000
    Total Energy =                       -266.8336829678484037
    Molecular point group: c1
  Basis Set: 6-31G*
  Basis Set:

  -Total Gradient:
     Atom            X                  Y                   Z
    ------   -----------------  -----------------  -----------------
       1        0.000836848093     0.001324503779    -0.004344300937
       2       -0.001074935990    -0.001670763839     0.003689261206
       3        0.000268332555     0.000330890248     0.004704077504
       4        0.000002346731     0.000014022974    -0.000019678105
       5       -0.000009747287     0.000015361357    -0.004021097822
       6       -0.000003198275    -0.000007521562    -0.000004224452
       7       -0.000008048994    -0.000002091569     0.000002076245
       8        0.000000167686     0.000000528858    -0.000007131854
       9        0.000001684412    -0.000002762404     0.000005690959
      10       -0.000016293686     0.000002209038     0.000000704713
      11        0.000002844755    -0.000004376884    -0.000005377455

  **** Optimization is complete! (in 6 steps) ****
    Final optimized geometry and variables:
    Molecular point group: c1

    Geometry (in Angstrom), charge = 0, multiplicity = 1:

    H            1.496709612304    -1.521933120073    -0.295018002640
    O            1.636133966653    -0.633064959446     0.003478009030
    C            0.501182884240     0.079925786680     0.003176780628
    C           -0.771288912934    -0.743455034078     0.004811205543
    O            0.536702741037     1.260331231349     0.000464457232
    C           -2.034086381171     0.108680692549     0.008553619626
    H           -0.753352922417    -1.395613919145    -0.867061226202
    H           -0.739909937017    -1.397574399930     0.872843776530
    H           -2.072435313817     0.746918991973    -0.865155776562
    H           -2.913660357408    -0.525689675441     0.011199270966
    H           -2.066222142903     0.745207879587     0.883664090967

  Mulliken Charges: (a.u.)
   Center  Symbol    Alpha    Beta     Spin     Total
       1     H     0.26902  0.26902  0.00000  0.46195
       2     O     4.35232  4.35232  0.00000 -0.70463
       3     C     2.61153  2.61153  0.00000  0.77694
       4     C     3.23183  3.23183  0.00000 -0.46366
       5     O     4.26067  4.26067  0.00000 -0.52134
       6     C     3.23672  3.23672  0.00000 -0.47345
       7     H     0.40854  0.40854  0.00000  0.18291
       8     H     0.40026  0.40026  0.00000  0.19948
       9     H     0.40654  0.40654  0.00000  0.18691
      10     H     0.41696  0.41696  0.00000  0.16608
      11     H     0.40560  0.40560  0.00000  0.18880

   Total alpha = 20.00000, Total beta = 20.00000, Total charge =  0.00000
