                              Psi4 1.0.54 Driver

  ==> Input File <==

--------------------------------------------------------------------------
set {
	reference rhf
	basis cc-pvtz
}

set_num_threads( 4 )
memory 2 gb

molecule MOL {
0 1

H	 -2.387594	 -2.874523	 -1.800187
O	 -2.406484	 -2.071947	 -1.312631
C	 -1.103727	 -1.693617	 -0.954711
C	 -1.175688	 -0.398187	 -0.171891
H	 -0.635527	 -2.466910	 -0.349254
H	 -0.489755	 -1.556273	 -1.842408
C	 0.196029	 0.106276	 0.266738
H	 -1.809425	 -0.555389	 0.695222
H	 -1.668659	 0.348059	 -0.786718
C	 1.330220	 -0.826136	 -0.155230
H	 0.359542	 1.097229	 -0.145561
H	 0.212134	 0.218135	 1.348778
C	 2.719700	 -0.407669	 0.328325
H	 1.339388	 -0.911200	 -1.239363
H	 1.119001	 -1.821953	 0.224128
C	 3.241564	 0.893452	 -0.276737
H	 3.418299	 -1.204729	 0.093035
H	 2.711776	 -0.323368	 1.411960
H	 3.254204	 0.841071	 -1.360784
H	 2.634460	 1.745075	 0.005842
H	 4.254264	 1.092401	 0.054971

	symmetry c1
}
set optking {
	frozen_dihedral = ("
		8 4 7 10
	")
}

ee,wfn = optimize('scf', return_wfn=True)
oeprop( wfn, 'DIPOLE', 'QUADRUPOLE', 'MULLIKEN_CHARGES')
f=open( 'psi4out.xyz', 'w' )
f.write( "21  " )
f.write( str(ee) + "\n" )
f.write( MOL.save_string_xyz() )
f.close()
--------------------------------------------------------------------------

    Molecular point group: c1
  Charge       = 0
  Multiplicity = 1
  Basis Set: CC-PVTZ
  Basis Set:
  @DF-RHF Final Energy:  -310.31730808582836
    Total Energy =                       -310.3173080858283015
    Molecular point group: c1
  Basis Set: CC-PVTZ
  Basis Set:
  Basis Set: CC-PVTZ
  Basis Set:
  @DF-RHF Final Energy:  -309.90993771179018
    Total Energy =                       -309.9099377117901781
  Basis Set: CC-PVTZ
  Basis Set:
  Basis Set: CC-PVTZ
  Basis Set:
  @DF-RHF Final Energy:  -310.08462512832534
    Total Energy =                       -310.0846251283252855
  Basis Set: CC-PVTZ
  Basis Set:
  Basis Set: CC-PVTZ
  Basis Set:
  @DF-RHF Final Energy:  -310.28059548379667
    Total Energy =                       -310.2805954837965032
  Basis Set: CC-PVTZ
  Basis Set:
  @DF-RHF Final Energy:  -310.31811351058082
    Total Energy =                       -310.3181135105812700
  @DF-RHF Final Energy:  -310.32184346886629
    Total Energy =                       -310.3218434688666321
  @DF-RHF Final Energy:  -310.32268699497092
    Total Energy =                       -310.3226869949707520
  Basis Set: CC-PVTZ
  Basis Set:
  @DF-RHF Final Energy:  -310.32270845201447
    Total Energy =                       -310.3227084520145240
  Basis Set: CC-PVTZ
  Basis Set:
  Basis Set: CC-PVTZ
  Basis Set:
  @DF-RHF Final Energy:  -310.32270217686710
    Total Energy =                       -310.3227021768668692
  Basis Set: CC-PVTZ
  Basis Set:
  Basis Set: CC-PVTZ
  Basis Set:
  @DF-RHF Final Energy:  -310.32272424588979
    Total Energy =                       -310.3227242458900150
  Basis Set: CC-PVTZ
  Basis Set:
  Charge       = 0
  Multiplicity = 1
  Basis Set: CC-PVTZ
  Basis Set:

    Orbital Energies (a.u.)
    -----------------------

    Doubly Occupied:

       1A    -20.544601     2A    -11.264182     3A    -11.214515
       4A    -11.213648     5A    -11.213022     6A    -11.209019
       7A    -11.206729     8A     -1.362403     9A     -1.085074
      10A     -1.030095    11A     -0.952225    12A     -0.887413
      13A     -0.815758    14A     -0.763221    15A     -0.698459
      16A     -0.660836    17A     -0.621308    18A     -0.608542
      19A     -0.587340    20A     -0.568751    21A     -0.543000
      22A     -0.524089    23A     -0.513544    24A     -0.489549
      25A     -0.480395    26A     -0.461500    27A     -0.451856
      28A     -0.443804    29A     -0.429122

  @DF-RHF Final Energy:  -310.32272434654908

   => Energetics <=

    Nuclear Repulsion Energy =            316.9193386596595019
    One-Electron Energy =               -1048.7961245786800646
    Two-Electron Energy =                 421.5540615724719373
    DFT Exchange-Correlation Energy =       0.0000000000000000
    Empirical Dispersion Energy =           0.0000000000000000
    PCM Polarization Energy =               0.0000000000000000
    EFP Energy =                            0.0000000000000000
    Total Energy =                       -310.3227243465486254
    Molecular point group: c1
  Basis Set: CC-PVTZ
  Basis Set:

  -Total Gradient:
     Atom            X                  Y                   Z
    ------   -----------------  -----------------  -----------------
       1        0.000000246365     0.000012252663    -0.000003384920
       2       -0.000002630661    -0.000011265972    -0.000001539011
       3        0.000022930254     0.000004229578     0.000005470532
       4        0.000361238093    -0.000700407248    -0.000048430136
       5       -0.000006562663    -0.000001988434    -0.000002063466
       6       -0.000009831623    -0.000001959673     0.000008949130
       7        0.000219807955     0.000030526660     0.000675364168
       8       -0.000368216567     0.000588543220    -0.000146431474
       9        0.000001553992     0.000004444593     0.000000430697
      10       -0.000214238240     0.000079455174    -0.000487106369
      11        0.000001761330    -0.000003974398     0.000000061437
      12       -0.000003250240    -0.000002369748    -0.000004173828
      13       -0.000002030415     0.000006521464     0.000005279911
      14        0.000000740791     0.000000228030     0.000000845228
      15        0.000003108561     0.000002414270    -0.000002108979
      16        0.000002211414    -0.000005210304    -0.000001943222
      17       -0.000003896704     0.000001948799     0.000000208349
      18       -0.000002079162    -0.000002972466    -0.000001313491
      19        0.000000299440     0.000003305838     0.000002205620
      20        0.000001345097    -0.000001842937    -0.000000994162
      21       -0.000002507023    -0.000001879113     0.000000673987

  **** Optimization is complete! (in 11 steps) ****
    Final optimized geometry and variables:
    Molecular point group: c1

    Geometry (in Angstrom), charge = 0, multiplicity = 1:

    H           -2.777662986465    -2.689518731415     0.855112997696
    O           -2.669611355976    -1.766539116892     0.991176785929
    C           -1.410150168257    -1.355798785044     0.524438869338
    C           -1.301402245088     0.137979316567     0.777993377293
    H           -0.624473907430    -1.894940171705     1.045083354352
    H           -1.314188800937    -1.574053168086    -0.535250228940
    C            0.006561129791     0.841317252893     0.330183715707
    H           -1.456353476989     0.295069967596     1.838800945682
    H           -2.148250364730     0.602178276629     0.286677364611
    C            1.105680816804    -0.036659286064    -0.275887916378
    H           -0.251418728410     1.612599153938    -0.384605145861
    H            0.429714534319     1.361480432010     1.183337912303
    C            2.382094752019     0.730480914562    -0.630602555679
    H            0.738657766220    -0.534104264182    -1.169056358492
    H            1.371657834482    -0.820871157061     0.425234388028
    C            2.232579527254     1.735990900064    -1.769973508611
    H            3.146983250586     0.010086277170    -0.904085060763
    H            2.750977651095     1.241140705134     0.254986223955
    H            1.853668150875     1.255075768905    -2.666233189397
    H            1.555919464262     2.542616484181    -1.516248465254
    H            3.190018786976     2.181084026715    -2.015530083813

  Mulliken Charges: (a.u.)
   Center  Symbol    Alpha    Beta     Spin     Total
       1     H     0.39782  0.39782  0.00000  0.20436
       2     O     4.19489  4.19489  0.00000 -0.38977
       3     C     2.96791  2.96791  0.00000  0.06417
       4     C     3.09019  3.09019  0.00000 -0.18038
       5     H     0.47191  0.47191  0.00000  0.05618
       6     H     0.47183  0.47183  0.00000  0.05633
       7     C     3.10625  3.10625  0.00000 -0.21250
       8     H     0.44837  0.44837  0.00000  0.10326
       9     H     0.44845  0.44845  0.00000  0.10309
      10     C     3.10514  3.10514  0.00000 -0.21028
      11     H     0.44814  0.44814  0.00000  0.10373
      12     H     0.44998  0.44998  0.00000  0.10004
      13     C     3.09019  3.09019  0.00000 -0.18038
      14     H     0.45201  0.45201  0.00000  0.09597
      15     H     0.44707  0.44707  0.00000  0.10586
      16     C     3.15204  3.15204  0.00000 -0.30409
      17     H     0.44836  0.44836  0.00000  0.10328
      18     H     0.45453  0.45453  0.00000  0.09093
      19     H     0.45534  0.45534  0.00000  0.08931
      20     H     0.45318  0.45318  0.00000  0.09364
      21     H     0.44638  0.44638  0.00000  0.10725

   Total alpha = 29.00000, Total beta = 29.00000, Total charge = -0.00000

*** Psi4 exiting successfully. Buy a developer a beer!
