  ==> Input File <==

--------------------------------------------------------------------------
set {
	reference rhf
	basis 6-31G*
}

set_num_threads( 4 )
memory 2 gb

molecule MOL {
0 1

O	 -0.709982	 -0.122831	 2.448878
C	 -1.002980	 0.496040	 1.477579
C	 -1.836557	 1.748820	 1.471407
O	 -0.632575	 0.154573	 0.251549
H	 -2.720940	 1.597271	 0.863257
H	 -2.121271	 1.999833	 2.482231
H	 -1.271368	 2.562460	 1.031739
C	 0.160891	 -1.019931	 0.106212
C	 1.589627	 -0.672828	 0.480843
H	 0.089836	 -1.367806	 -0.916050
H	 -0.238459	 -1.792301	 0.749618
C	 2.246377	 0.346236	 -0.452210
H	 2.163194	 -1.597435	 0.473358
H	 1.604769	 -0.303424	 1.502885
C	 3.691736	 0.652107	 -0.061850
H	 2.219579	 -0.032311	 -1.472055
H	 1.666466	 1.263317	 -0.447249
H	 4.134505	 1.377213	 -0.737283
H	 4.305508	 -0.243868	 -0.089969
H	 3.748266	 1.059562	 0.943567

	symmetry c1
}
set optking {
	frozen_dihedral = ("
		2 4 8 10
	")
}

ee = optimize('scf')
oeprop('DIPOLE', 'QUADRUPOLE', 'MULLIKEN_CHARGES')
f=open( 'psi4out.xyz', 'w' )
f.write( "20  " )
f.write( str(ee) + "\n" )
f.write( MOL.save_string_xyz() )
f.close()
--------------------------------------------------------------------------

    Molecular point group: c1
  Charge       = 0
  Multiplicity = 1
  Basis Set: 6-31G*
  Basis Set:
  @DF-RHF Final Energy:  -383.94247448420776
    Total Energy =                       -383.9424744842078780
    Molecular point group: c1
  Basis Set: 6-31G*
  Basis Set:
  Basis Set: 6-31G*
  Basis Set:
  @DF-RHF Final Energy:  -383.94432533253354
    Total Energy =                       -383.9443253325333671
  Basis Set: 6-31G*
  Basis Set:
  Basis Set: 6-31G*
  Basis Set:
  @DF-RHF Final Energy:  -383.94289126025114
    Total Energy =                       -383.9428912602512582
  Basis Set: 6-31G*
  Basis Set:
  Basis Set: 6-31G*
  Basis Set:
  @DF-RHF Final Energy:  -383.94467530934628
    Total Energy =                       -383.9446753093459392
  Basis Set: 6-31G*
  Basis Set:
  Basis Set: 6-31G*
  Basis Set:
  @DF-RHF Final Energy:  -383.94468950533360
    Total Energy =                       -383.9446895053339404
  Basis Set: 6-31G*
  Basis Set:
  Charge       = 0
  Multiplicity = 1
  Basis Set: 6-31G*
  Basis Set:

    Orbital Energies (a.u.)
    -----------------------

    Doubly Occupied:

       1A    -20.601721     2A    -20.544633     3A    -11.375790
       4A    -11.282851     5A    -11.233462     6A    -11.220803
       7A    -11.219751     8A    -11.211966     9A     -1.467271
      10A     -1.362678    11A     -1.082752    12A     -1.028490
      13A     -0.979324    14A     -0.887608    15A     -0.817816
      16A     -0.751758    17A     -0.697712    18A     -0.683684
      19A     -0.662103    20A     -0.631353    21A     -0.597408
      22A     -0.593376    23A     -0.571687    24A     -0.565327
      25A     -0.536926    26A     -0.524765    27A     -0.515403
      28A     -0.490748    29A     -0.474207    30A     -0.467121
      31A     -0.444294    32A     -0.436446

  @DF-RHF Final Energy:  -383.94468983063166

   => Energetics <=

    Nuclear Repulsion Energy =            391.9569680335387147
    One-Electron Energy =               -1299.8808551880088089
    Two-Electron Energy =                 523.9791973238386618
    DFT Exchange-Correlation Energy =       0.0000000000000000
    Empirical Dispersion Energy =           0.0000000000000000
    PCM Polarization Energy =               0.0000000000000000
    EFP Energy =                            0.0000000000000000
    Total Energy =                       -383.9446898306314324
    Molecular point group: c1
  Basis Set: 6-31G*
  Basis Set:

  -Total Gradient:
     Atom            X                  Y                   Z
    ------   -----------------  -----------------  -----------------
       1        0.000002219798    -0.000018825670    -0.000032908251
       2        0.000753440821     0.000522702629     0.000030582669
       3        0.000021497780     0.000016655138     0.000013814370
       4       -0.000923990478    -0.000547508656    -0.000097736155
       5       -0.000017733727     0.000005612637     0.000001097118
       6       -0.000008067029     0.000003464733     0.000000160476
       7       -0.000010169862    -0.000016607869    -0.000008607807
       8       -0.000576648190    -0.000525128803     0.000347428222
       9       -0.000068456344     0.000028247703    -0.000043616419
      10        0.000810509653     0.000580835789    -0.000222937835
      11        0.000011933331    -0.000015426565     0.000028255267
      12        0.000038741593    -0.000046673191    -0.000016368154
      13       -0.000023954019    -0.000037824046    -0.000044156637
      14        0.000023962763     0.000012339697     0.000012576906
      15       -0.000023787893     0.000041862318     0.000045858562
      16        0.000010712960    -0.000009645098    -0.000001887856
      17       -0.000004858579    -0.000002867089    -0.000017772391
      18       -0.000012668077     0.000012501749     0.000012782970
      19       -0.000014181458     0.000003039363    -0.000016296993
      20        0.000011496964    -0.000006754768     0.000009731933

  **** Optimization is complete! (in 6 steps) ****
    Final optimized geometry and variables:
    Molecular point group: c1

    Geometry (in Angstrom), charge = 0, multiplicity = 1:

    O           -1.200684573469    -0.284765179889     1.756660952380
    C           -1.478725540929     0.304237042982     0.762139580209
    C           -2.334181864472     1.541188453035     0.706946082620
    O           -1.076094709444    -0.055733372463    -0.448669785337
    H           -3.198235912316     1.360362287159     0.078109561044
    H           -2.650869406112     1.807779329591     1.704198631973
    H           -1.771979434668     2.355832657340     0.265200948840
    C           -0.241961157309    -1.206530185442    -0.574448580839
    C            1.215582680974    -0.908479540957    -0.255444650022
    H           -0.349021810238    -1.501358075468    -1.609252442111
    H           -0.625184414307    -1.990641802769     0.061597930225
    C            1.843847323863     0.147500334927    -1.166996638174
    H            1.762824459101    -1.844501156417    -0.352916012283
    H            1.299004307306    -0.607717320524     0.783370665738
    C            3.310309098527     0.414289751320    -0.829893848378
    H            1.763657934729    -0.175905680596    -2.202918127424
    H            1.281082413640     1.073037204800    -1.091847420802
    H            3.732478127820     1.168264828397    -1.486785704819
    H            3.908031983078    -0.486955092810    -0.933434148449
    H            3.419584237338     0.766516874672     0.191785251409

  Mulliken Charges: (a.u.)
   Center  Symbol    Alpha    Beta     Spin     Total
       1     O     4.28432  4.28432  0.00000 -0.56863
       2     C     2.61975  2.61975  0.00000  0.76051
       3     C     3.28166  3.28166  0.00000 -0.56331
       4     O     4.30898  4.30898  0.00000 -0.61797
       5     H     0.40001  0.40001  0.00000  0.19999
       6     H     0.39707  0.39707  0.00000  0.20585
       7     H     0.40093  0.40093  0.00000  0.19814
       8     C     3.00668  3.00668  0.00000 -0.01335
       9     C     3.17254  3.17254  0.00000 -0.34509
      10     H     0.41068  0.41068  0.00000  0.17865
      11     H     0.40175  0.40175  0.00000  0.19650
      12     C     3.15373  3.15373  0.00000 -0.30746
      13     H     0.41979  0.41979  0.00000  0.16041
      14     H     0.40298  0.40298  0.00000  0.19405
      15     C     3.23989  3.23989  0.00000 -0.47979
      16     H     0.42345  0.42345  0.00000  0.15309
      17     H     0.41639  0.41639  0.00000  0.16722
      18     H     0.41821  0.41821  0.00000  0.16358
      19     H     0.42152  0.42152  0.00000  0.15696
      20     H     0.41967  0.41967  0.00000  0.16066

   Total alpha = 32.00000, Total beta = 32.00000, Total charge =  0.00000
