                              Psi4 1.0.54 Driver

  ==> Input File <==

--------------------------------------------------------------------------
set {
	reference rhf
	basis cc-pvtz
}

set_num_threads( 4 )
memory 2 gb

molecule MOL {
0 1

H	 2.828526	 -0.346869	 0.001065
C	 1.876567	 0.015966	 -0.363468
C	 0.776100	 -0.474630	 0.563074
H	 1.727928	 -0.357209	 -1.367458
H	 1.905986	 1.096609	 -0.386171
N	 -0.540207	 0.017640	 0.071612
H	 0.706926	 -1.548934	 0.573017
H	 0.885984	 -0.084149	 1.560414
O	 -1.125157	 -0.671380	 -0.694730
O	 -0.900469	 1.078374	 0.458201

	symmetry c1
}
ee,wfn = energy('scf', return_wfn=True)
oeprop( wfn, 'DIPOLE', 'QUADRUPOLE', 'MULLIKEN_CHARGES')
oeprop( wfn, 'GRID_ESP')
f=open( 'psi4out.xyz', 'w' )
f.write( "10  " )
f.write( str(ee) + "\n" )
f.write( MOL.save_string_xyz() )
f.close()
--------------------------------------------------------------------------

    Molecular point group: c1

    Geometry (in Angstrom), charge = 0, multiplicity = 1:

       Center              X                  Y                   Z               Mass
    ------------   -----------------  -----------------  -----------------  -----------------
           H          2.828711069607    -0.346903933707     0.001083042001     1.007825032070
           C          1.876752069607     0.015931066293    -0.363449957999    12.000000000000
           C          0.776285069607    -0.474664933707     0.563092042001    12.000000000000
           H          1.728113069607    -0.357243933707    -1.367439957999     1.007825032070
           H          1.906171069607     1.096574066293    -0.386152957999     1.007825032070
           N         -0.540021930393     0.017605066293     0.071630042001    14.003074004780
           H          0.707111069607    -1.548968933707     0.573035042001     1.007825032070
           H          0.886169069607    -0.084183933707     1.560432042001     1.007825032070
           O         -1.124971930393    -0.671414933707    -0.694711957999    15.994914619560
           O         -0.900283930393     1.078339066293     0.458219042001    15.994914619560

  Charge       = 0
  Multiplicity = 1
  Basis Set: CC-PVTZ
  Basis Set:

    Orbital Energies (a.u.)
    -----------------------

    Doubly Occupied:

       1A    -20.591938     2A    -20.591761     3A    -15.838365
       4A    -11.301819     5A    -11.251042     6A     -1.637609
       7A     -1.422047     8A     -1.126674     9A     -0.966836
      10A     -0.839843    11A     -0.763485    12A     -0.739524
      13A     -0.730107    14A     -0.660080    15A     -0.590577
      16A     -0.559916    17A     -0.550285    18A     -0.488392
      19A     -0.479349    20A     -0.454811

  @DF-RHF Final Energy:  -282.81335516963509

   => Energetics <=

    Nuclear Repulsion Energy =            186.7896574491186925
    One-Electron Energy =                -756.0370458145162047
    Two-Electron Energy =                 286.4340331957623675
    DFT Exchange-Correlation Energy =       0.0000000000000000
    Empirical Dispersion Energy =           0.0000000000000000
    PCM Polarization Energy =               0.0000000000000000
    EFP Energy =                            0.0000000000000000
    Total Energy =                       -282.8133551696350878

  Mulliken Charges: (a.u.)
   Center  Symbol    Alpha    Beta     Spin     Total
       1     H     0.44787  0.44787  0.00000  0.10425
       2     C     3.14070  3.14070  0.00000 -0.28141
       3     C     3.03738  3.03738  0.00000 -0.07476
       4     H     0.44093  0.44093  0.00000  0.11814
       5     H     0.44069  0.44069  0.00000  0.11861
       6     N     3.27629  3.27629  0.00000  0.44741
       7     H     0.43475  0.43475  0.00000  0.13049
       8     H     0.43487  0.43487  0.00000  0.13025
       9     O     4.17311  4.17311  0.00000 -0.34623
      10     O     4.17338  4.17338  0.00000 -0.34677

   Total alpha = 20.00000, Total beta = 20.00000, Total charge =  0.00000

*** Psi4 exiting successfully. Buy a developer a beer!
